 Gaussian 16, Revision A.03,

 -----------------------------------------------------------
 # opt freq B3LYP/6-31G(d) empiricaldispersion=gd3bj scf=xqc
 -----------------------------------------------------------

 -------------------------------
 CID_115386009_JID_5475_neutraal
 -------------------------------
 Symbolic Z-matrix:
 Charge =  0 Multiplicity = 1

 SCF Done:  E(RB3LYP) =  -1374.45218049     A.U. after   15 cycles
 SCF Done:  E(RB3LYP) =  -1374.45508071     A.U. after   13 cycles
 SCF Done:  E(RB3LYP) =  -1374.45192538     A.U. after   13 cycles
 SCF Done:  E(RB3LYP) =  -1374.45589364     A.U. after   11 cycles
 SCF Done:  E(RB3LYP) =  -1374.45585326     A.U. after   12 cycles
 SCF Done:  E(RB3LYP) =  -1374.45618469     A.U. after   12 cycles
 SCF Done:  E(RB3LYP) =  -1374.45624650     A.U. after   11 cycles
 SCF Done:  E(RB3LYP) =  -1374.45624881     A.U. after   11 cycles
 SCF Done:  E(RB3LYP) =  -1374.45627663     A.U. after   11 cycles
 SCF Done:  E(RB3LYP) =  -1374.45628576     A.U. after   11 cycles
 SCF Done:  E(RB3LYP) =  -1374.45628853     A.U. after   10 cycles
 SCF Done:  E(RB3LYP) =  -1374.45629000     A.U. after   10 cycles
 SCF Done:  E(RB3LYP) =  -1374.45629052     A.U. after    9 cycles
 SCF Done:  E(RB3LYP) =  -1374.45629064     A.U. after    7 cycles
 Optimization completed.
    -- Stationary point found.
 Normal termination of Gaussian 16 at Thu Dec 10 16:15:33 2020.

 --------------------------------------------------------------------
 #N Geom=AllCheck Guess=TCheck SCRF=Check GenChk RB3LYP/6-31G(d) Freq
 --------------------------------------------------------------------

 Structure from the checkpoint file:  "JID_5475.chk"
 -------------------------------
 CID_115386009_JID_5475_neutraal
 -------------------------------
 Charge =  0 Multiplicity = 1

 SCF Done:  E(RB3LYP) =  -1374.45629064     A.U. after    1 cycles

  Exact polarizability: 167.861  -5.684 159.136  -9.560   0.155 114.173
 Approx polarizability: 228.497  -6.196 286.664 -20.702   3.069 182.465

                      1                      2                      3
                      A                      A                      A
 Frequencies --     25.9069                49.4583                63.8695
 Red. masses --      6.1832                 5.0163                 4.4309
 Frc consts  --      0.0024                 0.0072                 0.0106
 IR Inten    --      1.1907                 1.0870                 0.1200

                      4                      5                      6
                      A                      A                      A
 Frequencies --     98.2757               102.7510               138.3865
 Red. masses --      3.0193                 6.4995                 7.5837
 Frc consts  --      0.0172                 0.0404                 0.0856
 IR Inten    --      0.0892                 0.6463                 1.5763

                      7                      8                      9
                      A                      A                      A
 Frequencies --    156.3351               181.0461               201.7759
 Red. masses --      3.3230                 5.8684                 5.8348
 Frc consts  --      0.0479                 0.1133                 0.1400
 IR Inten    --      4.8646                 5.1643                 2.9736

                     10                     11                     12
                      A                      A                      A
 Frequencies --    230.6975               263.1338               288.1546
 Red. masses --      2.8511                 1.4719                 3.9804
 Frc consts  --      0.0894                 0.0600                 0.1947
 IR Inten    --      0.4636                 0.1283                 3.0511

                     13                     14                     15
                      A                      A                      A
 Frequencies --    300.8234               333.0972               337.6212
 Red. masses --      3.0820                 6.2124                 2.0910
 Frc consts  --      0.1643                 0.4061                 0.1404
 IR Inten    --      0.6397                 2.3887                 0.0620

                     16                     17                     18
                      A                      A                      A
 Frequencies --    416.4746               453.8998               506.7101
 Red. masses --      3.8228                 3.8960                 7.5178
 Frc consts  --      0.3907                 0.4729                 1.1373
 IR Inten    --      1.9733                 4.1275                 0.1108

                     19                     20                     21
                      A                      A                      A
 Frequencies --    583.2895               606.3067               623.9364
 Red. masses --      4.5971                 3.0828                 5.3852
 Frc consts  --      0.9215                 0.6677                 1.2352
 IR Inten    --      4.2355                 5.3508                 9.2869

                     22                     23                     24
                      A                      A                      A
 Frequencies --    641.0335               656.0744               682.8018
 Red. masses --      4.6458                 4.5161                 3.9211
 Frc consts  --      1.1248                 1.1453                 1.0771
 IR Inten    --      3.0450                17.9288                24.9164

                     25                     26                     27
                      A                      A                      A
 Frequencies --    695.6713               742.4305               766.1014
 Red. masses --      4.9010                 5.0175                 1.2770
 Frc consts  --      1.3975                 1.6295                 0.4416
 IR Inten    --      1.5858                 2.5688                41.3417

                     28                     29                     30
                      A                      A                      A
 Frequencies --    806.5729               830.3228               846.9872
 Red. masses --      1.3038                 2.4704                 1.5227
 Frc consts  --      0.4997                 1.0035                 0.6436
 IR Inten    --     10.6736                 8.2809                 9.2542

                     31                     32                     33
                      A                      A                      A
 Frequencies --    887.6245               904.1882               907.9429
 Red. masses --      2.2150                 1.4841                 2.4333
 Frc consts  --      1.0282                 0.7149                 1.1819
 IR Inten    --     15.3104                 8.5448                 3.7573

                     34                     35                     36
                      A                      A                      A
 Frequencies --    911.0008               936.4317               959.4866
 Red. masses --      4.3559                 4.0998                 1.7266
 Frc consts  --      2.1299                 2.1182                 0.9365
 IR Inten    --     19.4284                15.4318                 7.6641

                     37                     38                     39
                      A                      A                      A
 Frequencies --    993.6720              1031.0327              1041.7987
 Red. masses --      2.5090                 2.5212                 1.3683
 Frc consts  --      1.4596                 1.5791                 0.8750
 IR Inten    --      1.4028                 0.2588                24.0736

                     40                     41                     42
                      A                      A                      A
 Frequencies --   1071.3803              1078.8018              1101.9108
 Red. masses --      2.2265                 1.5452                 2.5010
 Frc consts  --      1.5057                 1.0595                 1.7892
 IR Inten    --     26.5089                 7.3264                 6.3878

                     43                     44                     45
                      A                      A                      A
 Frequencies --   1137.8897              1159.7948              1174.6853
 Red. masses --      2.8436                 2.1800                 1.0598
 Frc consts  --      2.1693                 1.7277                 0.8617
 IR Inten    --     17.2333                 6.0505                16.3453

                     46                     47                     48
                      A                      A                      A
 Frequencies --   1194.8378              1205.2212              1257.2653
 Red. masses --      1.7972                 1.2945                 2.0169
 Frc consts  --      1.5117                 1.1079                 1.8784
 IR Inten    --     17.4996                 2.6204                 0.8233

                     49                     50                     51
                      A                      A                      A
 Frequencies --   1266.6252              1275.9944              1303.6832
 Red. masses --      1.2285                 1.3790                 1.3372
 Frc consts  --      1.1613                 1.3229                 1.3391
 IR Inten    --      3.7496                27.1817                15.2656

                     52                     53                     54
                      A                      A                      A
 Frequencies --   1321.6614              1337.0842              1353.7891
 Red. masses --      1.2068                 1.8384                 1.2408
 Frc consts  --      1.2420                 1.9364                 1.3399
 IR Inten    --      1.7239                40.4865                 7.4775

                     55                     56                     57
                      A                      A                      A
 Frequencies --   1356.2700              1363.3543              1405.4676
 Red. masses --      1.6688                 1.3358                 1.3365
 Frc consts  --      1.8086                 1.4628                 1.5555
 IR Inten    --     51.9615                13.3275                 4.4050

                     58                     59                     60
                      A                      A                      A
 Frequencies --   1440.2998              1446.2231              1485.5185
 Red. masses --      2.8223                 1.2750                 1.0874
 Frc consts  --      3.4495                 1.5712                 1.4138
 IR Inten    --      6.8908                 8.5621                 3.0306

                     61                     62                     63
                      A                      A                      A
 Frequencies --   1493.4578              1511.9066              1515.5541
 Red. masses --      1.1069                 4.1406                 1.0844
 Frc consts  --      1.4546                 5.5766                 1.4675
 IR Inten    --     10.4954                91.4072                 3.9991

                     64                     65                     66
                      A                      A                      A
 Frequencies --   1528.7532              1544.9666              1620.7162
 Red. masses --      1.0453                 1.0531                 5.8596
 Frc consts  --      1.4394                 1.4811                 9.0685
 IR Inten    --      7.4927                 8.1453                65.8878

                     67                     68                     69
                      A                      A                      A
 Frequencies --   1739.5728              3027.4110              3048.9583
 Red. masses --     11.3483                 1.0674                 1.0842
 Frc consts  --     20.2333                 5.7641                 5.9383
 IR Inten    --    175.5237                21.9976                15.0056

                     70                     71                     72
                      A                      A                      A
 Frequencies --   3060.5065              3067.9356              3077.4776
 Red. masses --      1.0363                 1.0635                 1.0668
 Frc consts  --      5.7191                 5.8979                 5.9529
 IR Inten    --     17.8872                 9.9222                32.1400

                     73                     74                     75
                      A                      A                      A
 Frequencies --   3081.3879              3090.2316              3122.7400
 Red. masses --      1.0954                 1.0849                 1.1019
 Frc consts  --      6.1281                 6.1042                 6.3306
 IR Inten    --     16.4700                 1.7536                40.0964

                     76                     77                     78
                      A                      A                      A
 Frequencies --   3133.2859              3140.6381              3172.1657
 Red. masses --      1.1010                 1.1025                 1.0962
 Frc consts  --      6.3683                 6.4072                 6.4990
 IR Inten    --      6.8453                21.7810                 5.1154

                     79                     80                     81
                      A                      A                      A
 Frequencies --   3273.7052              3294.1245              3303.2209
 Red. masses --      1.0909                 1.0969                 1.1059
 Frc consts  --      6.8885                 7.0126                 7.1095
 IR Inten    --      1.9223                 0.1555                 0.7100

 - Thermochemistry -
 -------------------
 Temperature   298.150 Kelvin.  Pressure   1.00000 Atm.
 Atom     1 has atomic number  6 and mass  12.00000

 Molecular mass:   242.04352 amu.
 Principal axes and moments of inertia in atomic units:
                           1         2         3
     Eigenvalues --  2368.425524713.547935273.90506
           X            0.99982  -0.01902   0.00132
           Y            0.01907   0.99710  -0.07364
           Z            0.00008   0.07366   0.99728
 This molecule is an asymmetric top.
 Rotational symmetry number  1.
 Warning -- assumption of classical behavior for rotation
           may cause significant error
 Rotational temperatures (Kelvin)      0.03657     0.01838     0.01642
 Rotational constants (GHZ):           0.76200     0.38288     0.34220
 Zero-point vibrational energy     614818.3 (Joules/Mol)
                                  146.94511 (Kcal/Mol)
 Warning -- explicit consideration of  20 degrees of freedom as
           vibrations may cause significant error
 Vibrational temperatures:     37.27    71.16    91.89   141.40   147.84
          (Kelvin)            199.11   224.93   260.48   290.31   331.92
                              378.59   414.59   432.82   479.25   485.76
                              599.21   653.06   729.04   839.22   872.34
                              897.71   922.30   943.94   982.40  1000.92
                             1068.19  1102.25  1160.48  1194.65  1218.63
                             1277.09  1300.93  1306.33  1310.73  1347.32
                             1380.49  1429.67  1483.43  1498.92  1541.48
                             1552.16  1585.40  1637.17  1668.69  1690.11
                             1719.11  1734.04  1808.92  1822.39  1835.87
                             1875.71  1901.58  1923.77  1947.80  1951.37
                             1961.56  2022.15  2072.27  2080.79  2137.33
                             2148.75  2175.30  2180.54  2199.53  2222.86
                             2331.85  2502.86  4355.77  4386.77  4403.39
                             4414.08  4427.80  4433.43  4446.15  4492.93
                             4508.10  4518.68  4564.04  4710.13  4739.51
                             4752.60

 Zero-point correction=                           0.234172 (Hartree/Particle)
 Thermal correction to Energy=                    0.248914
 Thermal correction to Enthalpy=                  0.249858
 Thermal correction to Gibbs Free Energy=         0.191112
 Sum of electronic and zero-point Energies=          -1374.222119
 Sum of electronic and thermal Energies=             -1374.207377
 Sum of electronic and thermal Enthalpies=           -1374.206433
 Sum of electronic and thermal Free Energies=        -1374.265179

                     E (Thermal)             CV                S
                      KCal/Mol        Cal/Mol-Kelvin    Cal/Mol-Kelvin
 Total                  156.196             55.342            123.642
 Electronic               0.000              0.000              0.000
 Translational            0.889              2.981             42.353
 Rotational               0.889              2.981             32.443
 Vibrational            154.418             49.380             48.847
 Vibration     1          0.593              1.985              6.120
 Vibration     2          0.595              1.978              4.839
 Vibration     3          0.597              1.972              4.334
 Vibration     4          0.604              1.950              3.488
 Vibration     5          0.605              1.947              3.401
 Vibration     6          0.614              1.915              2.826
 Vibration     7          0.620              1.896              2.594
 Vibration     8          0.630              1.865              2.318
 Vibration     9          0.639              1.837              2.117
 Vibration    10          0.652              1.794              1.874
 Vibration    11          0.670              1.740              1.641
 Vibration    12          0.685              1.696              1.485
 Vibration    13          0.693              1.672              1.412
 Vibration    14          0.715              1.609              1.245
 Vibration    15          0.718              1.600              1.223
 Vibration    16          0.780              1.434              0.904
 Vibration    17          0.812              1.352              0.784
 Vibration    18          0.862              1.235              0.642
 Vibration    19          0.940              1.067              0.479
 Vibration    20          0.965              1.018              0.439

 Optimization completed.
    -- Stationary point found.
 Normal termination of Gaussian 16 at Thu Dec 10 16:25:25 2020.

 ----------------------------------------------------------------------
 # B3LYP/6-311++G(d,p) empiricaldispersion=gd3bj scf=xqc pop=npa geom=c
 heck
 ----------------------------------------------------------------------

 ---------------------------------------
 CID_115386009_JID_5475_Energie_neutraal
 ---------------------------------------
 Structure from the checkpoint file:  "JID_5475.chk"
 Charge =  0 Multiplicity = 1

 SCF Done:  E(RB3LYP) =  -1374.66947769     A.U. after   16 cycles
 Normal termination of Gaussian 16 at Thu Dec 10 16:29:52 2020.

 ----------------------------------------------------------------------
 # B3LYP/6-311++G(d,p) empiricaldispersion=gd3bj scf=xqc pop=npa geom=c
 heck
 ----------------------------------------------------------------------

 -------------------------------------
 CID_115386009_JID_5475_Energie_kation
 -------------------------------------
 Structure from the checkpoint file:  "JID_5475.chk"
 Charge =  1 Multiplicity = 2

 SCF Done:  E(UB3LYP) =  -1374.38053670     A.U. after   26 cycles
 Normal termination of Gaussian 16 at Thu Dec 10 16:45:34 2020.
 Gaussian 16:  ES64L-G16RevA.03 25-Dec-2016

 ----------------------------------------------------------------------
 # B3LYP/6-311++G(d,p) empiricaldispersion=gd3bj scf=xqc pop=npa geom=c
 heck
 ----------------------------------------------------------------------

 ------------------------------------
 CID_115386009_JID_5475_Energie_anion
 ------------------------------------
 Structure from the checkpoint file:  "JID_5475.chk"
 Charge = -1 Multiplicity = 2

                         Standard orientation:
 ---------------------------------------------------------------------
 Center     Atomic      Atomic             Coordinates (Angstroms)
 Number     Number       Type             X           Y           Z
 ---------------------------------------------------------------------
      1          6           0       -3.660986    0.871468   -0.218238
      2          6           0       -2.528989    1.302692   -1.151138
      3          6           0       -1.164613    0.616557   -0.943163
      4          6           0       -0.498510    1.023465    0.402463
      5         16           0       -0.787176   -0.004012    1.908664
      6          6           0       -0.740658   -1.739410    1.332123
      7          6           0       -1.689231   -2.009570    0.174907
      8         16           0       -1.189664   -1.178629   -1.378248
      9          6           0        0.962528    1.463252    0.244708
     10          8           0        1.222275    2.658919    0.320324
     11          6           0        2.054224    0.529242   -0.025725
     12          6           0        3.379607    0.795271   -0.270246
     13          6           0        4.012224   -0.456996   -0.509569
     14          6           0        3.030480   -1.402262   -0.394852
     15          8           0        1.841694   -0.823806   -0.101740
     16          1           0       -3.936313   -0.172483   -0.396851
     17          1           0       -4.551723    1.482649   -0.399675
     18          1           0       -3.385661    0.974816    0.835606
     19          1           0       -2.831387    1.127823   -2.190109
     20          1           0       -2.362188    2.384916   -1.051713
     21          1           0       -0.505832    1.006512   -1.728992
     22          1           0       -0.978154    1.960902    0.698238
     23          1           0       -1.057004   -2.306387    2.215185
     24          1           0        0.279365   -2.024863    1.076885
     25          1           0       -2.714260   -1.747009    0.446036
     26          1           0       -1.667439   -3.074756   -0.081936
     27          1           0        3.821883    1.780311   -0.276298
     28          1           0        5.053045   -0.636140   -0.738202
     29          1           0        3.016892   -2.477192   -0.491114
 ---------------------------------------------------------------------

 SCF Done:  E(UB3LYP) =  -1374.68078468     A.U. after   29 cycles

 The electronic state is 2-A.
 Alpha  occ. eigenvalues --  -88.72235 -88.71354 -19.02639 -18.90868 -10.09516
 Alpha  occ. eigenvalues --  -10.09443 -10.08456 -10.07465 -10.06806 -10.06720
 Alpha  occ. eigenvalues --  -10.05894 -10.05589 -10.05530 -10.02860 -10.00583
 Alpha  occ. eigenvalues --   -7.80878  -7.79994  -5.77283  -5.76910  -5.76398
 Alpha  occ. eigenvalues --   -5.76224  -5.76018  -5.75356  -0.95963  -0.85344
 Alpha  occ. eigenvalues --   -0.72913  -0.68418  -0.64997  -0.64486  -0.62611
 Alpha  occ. eigenvalues --   -0.60076  -0.54559  -0.52532  -0.48552  -0.46418
 Alpha  occ. eigenvalues --   -0.44751  -0.42436  -0.39946  -0.37126  -0.35527
 Alpha  occ. eigenvalues --   -0.34366  -0.34215  -0.33165  -0.31063  -0.30680
 Alpha  occ. eigenvalues --   -0.30331  -0.29359  -0.27629  -0.26389  -0.26035
 Alpha  occ. eigenvalues --   -0.25062  -0.24849  -0.24116  -0.23600  -0.21845
 Alpha  occ. eigenvalues --   -0.21410  -0.20854  -0.19464  -0.17624  -0.13895
 Alpha  occ. eigenvalues --   -0.11600  -0.10839  -0.08582  -0.07492   0.04932
 Alpha virt. eigenvalues --    0.07325   0.08126   0.09165   0.09897   0.10051
 Alpha virt. eigenvalues --    0.10657   0.11308   0.11681   0.12528   0.12897
 Alpha virt. eigenvalues --    0.13383   0.13736   0.14350   0.14867   0.15449

  Beta  occ. eigenvalues --  -88.72232 -88.71330 -19.02355 -18.90188 -10.09512
  Beta  occ. eigenvalues --  -10.09406 -10.08455 -10.07494 -10.06711 -10.06564
  Beta  occ. eigenvalues --  -10.05891 -10.05523 -10.05133 -10.02968 -10.00330
  Beta  occ. eigenvalues --   -7.80874  -7.79969  -5.77277  -5.76905  -5.76357
  Beta  occ. eigenvalues --   -5.76222  -5.75989  -5.75335  -0.95509  -0.84113
  Beta  occ. eigenvalues --   -0.72854  -0.68391  -0.64744  -0.64290  -0.62548
  Beta  occ. eigenvalues --   -0.59618  -0.54483  -0.52377  -0.48424  -0.45660
  Beta  occ. eigenvalues --   -0.44489  -0.42289  -0.39728  -0.36923  -0.35479
  Beta  occ. eigenvalues --   -0.34276  -0.34164  -0.32827  -0.30681  -0.30376
  Beta  occ. eigenvalues --   -0.29672  -0.29238  -0.27469  -0.26193  -0.25878
  Beta  occ. eigenvalues --   -0.24928  -0.24750  -0.23712  -0.23180  -0.21601
  Beta  occ. eigenvalues --   -0.21040  -0.19608  -0.18697  -0.16872  -0.12934
  Beta  occ. eigenvalues --   -0.11405  -0.10665  -0.07033  -0.06694
  Beta virt. eigenvalues --    0.07208   0.08040   0.09091   0.09821   0.09968
  Beta virt. eigenvalues --    0.10575   0.11226   0.11565   0.12008   0.12449
  Beta virt. eigenvalues --    0.12852   0.13318   0.13805   0.14279   0.14875

 Mulliken charges and spin densities:
               1          2
     1  C   -0.411848  -0.109083
     2  C   -0.597172   0.044213
     3  C    0.375931  -0.004192
     4  C    0.451718   0.046786
     5  S    0.044669  -0.038108
     6  C   -0.591788   0.016545
     7  C   -0.488703  -0.097101
     8  S   -0.033279   0.013244
     9  C   -1.125837   0.247457
    10  O   -0.405071   0.241119
    11  C    0.410892   0.004360
    12  C   -0.394647   0.256099
    13  C   -0.208815  -0.093912
    14  C   -0.195824   0.233865
    15  O    0.042988   0.037898
    16  H    0.121475   0.016845
    17  H    0.113104   0.011210
    18  H    0.103670   0.035080
    19  H    0.098411   0.025728
    20  H    0.126762   0.009229
    21  H    0.310631   0.000776
    22  H    0.333464  -0.012925
    23  H    0.130557   0.060111
    24  H    0.181123   0.008309
    25  H    0.105357   0.005764
    26  H    0.151917   0.047212
    27  H    0.154049  -0.015293
    28  H    0.110977   0.007049
    29  H    0.085290   0.001715
 Sum of Mulliken charges =  -1.00000   1.00000

 Dipole moment (field-independent basis, Debye):
    X=             -5.2691    Y=             -4.5113    Z=             -0.8865  Tot=              6.9929
 Quadrupole moment (field-independent basis, Debye-Ang):
   XX=           -135.9831   YY=           -127.0803   ZZ=           -122.7067
   XY=             -7.4323   XZ=             -1.2208   YZ=             -6.0523

 Summary of Natural Population Analysis:

                                       Natural Population
                Natural  -----------------------------------------------
    Atom  No    Charge         Core      Valence    Rydberg      Total
 -----------------------------------------------------------------------
      C    1   -0.29246      0.99966     2.28755    0.00524     3.29246
      C    2   -0.19046      0.99961     2.18119    0.00966     3.19046
      C    3   -0.16263      0.99950     2.15029    0.01285     3.16263
      C    4   -0.20347      0.99946     2.18918    0.01483     3.20347
      S    5    0.09361      4.99960     2.88642    0.02036     7.90639
      C    6   -0.26122      0.99957     2.25040    0.01125     3.26122
      C    7   -0.25769      0.99957     2.24761    0.01051     3.25769
      S    8    0.09057      4.99960     2.89063    0.01921     7.90943
      C    9    0.29388      0.99955     1.68504    0.02152     2.70612
      O   10   -0.23645      0.99988     3.23043    0.00614     4.23645
      C   11    0.10914      0.99941     1.87717    0.01428     2.89086
      C   12   -0.08724      0.99953     2.07860    0.00911     3.08724
      C   13   -0.18918      0.99958     2.18120    0.00841     3.18918
      C   14    0.09827      0.99954     1.88737    0.01483     2.90173
      O   15   -0.21558      0.99986     3.20579    0.00993     4.21558
      H   16    0.09533      0.00000     0.40291    0.00176     0.40467
      H   17    0.09233      0.00000     0.40658    0.00109     0.40767
      H   18    0.10506      0.00000     0.39334    0.00160     0.39494
      H   19    0.09400      0.00000     0.40382    0.00218     0.40600
      H   20    0.09633      0.00000     0.40180    0.00187     0.40367
      H   21    0.11578      0.00000     0.38327    0.00095     0.38422
      H   22    0.11481      0.00000     0.38330    0.00189     0.38519
      H   23    0.09991      0.00000     0.39832    0.00178     0.40009
      H   24    0.11432      0.00000     0.38358    0.00210     0.38568
      H   25    0.09788      0.00000     0.39974    0.00238     0.40212
      H   26    0.10181      0.00000     0.39647    0.00171     0.39819
      H   27    0.10518      0.00000     0.39387    0.00095     0.39482
      H   28    0.09715      0.00000     0.40195    0.00090     0.40285
      H   29    0.08101      0.00000     0.41792    0.00107     0.41899
 =======================================================================
   * Total *    0.00000     22.99391    40.79575    0.21035    64.00000

 Normal termination of Gaussian 16 at Thu Dec 10 17:01:44 2020.
