 Gaussian 16, Revision A.03,

 -----------------------------------------------------------
 # opt freq B3LYP/6-31G(d) empiricaldispersion=gd3bj scf=xqc
 -----------------------------------------------------------

 -------------------------------
 CID_130941076_JID_2505_neutraal
 -------------------------------
 Symbolic Z-matrix:
 Charge =  0 Multiplicity = 1

 SCF Done:  E(RB3LYP) =  -516.293688063     A.U. after   14 cycles
 SCF Done:  E(RB3LYP) =  -516.296153487     A.U. after   11 cycles
 SCF Done:  E(RB3LYP) =  -516.296407186     A.U. after   11 cycles
 SCF Done:  E(RB3LYP) =  -516.296441372     A.U. after   10 cycles
 SCF Done:  E(RB3LYP) =  -516.296448357     A.U. after    9 cycles
 SCF Done:  E(RB3LYP) =  -516.296452597     A.U. after    8 cycles
 SCF Done:  E(RB3LYP) =  -516.296456629     A.U. after    8 cycles
 SCF Done:  E(RB3LYP) =  -516.296460025     A.U. after    9 cycles
 SCF Done:  E(RB3LYP) =  -516.296462805     A.U. after    9 cycles
 SCF Done:  E(RB3LYP) =  -516.296476048     A.U. after   10 cycles
 SCF Done:  E(RB3LYP) =  -516.297334939     A.U. after   11 cycles
 SCF Done:  E(RB3LYP) =  -516.297507548     A.U. after   11 cycles
 SCF Done:  E(RB3LYP) =  -516.297563932     A.U. after   10 cycles
 SCF Done:  E(RB3LYP) =  -516.297565967     A.U. after    8 cycles
 SCF Done:  E(RB3LYP) =  -516.297566412     A.U. after    8 cycles
 SCF Done:  E(RB3LYP) =  -516.297566460     A.U. after    7 cycles
 Optimization completed.
    -- Stationary point found.

 1\1\GINC-NODE309\FOpt\RB3LYP\6-31G(d)\C9H15N3\VSC10255\09-Dec-2020\0\\
 # opt freq B3LYP/6-31G(d) empiricaldispersion=gd3bj scf=xqc\\CID_13094
 1076_JID_2505_neutraal\\0,1\C,0.900869217,-0.0358223646,0.0526189287\C
 ,0.3709233066,1.3622502265,0.0649319292\C,-0.932526905,1.785132652,-0.
 0333702391\N,-0.8912700457,3.1717248934,0.0153110521\C,0.4293665556,3.
 514473078,0.1614286396\N,1.2125037843,2.4537840284,0.1862065883\C,0.84
 15992517,4.9560016217,0.2360391945\N,-0.2630662465,5.8469585328,0.6093
 312629\C,-1.4634461681,5.530722543,-0.154267924\C,-2.0330138146,4.1030

 Normal termination of Gaussian 16 at Wed Dec  9 17:33:55 2020.

 --------------------------------------------------------------------
 #N Geom=AllCheck Guess=TCheck SCRF=Check GenChk RB3LYP/6-31G(d) Freq
 --------------------------------------------------------------------

 Structure from the checkpoint file:  "JID_2505.chk"
 -------------------------------
 CID_130941076_JID_2505_neutraal
 -------------------------------
 Charge =  0 Multiplicity = 1

 SCF Done:  E(RB3LYP) =  -516.297566460     A.U. after    1 cycles

  Exact polarizability: 131.181   2.264 111.101   0.622  -0.650  79.680
 Approx polarizability: 177.560   6.858 172.347   0.852  -1.065 118.603

                      1                      2                      3
                      A                      A                      A
 Frequencies --     76.7010                92.7837               112.6805
 Red. masses --      2.7576                 2.4245                 1.1975
 Frc consts  --      0.0096                 0.0123                 0.0090
 IR Inten    --      0.2516                 0.0370                 0.1545

                      4                      5                      6
                      A                      A                      A
 Frequencies --    193.8033               210.6687               234.3786
 Red. masses --      3.0394                 2.5114                 1.1144
 Frc consts  --      0.0673                 0.0657                 0.0361
 IR Inten    --      3.4839                 0.6380                 0.0967

                      7                      8                      9
                      A                      A                      A
 Frequencies --    266.8174               280.0207               284.2552
 Red. masses --      1.0602                 2.3917                 2.8961
 Frc consts  --      0.0445                 0.1105                 0.1379
 IR Inten    --      0.2016                 1.4059                 7.9088

                     10                     11                     12
                      A                      A                      A
 Frequencies --    319.0133               340.6528               385.9177
 Red. masses --      2.5713                 2.7537                 1.9448
 Frc consts  --      0.1542                 0.1883                 0.1707
 IR Inten    --      1.2098                 1.3164                 4.9772

                     13                     14                     15
                      A                      A                      A
 Frequencies --    447.8292               461.3913               478.6648
 Red. masses --      3.2871                 4.0252                 3.5902
 Frc consts  --      0.3884                 0.5049                 0.4847
 IR Inten    --      1.5658                 3.4814                 0.3066

                     16                     17                     18
                      A                      A                      A
 Frequencies --    565.5002               578.5896               656.5813
 Red. masses --      3.0652                 3.4790                 3.0363
 Frc consts  --      0.5775                 0.6862                 0.7712
 IR Inten    --      4.1573                 0.7431                 9.5866

                     19                     20                     21
                      A                      A                      A
 Frequencies --    672.0826               710.1034               723.9030
 Red. masses --      3.8866                 1.4615                 4.6254
 Frc consts  --      1.0344                 0.4342                 1.4281
 IR Inten    --      6.6274                15.3598                 7.3735

                     22                     23                     24
                      A                      A                      A
 Frequencies --    757.9178               826.5619               870.6948
 Red. masses --      1.9356                 2.5664                 2.3692
 Frc consts  --      0.6551                 1.0331                 1.0582
 IR Inten    --     48.4736                53.9224                60.1333

                     25                     26                     27
                      A                      A                      A
 Frequencies --    920.7377               949.2457               955.2728
 Red. masses --      1.9537                 1.8132                 1.4651
 Frc consts  --      0.9758                 0.9626                 0.7877
 IR Inten    --     14.1067                 1.3646                 0.8973

                     28                     29                     30
                      A                      A                      A
 Frequencies --    989.5023              1014.7827              1032.1657
 Red. masses --      2.2430                 1.9401                 1.3363
 Frc consts  --      1.2939                 1.1771                 0.8388
 IR Inten    --      6.6876                 3.8305                 1.4014

                     31                     32                     33
                      A                      A                      A
 Frequencies --   1037.7321              1079.6730              1085.6355
 Red. masses --      2.9647                 1.4806                 1.7104
 Frc consts  --      1.8811                 1.0169                 1.1877
 IR Inten    --      6.9311                 2.4764                 4.2979

                     34                     35                     36
                      A                      A                      A
 Frequencies --   1126.9595              1161.1588              1187.7988
 Red. masses --      2.6755                 4.3227                 1.4061
 Frc consts  --      2.0020                 3.4339                 1.1688
 IR Inten    --      0.3692                34.7751                14.4645

                     37                     38                     39
                      A                      A                      A
 Frequencies --   1196.7413              1241.8186              1253.9983
 Red. masses --      1.7403                 3.2497                 2.3869
 Frc consts  --      1.4685                 2.9527                 2.2115
 IR Inten    --     20.8049                10.5529                 4.7959

                     40                     41                     42
                      A                      A                      A
 Frequencies --   1282.6744              1330.1440              1350.0984
 Red. masses --      2.0505                 4.9280                 1.5926
 Frc consts  --      1.9877                 5.1371                 1.7104
 IR Inten    --      3.2899                37.2327                16.1111

                     43                     44                     45
                      A                      A                      A
 Frequencies --   1365.9047              1377.1791              1399.9902
 Red. masses --      1.3588                 3.5724                 1.3481
 Frc consts  --      1.4936                 3.9920                 1.5568
 IR Inten    --      1.5126                25.2322                16.0501

                     46                     47                     48
                      A                      A                      A
 Frequencies --   1429.1145              1443.5416              1449.7754
 Red. masses --      1.2600                 1.3392                 1.2405
 Frc consts  --      1.5162                 1.6442                 1.5362
 IR Inten    --     10.1756                 3.6374                 4.3882

                     49                     50                     51
                      A                      A                      A
 Frequencies --   1458.3784              1501.8964              1504.0511
 Red. masses --      4.1095                 1.0770                 1.1510
 Frc consts  --      5.1496                 1.4313                 1.5340
 IR Inten    --     79.4258                 1.0889                 8.7354

                     52                     53                     54
                      A                      A                      A
 Frequencies --   1506.6014              1510.5313              1515.4149
 Red. masses --      1.0446                 1.0747                 1.0906
 Frc consts  --      1.3969                 1.4448                 1.4757
 IR Inten    --      4.1041                 0.6239                 2.2953

                     55                     56                     57
                      A                      A                      A
 Frequencies --   1522.5019              1524.0545              1529.2242
 Red. masses --      1.0928                 1.1216                 1.0664
 Frc consts  --      1.4924                 1.5350                 1.4693
 IR Inten    --      2.5015                 4.6545                 7.8559

                     58                     59                     60
                      A                      A                      A
 Frequencies --   1538.5346              1564.8487              1617.7454
 Red. masses --      1.0607                 7.7893                 5.0892
 Frc consts  --      1.4793                11.2381                 7.8473
 IR Inten    --      3.5523                15.0225                17.0041

                     61                     62                     63
                      A                      A                      A
 Frequencies --   3027.6746              3045.8553              3047.2708
 Red. masses --      1.0715                 1.0365                 1.0589
 Frc consts  --      5.7870                 5.6653                 5.7932
 IR Inten    --     35.9618                49.2947                26.1068

                     64                     65                     66
                      A                      A                      A
 Frequencies --   3053.6189              3059.8802              3098.2758
 Red. masses --      1.0350                 1.0379                 1.1043
 Frc consts  --      5.6863                 5.7258                 6.2457
 IR Inten    --     17.3636                19.8251                22.3315

                     67                     68                     69
                      A                      A                      A
 Frequencies --   3099.0740              3114.8729              3123.2309
 Red. masses --      1.1012                 1.0928                 1.1025
 Frc consts  --      6.2314                 6.2471                 6.3366
 IR Inten    --     22.5067                15.0205                 8.9449

                     70                     71                     72
                      A                      A                      A
 Frequencies --   3123.7920              3125.4280              3133.7857
 Red. masses --      1.1018                 1.1022                 1.1022
 Frc consts  --      6.3345                 6.3437                 6.3772
 IR Inten    --     25.4016                29.2839                35.5859

                     73                     74                     75
                      A                      A                      A
 Frequencies --   3136.1110              3285.7445              3491.2215
 Red. masses --      1.1034                 1.0970                 1.0737
 Frc consts  --      6.3937                 6.9781                 7.7107
 IR Inten    --     23.4506                 1.9546                 0.8649

 - Thermochemistry -
 -------------------
 Temperature   298.150 Kelvin.  Pressure   1.00000 Atm.
 Atom     1 has atomic number  6 and mass  12.00000

 Molecular mass:   165.12660 amu.
 Principal axes and moments of inertia in atomic units:
                           1         2         3
     Eigenvalues --  1155.576542298.108083009.07744
           X            0.99999   0.00533   0.00046
           Y           -0.00533   0.99999   0.00041
           Z           -0.00045  -0.00042   1.00000
 This molecule is an asymmetric top.
 Rotational symmetry number  1.
 Warning -- assumption of classical behavior for rotation
           may cause significant error
 Rotational temperatures (Kelvin)      0.07495     0.03769     0.02878
 Rotational constants (GHZ):           1.56177     0.78532     0.59977
 Zero-point vibrational energy     624862.0 (Joules/Mol)
                                  149.34561 (Kcal/Mol)
 Warning -- explicit consideration of  17 degrees of freedom as
           vibrations may cause significant error
 Vibrational temperatures:    110.36   133.49   162.12   278.84   303.11
          (Kelvin)            337.22   383.89   402.89   408.98   458.99
                              490.12   555.25   644.33   663.84   688.69
                              813.63   832.46   944.67   966.98  1021.68
                             1041.54  1090.47  1189.24  1252.74  1324.74
                             1365.75  1374.42  1423.67  1460.05  1485.06
                             1493.07  1553.41  1561.99  1621.44  1670.65
                             1708.98  1721.84  1786.70  1804.22  1845.48
                             1913.78  1942.49  1965.23  1981.45  2014.27
                             2056.18  2076.93  2085.90  2098.28  2160.89
                             2163.99  2167.66  2173.32  2180.34  2190.54
                             2192.77  2200.21  2213.61  2251.47  2327.57
                             4356.15  4382.31  4384.34  4393.48  4402.49
                             4457.73  4458.88  4481.61  4493.63  4494.44
                             4496.79  4508.82  4512.16  4727.45  5023.09

 Zero-point correction=                           0.237997 (Hartree/Particle)
 Thermal correction to Energy=                    0.249499
 Thermal correction to Enthalpy=                  0.250443
 Thermal correction to Gibbs Free Energy=         0.201368
 Sum of electronic and zero-point Energies=           -516.059569
 Sum of electronic and thermal Energies=              -516.048068
 Sum of electronic and thermal Enthalpies=            -516.047124
 Sum of electronic and thermal Free Energies=         -516.096199

                     E (Thermal)             CV                S
                      KCal/Mol        Cal/Mol-Kelvin    Cal/Mol-Kelvin
 Total                  156.563             45.090            103.287
 Electronic               0.000              0.000              0.000
 Translational            0.889              2.981             41.213
 Rotational               0.889              2.981             30.459
 Vibrational            154.785             39.128             31.615
 Vibration     1          0.599              1.965              3.974
 Vibration     2          0.602              1.954              3.601
 Vibration     3          0.607              1.939              3.222
 Vibration     4          0.635              1.848              2.191
 Vibration     5          0.643              1.825              2.038
 Vibration     6          0.654              1.788              1.845
 Vibration     7          0.672              1.734              1.617
 Vibration     8          0.680              1.711              1.534
 Vibration     9          0.683              1.703              1.508
 Vibration    10          0.705              1.637              1.315
 Vibration    11          0.720              1.594              1.209
 Vibration    12          0.755              1.500              1.016
 Vibration    13          0.807              1.366              0.802
 Vibration    14          0.819              1.336              0.762
 Vibration    15          0.835              1.297              0.714
 Vibration    16          0.921              1.106              0.513
 Vibration    17          0.935              1.078              0.488

                           ! Non-Optimized Parameters !

 1\1\GINC-NODE309\Freq\RB3LYP\6-31G(d)\C9H15N3\VSC10255\09-Dec-2020\0\\
 #N Geom=AllCheck Guess=TCheck SCRF=Check GenChk RB3LYP/6-31G(d) Freq\\
 CID_130941076_JID_2505_neutraal\\0,1\C,0.900869217,-0.0358223646,0.052
 6189287\C,0.3709233066,1.3622502265,0.0649319292\C,-0.932526905,1.7851
 32652,-0.0333702391\N,-0.8912700457,3.1717248934,0.0153110521\C,0.4293
 665556,3.514473078,0.1614286396\N,1.2125037843,2.4537840284,0.18620658
 83\C,0.8415992517,4.9560016217,0.2360391945\N,-0.2630662465,5.84695853
 28,0.6093312629\C,-1.4634461681,5.530722543,-0.154267924\C,-2.03301381

 Normal termination of Gaussian 16 at Wed Dec  9 17:40:59 2020.

 ----------------------------------------------------------------------
 # B3LYP/6-311++G(d,p) empiricaldispersion=gd3bj scf=xqc pop=npa geom=c
 heck
 ----------------------------------------------------------------------

 ---------------------------------------
 CID_130941076_JID_2505_Energie_neutraal
 ---------------------------------------
 Structure from the checkpoint file:  "JID_2505.chk"
 Charge =  0 Multiplicity = 1

 SCF Done:  E(RB3LYP) =  -516.438533147     A.U. after   14 cycles
 Normal termination of Gaussian 16 at Wed Dec  9 17:44:16 2020.

 ----------------------------------------------------------------------
 # B3LYP/6-311++G(d,p) empiricaldispersion=gd3bj scf=xqc pop=npa geom=c
 heck
 ----------------------------------------------------------------------

 -------------------------------------
 CID_130941076_JID_2505_Energie_kation
 -------------------------------------
 Structure from the checkpoint file:  "JID_2505.chk"
 Charge =  1 Multiplicity = 2

 SCF Done:  E(UB3LYP) =  -516.151736516     A.U. after   23 cycles
 Normal termination of Gaussian 16 at Wed Dec  9 17:49:46 2020.
 Gaussian 16:  ES64L-G16RevA.03 25-Dec-2016

 ------------------------------------
 CID_130941076_JID_2505_Energie_anion
 ------------------------------------
 Structure from the checkpoint file:  "JID_2505.chk"
 Charge = -1 Multiplicity = 2

                         Standard orientation:
 ---------------------------------------------------------------------
 Center     Atomic      Atomic             Coordinates (Angstroms)
 Number     Number       Type             X           Y           Z
 ---------------------------------------------------------------------
      1          6           0        3.762464   -0.417409    0.070437
      2          6           0        2.293927   -0.142958    0.009797
      3          6           0        1.254648   -1.041315   -0.008395
      4          7           0        0.093630   -0.284191   -0.082625
      5          6           0        0.488345    1.030003   -0.084150
      6          7           0        1.800866    1.148943   -0.038086
      7          6           0       -0.526167    2.133116   -0.170265
      8          7           0       -1.872925    1.701855    0.221773
      9          6           0       -2.210751    0.428955   -0.402408
     10          6           0       -1.298025   -0.765934   -0.019751
     11          6           0       -1.596442   -1.245613    1.409618
     12          6           0       -1.504943   -1.904629   -1.024214
     13          1           0        3.961134   -1.492903    0.120150
     14          1           0        4.214877    0.055909    0.949924
     15          1           0        4.276202   -0.014997   -0.810805
     16          1           0        1.235342   -2.119677    0.023277
     17          1           0       -0.580592    2.511955   -1.201116
     18          1           0       -0.211497    2.973569    0.454708
     19          1           0       -1.916822    1.609620    1.235283
     20          1           0       -3.245091    0.166576   -0.153947
     21          1           0       -2.163192    0.575565   -1.489187
     22          1           0       -2.618593   -1.633650    1.479447
     23          1           0       -0.904598   -2.040596    1.703822
     24          1           0       -1.484215   -0.426950    2.128495
     25          1           0       -1.207177   -1.590772   -2.029442
     26          1           0       -0.923528   -2.791864   -0.754366
     27          1           0       -2.561578   -2.193325   -1.047693
 ---------------------------------------------------------------------

 SCF Done:  E(UB3LYP) =  -516.425624737     A.U. after   31 cycles

 The electronic state is 2-A.
 Alpha  occ. eigenvalues --  -14.25787 -14.20756 -14.18321 -10.12598 -10.11918
 Alpha  occ. eigenvalues --  -10.10724 -10.09812 -10.08523 -10.08430 -10.06911
 Alpha  occ. eigenvalues --  -10.06197 -10.05842  -0.91392  -0.82202  -0.78282
 Alpha  occ. eigenvalues --   -0.69235  -0.66861  -0.61832  -0.59477  -0.59273
 Alpha  occ. eigenvalues --   -0.53946  -0.50992  -0.47071  -0.44318  -0.41574
 Alpha  occ. eigenvalues --   -0.38187  -0.36150  -0.35380  -0.35069  -0.33921
 Alpha  occ. eigenvalues --   -0.32285  -0.31702  -0.30303  -0.29600  -0.28562
 Alpha  occ. eigenvalues --   -0.28443  -0.27831  -0.26824  -0.26457  -0.25355
 Alpha  occ. eigenvalues --   -0.24373  -0.17177  -0.16197  -0.13794  -0.11521
 Alpha  occ. eigenvalues --    0.04567
 Alpha virt. eigenvalues --    0.07055   0.07630   0.08058   0.08961   0.09954
 Alpha virt. eigenvalues --    0.10145   0.10400   0.10601   0.11602   0.12033
 Alpha virt. eigenvalues --    0.12673   0.12699   0.13473   0.14247   0.14748

  Beta  occ. eigenvalues --  -14.25782 -14.20738 -14.18316 -10.12596 -10.11918
  Beta  occ. eigenvalues --  -10.10716 -10.09784 -10.08521 -10.08413 -10.06901
  Beta  occ. eigenvalues --  -10.06149 -10.05782  -0.91383  -0.82174  -0.78268
  Beta  occ. eigenvalues --   -0.69205  -0.66843  -0.61806  -0.59387  -0.59217
  Beta  occ. eigenvalues --   -0.53888  -0.50940  -0.47051  -0.44274  -0.41527
  Beta  occ. eigenvalues --   -0.38142  -0.36093  -0.35356  -0.35039  -0.33871
  Beta  occ. eigenvalues --   -0.32248  -0.31685  -0.30270  -0.29555  -0.28533
  Beta  occ. eigenvalues --   -0.28398  -0.27788  -0.26782  -0.26422  -0.25310
  Beta  occ. eigenvalues --   -0.24330  -0.17167  -0.16183  -0.13772  -0.11505
  Beta virt. eigenvalues --    0.06928   0.07622   0.08456   0.08684   0.09871
  Beta virt. eigenvalues --    0.10329   0.10583   0.10688   0.11042   0.11864
  Beta virt. eigenvalues --    0.12487   0.13063   0.13160   0.13964   0.14627

 Mulliken charges and spin densities:
               1          2
     1  C    0.233140  -0.560717
     2  C    1.082159  -0.643818
     3  C   -0.768935   0.373623
     4  N    0.517281  -0.151463
     5  C   -0.577769   0.417156
     6  N   -0.140674   0.064823
     7  C    0.739309  -1.480182
     8  N   -0.131369   0.113156
     9  C    0.217564  -0.761862
    10  C   -3.745880   3.502469
    11  C    2.741375  -3.193943
    12  C    1.662960  -2.049915
    13  H   -0.020690   0.155086
    14  H    0.047754   0.097621
    15  H    0.054867   0.088530
    16  H   -0.496728   0.638488
    17  H    0.086340   0.106505
    18  H    0.056192   0.132496
    19  H    0.003250   0.227587
    20  H   -0.250475   0.457977
    21  H   -0.100189   0.280107
    22  H   -0.466794   0.640872
    23  H   -0.441362   0.615207
    24  H   -0.259827   0.399606
    25  H   -0.029937   0.185777
    26  H   -0.455692   0.612203
    27  H   -0.555872   0.732612
 Sum of Mulliken charges =  -1.00000   1.00000

 Dipole moment (field-independent basis, Debye):
    X=              4.2614    Y=              4.2444    Z=             -1.6026  Tot=              6.2244
 Quadrupole moment (field-independent basis, Debye-Ang):
   XX=           -133.5334   YY=           -124.1534   ZZ=           -107.0068
   XY=             -9.6144   XZ=              2.6859   YZ=              1.6073

 Summary of Natural Population Analysis:

                                       Natural Population
                Natural  -----------------------------------------------
    Atom  No    Charge         Core      Valence    Rydberg      Total
 -----------------------------------------------------------------------
      C    1   -0.29354      0.99963     2.28893    0.00498     3.29354
      C    2    0.05060      0.99956     1.93688    0.01296     2.94940
      C    3   -0.03765      0.99947     2.02683    0.01135     3.03765
      N    4   -0.21447      0.99960     2.70272    0.01215     3.71447
      C    5    0.19180      0.99959     1.79284    0.01577     2.80820
      N    6   -0.27026      0.99967     2.76081    0.00978     3.77026
      C    7   -0.10430      0.99959     2.09435    0.01037     3.10430
      N    8   -0.33223      0.99976     2.82015    0.01231     3.83223
      C    9   -0.09041      0.99957     2.07684    0.01399     3.09041
      C   10    0.06074      0.99956     1.92503    0.01466     2.93926
      C   11   -0.28855      0.99961     2.28130    0.00764     3.28855
      C   12   -0.28845      0.99962     2.28124    0.00760     3.28845
      H   13    0.10133      0.00000     0.39781    0.00086     0.39867
      H   14    0.10156      0.00000     0.39693    0.00152     0.39844
      H   15    0.10060      0.00000     0.39791    0.00149     0.39940
      H   16    0.10671      0.00000     0.39189    0.00141     0.39329
      H   17    0.09697      0.00000     0.40158    0.00145     0.40303
      H   18    0.10545      0.00000     0.39319    0.00136     0.39455
      H   19    0.17401      0.00000     0.32299    0.00300     0.32599
      H   20    0.10520      0.00000     0.39315    0.00165     0.39480
      H   21    0.09430      0.00000     0.40428    0.00143     0.40570
      H   22    0.10705      0.00000     0.39031    0.00264     0.39295
      H   23    0.10672      0.00000     0.39120    0.00208     0.39328
      H   24    0.09997      0.00000     0.39812    0.00191     0.40003
      H   25    0.10299      0.00000     0.39571    0.00130     0.39701
      H   26    0.10537      0.00000     0.39274    0.00189     0.39463
      H   27    0.10851      0.00000     0.38938    0.00212     0.39149
 =======================================================================
   * Total *   -0.00000     11.99523    32.84511    0.15965    45.00000

 Normal termination of Gaussian 16 at Wed Dec  9 17:57:43 2020.
