 Gaussian 16, Revision A.03,

 ----------------------------------------------------------------------
 # opt=(cartesian,calcfc) freq B3LYP/6-31G(d) empiricaldispersion=gd3bj
  scf=xqc
 ----------------------------------------------------------------------

 ------------------------------
 CID_88529655_JID_1080_neutraal
 ------------------------------
 Symbolic Z-matrix:
 Charge =  0 Multiplicity = 1

 SCF Done:  E(RB3LYP) =  -503.067982075     A.U. after   14 cycles
 SCF Done:  E(RB3LYP) =  -503.068280497     A.U. after   12 cycles
 SCF Done:  E(RB3LYP) =  -503.068482195     A.U. after   11 cycles
 SCF Done:  E(RB3LYP) =  -503.067560691     A.U. after   14 cycles
 SCF Done:  E(RB3LYP) =  -503.068547314     A.U. after   12 cycles
 SCF Done:  E(RB3LYP) =  -503.068660519     A.U. after   11 cycles
 SCF Done:  E(RB3LYP) =  -503.068658183     A.U. after   12 cycles
 SCF Done:  E(RB3LYP) =  -503.068704988     A.U. after   12 cycles
 SCF Done:  E(RB3LYP) =  -503.068749924     A.U. after   11 cycles
 SCF Done:  E(RB3LYP) =  -503.068541508     A.U. after   13 cycles
 SCF Done:  E(RB3LYP) =  -503.069204130     A.U. after    7 cycles
 SCF Done:  E(RB3LYP) =  -503.069203630     A.U. after    9 cycles
 SCF Done:  E(RB3LYP) =  -503.069204162     A.U. after    7 cycles
 SCF Done:  E(RB3LYP) =  -503.069204165     A.U. after    7 cycles
 SCF Done:  E(RB3LYP) =  -503.069204162     A.U. after    7 cycles
 Optimization completed.
    -- Stationary point found.

 1\1\GINC-NODE369\FOpt\RB3LYP\6-31G(d)\C9H16O2\VSC10255\04-Jan-2021\0\\
 # opt=(cartesian,calcfc) freq B3LYP/6-31G(d) empiricaldispersion=gd3bj
  scf=xqc\\CID_88529655_JID_1080_neutraal\\0,1\C,-2.6596851387,-1.83767
 50159,0.1409791482\C,-2.0102005928,-0.7067374072,-0.6593133375\C,-1.68
 503954,0.5355366406,0.1942894889\C,-0.6802390928,0.3101150953,1.341362
 6815\C,0.5544182818,-0.5413561672,1.0085828967\C,1.5310325925,0.042758
 5018,-0.0188767451\C,2.3006318299,1.2753468193,0.4856261653\C,2.516164
 2765,-1.0060691527,-0.4984932985\O,2.500427033,-2.1790594172,-0.194712

 Normal termination of Gaussian 16 at Mon Jan  4 09:32:34 2021.

 --------------------------------------------------------------------
 #N Geom=AllCheck Guess=TCheck SCRF=Check GenChk RB3LYP/6-31G(d) Freq
 --------------------------------------------------------------------

 Structure from the checkpoint file:  "JID_1080.chk"
 ------------------------------
 CID_88529655_JID_1080_neutraal
 ------------------------------
 Charge =  0 Multiplicity = 1

 SCF Done:  E(RB3LYP) =  -503.069204162     A.U. after    1 cycles

  Exact polarizability: 103.476   5.712 101.547   0.550  -2.363  84.848
 Approx polarizability: 133.428   7.039 153.532   2.058  -4.068 125.327

                      1                      2                      3
                      A                      A                      A
 Frequencies --     42.9505                45.9959                77.3493
 Red. masses --      6.3797                 3.9868                 2.8342
 Frc consts  --      0.0069                 0.0050                 0.0100
 IR Inten    --      3.8059                 3.6310                 4.5713

                      4                      5                      6
                      A                      A                      A
 Frequencies --    114.9163               126.1432               140.1024
 Red. masses --      2.8261                 2.4271                 3.2341
 Frc consts  --      0.0220                 0.0228                 0.0374
 IR Inten    --      3.9678                 1.5306                 2.1308

                      7                      8                      9
                      A                      A                      A
 Frequencies --    172.9110               214.6649               232.4764
 Red. masses --      3.6896                 1.4939                 1.1743
 Frc consts  --      0.0650                 0.0406                 0.0374
 IR Inten    --      4.0238                 1.5493                 0.2259

                     10                     11                     12
                      A                      A                      A
 Frequencies --    246.5704               255.2106               299.2213
 Red. masses --      2.5148                 2.1204                 2.1405
 Frc consts  --      0.0901                 0.0814                 0.1129
 IR Inten    --      3.4789                 6.2327                 1.7154

                     13                     14                     15
                      A                      A                      A
 Frequencies --    339.3333               391.8439               398.9057
 Red. masses --      2.3172                 2.3447                 3.1339
 Frc consts  --      0.1572                 0.2121                 0.2938
 IR Inten    --      3.1782                 0.3818                 1.1822

                     16                     17                     18
                      A                      A                      A
 Frequencies --    419.7446               532.8537               632.6104
 Red. masses --      1.9732                 2.7789                 2.6570
 Frc consts  --      0.2048                 0.4649                 0.6265
 IR Inten    --      2.0720                 7.0515                 6.9804

                     19                     20                     21
                      A                      A                      A
 Frequencies --    670.6215               746.6349               763.9231
 Red. masses --      3.7097                 2.7064                 2.5792
 Frc consts  --      0.9830                 0.8889                 0.8868
 IR Inten    --      7.9010                 5.0473                 8.3959

                     22                     23                     24
                      A                      A                      A
 Frequencies --    801.9649               888.7844               900.6561
 Red. masses --      1.2186                 1.7038                 1.8377
 Frc consts  --      0.4618                 0.7930                 0.8783
 IR Inten    --      6.1337                10.7411                 2.4687

                     25                     26                     27
                      A                      A                      A
 Frequencies --    928.5810               948.2203               951.9051
 Red. masses --      1.2863                 1.6152                 1.7543
 Frc consts  --      0.6535                 0.8557                 0.9366
 IR Inten    --     13.7501                 8.8895                22.3430

                     28                     29                     30
                      A                      A                      A
 Frequencies --    997.8181              1008.3972              1052.5312
 Red. masses --      1.7823                 2.2909                 1.8695
 Frc consts  --      1.0455                 1.3725                 1.2203
 IR Inten    --     17.4507                 0.5562                 1.9107

                     31                     32                     33
                      A                      A                      A
 Frequencies --   1074.6688              1083.8386              1120.2690
 Red. masses --      1.7102                 1.7163                 2.1456
 Frc consts  --      1.1637                 1.1879                 1.5865
 IR Inten    --      0.3073                 1.5086                 1.7215

                     34                     35                     36
                      A                      A                      A
 Frequencies --   1163.6365              1180.5311              1189.0213
 Red. masses --      2.0604                 2.1523                 1.8458
 Frc consts  --      1.6438                 1.7673                 1.5375
 IR Inten    --      0.8279                 4.5767                 0.8107

                     37                     38                     39
                      A                      A                      A
 Frequencies --   1255.1207              1272.1788              1293.9571
 Red. masses --      1.1674                 1.5462                 1.3606
 Frc consts  --      1.0835                 1.4744                 1.3422
 IR Inten    --      5.1200                 2.2551                 1.1201

                     40                     41                     42
                      A                      A                      A
 Frequencies --   1321.7092              1323.5867              1350.4886
 Red. masses --      1.4596                 1.2973                 1.3290
 Frc consts  --      1.5023                 1.3390                 1.4281
 IR Inten    --      0.6273                 2.1541                 2.8613

                     43                     44                     45
                      A                      A                      A
 Frequencies --   1367.0231              1396.9117              1410.1308
 Red. masses --      1.3339                 1.4142                 1.4384
 Frc consts  --      1.4686                 1.6259                 1.6852
 IR Inten    --      1.5818                 8.4395                 8.0283

                     46                     47                     48
                      A                      A                      A
 Frequencies --   1421.7608              1430.4059              1443.1536
 Red. masses --      1.4837                 1.2282                 1.2244
 Frc consts  --      1.7671                 1.4806                 1.5024
 IR Inten    --      2.7687                 9.5716                 6.1224

                     49                     50                     51
                      A                      A                      A
 Frequencies --   1447.8936              1449.5133              1507.6554
 Red. masses --      1.2468                 1.2230                 1.0705
 Frc consts  --      1.5400                 1.5139                 1.4337
 IR Inten    --      2.2402                 1.4065                 2.1306

                     52                     53                     54
                      A                      A                      A
 Frequencies --   1518.0620              1524.6886              1529.2761
 Red. masses --      1.0815                 1.0571                 1.0486
 Frc consts  --      1.4685                 1.4478                 1.4449
 IR Inten    --     11.1126                 2.4638                 9.0725

                     55                     56                     57
                      A                      A                      A
 Frequencies --   1534.1890              1540.6208              1544.9257
 Red. masses --      1.0576                 1.0757                 1.0471
 Frc consts  --      1.4667                 1.5044                 1.4725
 IR Inten    --      2.2478                 5.9019                 6.0381

                     58                     59                     60
                      A                      A                      A
 Frequencies --   1822.9435              1828.1995              2884.7616
 Red. masses --     10.4045                10.4231                 1.0832
 Frc consts  --     20.3713                20.5255                 5.3113
 IR Inten    --    109.3677               188.5023               140.5033

                     61                     62                     63
                      A                      A                      A
 Frequencies --   2887.4061              2959.0447              3004.5083
 Red. masses --      1.0831                 1.0802                 1.0797
 Frc consts  --      5.3205                 5.5727                 5.7427
 IR Inten    --    132.5867                21.7157                12.5508

                     64                     65                     66
                      A                      A                      A
 Frequencies --   3038.2174              3049.8510              3050.7615
 Red. masses --      1.0634                 1.0445                 1.0390
 Frc consts  --      5.7835                 5.7243                 5.6973
 IR Inten    --     32.5806                24.8195                11.4891

                     67                     68                     69
                      A                      A                      A
 Frequencies --   3053.0554              3066.1564              3075.8687
 Red. masses --      1.0617                 1.0636                 1.0976
 Frc consts  --      5.8306                 5.8915                 6.1185
 IR Inten    --     26.8002                37.5401                26.9797

                     70                     71                     72
                      A                      A                      A
 Frequencies --   3095.7839              3109.7043              3110.7051
 Red. masses --      1.0990                 1.1000                 1.0986
 Frc consts  --      6.2056                 6.2672                 6.2631
 IR Inten    --      3.6623                34.4666                36.2779

                     73                     74                     75
                      A                      A                      A
 Frequencies --   3117.2281              3129.3221              3164.1660
 Red. masses --      1.1008                 1.1021                 1.0982
 Frc consts  --      6.3024                 6.3585                 6.4781
 IR Inten    --     39.7607                31.6376                 3.9672

 - Thermochemistry -
 -------------------
 Temperature   298.150 Kelvin.  Pressure   1.00000 Atm.
 Atom     1 has atomic number  6 and mass  12.00000

 Molecular mass:   156.11503 amu.
 Principal axes and moments of inertia in atomic units:
                           1         2         3
     Eigenvalues --  1444.823482283.347983163.75528
           X            0.99359   0.11296   0.00495
           Y           -0.11297   0.99360   0.00171
           Z           -0.00472  -0.00226   0.99999
 This molecule is an asymmetric top.
 Rotational symmetry number  1.
 Warning -- assumption of classical behavior for rotation
           may cause significant error
 Rotational temperatures (Kelvin)      0.05995     0.03793     0.02738
 Rotational constants (GHZ):           1.24911     0.79039     0.57044
 Zero-point vibrational energy     624969.5 (Joules/Mol)
                                  149.37130 (Kcal/Mol)
 Warning -- explicit consideration of  17 degrees of freedom as
           vibrations may cause significant error
 Vibrational temperatures:     61.80    66.18   111.29   165.34   181.49
          (Kelvin)            201.58   248.78   308.85   334.48   354.76
                              367.19   430.51   488.22   563.78   573.94
                              603.92   766.66   910.19   964.87  1074.24
                             1099.11  1153.85  1278.76  1295.84  1336.02
                             1364.28  1369.58  1435.64  1450.86  1514.36
                             1546.21  1559.40  1611.82  1674.21  1698.52
                             1710.74  1805.84  1830.38  1861.72  1901.64
                             1904.35  1943.05  1966.84  2009.84  2028.86
                             2045.60  2058.04  2076.38  2083.20  2085.53
                             2169.18  2184.15  2193.69  2200.29  2207.36
                             2216.61  2222.80  2622.81  2630.37  4150.53
                             4154.33  4257.41  4322.82  4371.32  4388.06
                             4389.37  4392.67  4411.52  4425.49  4454.14
                             4474.17  4475.61  4485.00  4502.40  4552.53

 Zero-point correction=                           0.238038 (Hartree/Particle)
 Thermal correction to Energy=                    0.251102
 Thermal correction to Enthalpy=                  0.252047
 Thermal correction to Gibbs Free Energy=         0.198049
 Sum of electronic and zero-point Energies=           -502.831166
 Sum of electronic and thermal Energies=              -502.818102
 Sum of electronic and thermal Enthalpies=            -502.817158
 Sum of electronic and thermal Free Energies=         -502.871155

                     E (Thermal)             CV                S
                      KCal/Mol        Cal/Mol-Kelvin    Cal/Mol-Kelvin
 Total                  157.569             46.597            113.647
 Electronic               0.000              0.000              0.000
 Translational            0.889              2.981             41.046
 Rotational               0.889              2.981             30.724
 Vibrational            155.792             40.635             41.877
 Vibration     1          0.595              1.980              5.118
 Vibration     2          0.595              1.979              4.983
 Vibration     3          0.599              1.964              3.957
 Vibration     4          0.608              1.937              3.184
 Vibration     5          0.611              1.927              3.004
 Vibration     6          0.615              1.913              2.802
 Vibration     7          0.626              1.876              2.404
 Vibration     8          0.645              1.819              2.004
 Vibration     9          0.653              1.791              1.860
 Vibration    10          0.661              1.768              1.755
 Vibration    11          0.666              1.754              1.694
 Vibration    12          0.692              1.675              1.421
 Vibration    13          0.719              1.597              1.215
 Vibration    14          0.759              1.488              0.993
 Vibration    15          0.765              1.472              0.967
 Vibration    16          0.782              1.427              0.893
 Vibration    17          0.888              1.177              0.581

 1\1\GINC-NODE369\Freq\RB3LYP\6-31G(d)\C9H16O2\VSC10255\04-Jan-2021\0\\
 #N Geom=AllCheck Guess=TCheck SCRF=Check GenChk RB3LYP/6-31G(d) Freq\\
 CID_88529655_JID_1080_neutraal\\0,1\C,-2.6596851387,-1.8376750159,0.14
 09791482\C,-2.0102005928,-0.7067374072,-0.6593133375\C,-1.68503954,0.5
 355366406,0.1942894889\C,-0.6802390928,0.3101150953,1.3413626815\C,0.5
 544182818,-0.5413561672,1.0085828967\C,1.5310325925,0.0427585018,-0.01
 88767451\C,2.3006318299,1.2753468193,0.4856261653\C,2.5161642765,-1.00
 60691527,-0.4984932985\O,2.500427033,-2.1790594172,-0.1947128004\C,-1.

 Normal termination of Gaussian 16 at Mon Jan  4 09:38:34 2021.

 ----------------------------------------------------------------------
 # B3LYP/6-311++G(d,p) empiricaldispersion=gd3bj scf=xqc pop=npa geom=c
 heck
 ----------------------------------------------------------------------

 --------------------------------------
 CID_88529655_JID_1080_Energie_neutraal
 --------------------------------------
 Structure from the checkpoint file:  "JID_1080.chk"
 Charge =  0 Multiplicity = 1

 SCF Done:  E(RB3LYP) =  -503.218403587     A.U. after   13 cycles
 Normal termination of Gaussian 16 at Mon Jan  4 09:40:41 2021.

 ----------------------------------------------------------------------
 # B3LYP/6-311++G(d,p) empiricaldispersion=gd3bj scf=xqc pop=npa geom=c
 heck
 ----------------------------------------------------------------------

 ------------------------------------
 CID_88529655_JID_1080_Energie_kation
 ------------------------------------
 Structure from the checkpoint file:  "JID_1080.chk"
 Charge =  1 Multiplicity = 2

 SCF Done:  E(UB3LYP) =  -502.884269149     A.U. after   20 cycles
 Normal termination of Gaussian 16 at Mon Jan  4 09:44:57 2021.
 Gaussian 16:  ES64L-G16RevA.03 25-Dec-2016

 -----------------------------------
 CID_88529655_JID_1080_Energie_anion
 -----------------------------------
 Structure from the checkpoint file:  "JID_1080.chk"
 Charge = -1 Multiplicity = 2

                         Standard orientation:
 ---------------------------------------------------------------------
 Center     Atomic      Atomic             Coordinates (Angstroms)
 Number     Number       Type             X           Y           Z
 ---------------------------------------------------------------------
      1          6           0       -2.473706   -2.106848    0.063724
      2          6           0       -1.966076   -0.887910   -0.709463
      3          6           0       -1.747556    0.351561    0.181364
      4          6           0       -0.694159    0.192722    1.295519
      5          6           0        0.612143   -0.514030    0.902833
      6          6           0        1.495197    0.203100   -0.125067
      7          6           0        2.147162    1.491026    0.406223
      8          6           0        2.569736   -0.720733   -0.665856
      9          8           0        2.683121   -1.898693   -0.405104
     10          6           0       -1.550074    1.590679   -0.671397
     11          8           0       -0.807351    2.516357   -0.423114
     12          1           0       -1.750363   -2.438564    0.815383
     13          1           0       -2.658505   -2.948230   -0.612228
     14          1           0       -3.412981   -1.878452    0.581913
     15          1           0       -1.033641   -1.141274   -1.228731
     16          1           0       -2.690787   -0.631637   -1.494192
     17          1           0       -2.718639    0.550652    0.672396
     18          1           0       -0.480995    1.186101    1.703862
     19          1           0       -1.147535   -0.384142    2.109667
     20          1           0        1.206959   -0.662373    1.813178
     21          1           0        0.399262   -1.522286    0.533890
     22          1           0        0.900352    0.485661   -1.009165
     23          1           0        2.721172    1.285795    1.317582
     24          1           0        2.829835    1.923567   -0.334713
     25          1           0        1.381388    2.236421    0.627626
     26          1           0        3.289369   -0.225922   -1.359349
     27          1           0       -2.197061    1.625960   -1.578652
 ---------------------------------------------------------------------

 SCF Done:  E(UB3LYP) =  -503.209545511     A.U. after   33 cycles
 SCF Done:  E(UB3LYP) =  -503.209545511     a.u. after    1 cycles

 The electronic state is 2-A.
 Alpha  occ. eigenvalues --  -18.99314 -18.98085 -10.12426 -10.11330 -10.06432
 Alpha  occ. eigenvalues --  -10.05962 -10.05609 -10.05082 -10.04889 -10.04793
 Alpha  occ. eigenvalues --  -10.04678  -0.92452  -0.91434  -0.70869  -0.68066
 Alpha  occ. eigenvalues --   -0.62378  -0.58595  -0.54320  -0.50610  -0.48147
 Alpha  occ. eigenvalues --   -0.43514  -0.41205  -0.37391  -0.36544  -0.35423
 Alpha  occ. eigenvalues --   -0.33148  -0.32905  -0.31381  -0.30462  -0.29295
 Alpha  occ. eigenvalues --   -0.28453  -0.27339  -0.26541  -0.25982  -0.24787
 Alpha  occ. eigenvalues --   -0.24396  -0.23912  -0.22928  -0.21148  -0.20273
 Alpha  occ. eigenvalues --   -0.20187  -0.13418  -0.12553   0.05131
 Alpha virt. eigenvalues --    0.07312   0.07948   0.08583   0.08788   0.09424
 Alpha virt. eigenvalues --    0.10232   0.10795   0.11628   0.11823   0.12627
 Alpha virt. eigenvalues --    0.13377   0.13475   0.14127   0.14198   0.15800

  Beta  occ. eigenvalues --  -18.99133 -18.97828 -10.12235 -10.11104 -10.06449
  Beta  occ. eigenvalues --  -10.05984 -10.05571 -10.05063 -10.04883 -10.04767
  Beta  occ. eigenvalues --  -10.04638  -0.92098  -0.90952  -0.70799  -0.67973
  Beta  occ. eigenvalues --   -0.62308  -0.58440  -0.54157  -0.50389  -0.47790
  Beta  occ. eigenvalues --   -0.43254  -0.41020  -0.37225  -0.36452  -0.35282
  Beta  occ. eigenvalues --   -0.32966  -0.32759  -0.31130  -0.30151  -0.29213
  Beta  occ. eigenvalues --   -0.28178  -0.27132  -0.26201  -0.25526  -0.24578
  Beta  occ. eigenvalues --   -0.23851  -0.23797  -0.22628  -0.21080  -0.20167
  Beta  occ. eigenvalues --   -0.19940  -0.13273  -0.12333
  Beta virt. eigenvalues --    0.07853   0.08340   0.08952   0.09589   0.09832
  Beta virt. eigenvalues --    0.10082   0.10629   0.11016   0.11805   0.12171
  Beta virt. eigenvalues --    0.12910   0.13492   0.13764   0.14213   0.14369

 Mulliken charges and spin densities:
               1          2
     1  C    0.871664  -1.490152
     2  C   -0.751639   0.425699
     3  C    0.047854   0.631974
     4  C    1.304167  -1.890495
     5  C   -0.475652   0.115278
     6  C    0.240863   0.287505
     7  C   -0.344473  -0.391021
     8  C   -0.324226   0.191572
     9  O   -0.297385   0.057301
    10  C   -0.175946  -0.111989
    11  O   -0.281511   0.061614
    12  H   -0.028732   0.155838
    13  H   -0.242725   0.367028
    14  H   -0.290544   0.434527
    15  H    0.024204   0.134607
    16  H   -0.271771   0.415487
    17  H   -0.498116   0.718659
    18  H    0.068681   0.087814
    19  H   -0.181766   0.351418
    20  H    0.167614  -0.008931
    21  H    0.167439   0.014328
    22  H    0.136365   0.046903
    23  H    0.062324   0.059060
    24  H    0.055249   0.054928
    25  H    0.103151   0.095300
    26  H    0.033508   0.008966
    27  H   -0.118598   0.176781
 Sum of Mulliken charges =  -1.00000   1.00000

 Dipole moment (field-independent basis, Debye):
    X=              3.6610    Y=              1.1737    Z=             -0.6600  Tot=              3.9008
 Quadrupole moment (field-independent basis, Debye-Ang):
   XX=           -121.3843   YY=           -109.7497   ZZ=            -91.3115
   XY=              2.8534   XZ=              2.7189   YZ=             -0.9049

 Summary of Natural Population Analysis:

                                       Natural Population
                Natural  -----------------------------------------------
    Atom  No    Charge         Core      Valence    Rydberg      Total
 -----------------------------------------------------------------------
      C    1   -0.28332      0.99966     2.27847    0.00519     3.28332
      C    2   -0.18860      0.99962     2.17919    0.00979     3.18860
      C    3   -0.16402      0.99957     2.15216    0.01229     3.16402
      C    4   -0.19132      0.99961     2.18046    0.01125     3.19132
      C    5   -0.19324      0.99961     2.18266    0.01096     3.19324
      C    6   -0.16576      0.99958     2.15808    0.00810     3.16576
      C    7   -0.28444      0.99964     2.27996    0.00484     3.28444
      C    8    0.25571      0.99971     1.72396    0.02061     2.74429
      O    9   -0.27025      0.99988     3.26374    0.00663     4.27025
      C   10    0.25837      0.99969     1.72245    0.01949     2.74163
      O   11   -0.26934      0.99988     3.26236    0.00710     4.26934
      H   12    0.09645      0.00000     0.40246    0.00108     0.40355
      H   13    0.09633      0.00000     0.40287    0.00080     0.40367
      H   14    0.09870      0.00000     0.39974    0.00156     0.40130
      H   15    0.09597      0.00000     0.40275    0.00127     0.40403
      H   16    0.09695      0.00000     0.40151    0.00154     0.40305
      H   17    0.11517      0.00000     0.38084    0.00399     0.38483
      H   18    0.10524      0.00000     0.39354    0.00122     0.39476
      H   19    0.09946      0.00000     0.39955    0.00099     0.40054
      H   20    0.09768      0.00000     0.40138    0.00094     0.40232
      H   21    0.10592      0.00000     0.39269    0.00139     0.39408
      H   22    0.11177      0.00000     0.38612    0.00211     0.38823
      H   23    0.09212      0.00000     0.40682    0.00106     0.40788
      H   24    0.09449      0.00000     0.40445    0.00106     0.40551
      H   25    0.11751      0.00000     0.38141    0.00109     0.38249
      H   26    0.03464      0.00000     0.46253    0.00283     0.46536
      H   27    0.03783      0.00000     0.45949    0.00269     0.46217
 =======================================================================
   * Total *   -0.00000     10.99646    31.86167    0.14187    43.00000

 Normal termination of Gaussian 16 at Mon Jan  4 09:51:57 2021.
