 Gaussian 16, Revision A.03,

 -----------------------------------------------------------
 # opt freq B3LYP/6-31G(d) empiricaldispersion=gd3bj scf=xqc
 -----------------------------------------------------------

 -------------------------------
 CID_124085461_JID_3845_neutraal
 -------------------------------
 Symbolic Z-matrix:
 Charge =  0 Multiplicity = 1

 SCF Done:  E(RB3LYP) =  -595.330174634     A.U. after   14 cycles
 SCF Done:  E(RB3LYP) =  -595.333465160     A.U. after   12 cycles
 SCF Done:  E(RB3LYP) =  -595.333677489     A.U. after   12 cycles
 SCF Done:  E(RB3LYP) =  -595.333999275     A.U. after   11 cycles
 SCF Done:  E(RB3LYP) =  -595.334106497     A.U. after   10 cycles
 SCF Done:  E(RB3LYP) =  -595.334155259     A.U. after   11 cycles
 SCF Done:  E(RB3LYP) =  -595.334191213     A.U. after   11 cycles
 SCF Done:  E(RB3LYP) =  -595.334214196     A.U. after   10 cycles
 SCF Done:  E(RB3LYP) =  -595.334229358     A.U. after   10 cycles
 SCF Done:  E(RB3LYP) =  -595.334230731     A.U. after    8 cycles
 SCF Done:  E(RB3LYP) =  -595.334643478     A.U. after   11 cycles
 SCF Done:  E(RB3LYP) =  -595.334644229     A.U. after    8 cycles
 SCF Done:  E(RB3LYP) =  -595.334643993     A.U. after    8 cycles
 SCF Done:  E(RB3LYP) =  -595.334644489     A.U. after    8 cycles
 SCF Done:  E(RB3LYP) =  -595.334644525     A.U. after    7 cycles
 Optimization completed.
    -- Stationary point found.
 Normal termination of Gaussian 16 at Sun Dec 13 16:12:43 2020.

 --------------------------------------------------------------------
 #N Geom=AllCheck Guess=TCheck SCRF=Check GenChk RB3LYP/6-31G(d) Freq
 --------------------------------------------------------------------

 Structure from the checkpoint file:  "JID_3845.chk"
 -------------------------------
 CID_124085461_JID_3845_neutraal
 -------------------------------
 Charge =  0 Multiplicity = 1

 SCF Done:  E(RB3LYP) =  -595.334644525     A.U. after    1 cycles

  Exact polarizability: 158.108  -2.081 113.640  10.523   0.765  78.371
 Approx polarizability: 206.446   1.990 192.554  19.164   3.781 114.065

                      1                      2                      3
                      A                      A                      A
 Frequencies --     28.4662                45.4794                61.6543
 Red. masses --      3.8649                 3.5769                 1.3714
 Frc consts  --      0.0018                 0.0044                 0.0031
 IR Inten    --      0.8020                 0.5050                 0.2552

                      4                      5                      6
                      A                      A                      A
 Frequencies --     71.7256               185.2117               199.2058
 Red. masses --      2.1229                 4.1459                 3.3282
 Frc consts  --      0.0064                 0.0838                 0.0778
 IR Inten    --      0.8453                 0.0688                 4.6753

                      7                      8                      9
                      A                      A                      A
 Frequencies --    227.7711               240.0635               255.8700
 Red. masses --      2.6241                 1.2990                 1.8813
 Frc consts  --      0.0802                 0.0441                 0.0726
 IR Inten    --      0.5139                 0.1386                30.0018

                     10                     11                     12
                      A                      A                      A
 Frequencies --    269.9996               278.9120               292.4517
 Red. masses --      2.0190                 1.7403                 1.1551
 Frc consts  --      0.0867                 0.0798                 0.0582
 IR Inten    --     21.4890                55.7392                 1.5921

                     13                     14                     15
                      A                      A                      A
 Frequencies --    343.2747               386.3904               413.3920
 Red. masses --      2.3912                 2.8099                 2.1437
 Frc consts  --      0.1660                 0.2472                 0.2158
 IR Inten    --      1.8819                 1.6742                 4.9024

                     16                     17                     18
                      A                      A                      A
 Frequencies --    451.2128               454.8607               503.5387
 Red. masses --      3.5649                 3.1872                 2.6888
 Frc consts  --      0.4276                 0.3885                 0.4017
 IR Inten    --      1.1817                 9.7380                16.2160

                     19                     20                     21
                      A                      A                      A
 Frequencies --    544.0509               578.2889               605.0498
 Red. masses --      5.2097                 5.0064                 4.5347
 Frc consts  --      0.9085                 0.9864                 0.9781
 IR Inten    --      1.5447                 8.9902                 1.7075

                     22                     23                     24
                      A                      A                      A
 Frequencies --    617.6424               738.2032               746.8673
 Red. masses --      3.3897                 5.8158                 2.1546
 Frc consts  --      0.7619                 1.8673                 0.7081
 IR Inten    --      0.1727                 7.1765                 2.4786

                     25                     26                     27
                      A                      A                      A
 Frequencies --    771.0447               788.3628               868.8783
 Red. masses --      3.8202                 1.9035                 1.3445
 Frc consts  --      1.3381                 0.6970                 0.5980
 IR Inten    --      5.8659                47.1480                 0.4638

                     28                     29                     30
                      A                      A                      A
 Frequencies --    909.4105               925.6729               939.3495
 Red. masses --      2.1171                 2.7020                 1.5365
 Frc consts  --      1.0316                 1.3641                 0.7988
 IR Inten    --      2.2985                11.1827                 1.5817

                     31                     32                     33
                      A                      A                      A
 Frequencies --    948.0067               984.4860               998.4301
 Red. masses --      2.5664                 1.2761                 4.1994
 Frc consts  --      1.3589                 0.7287                 2.4664
 IR Inten    --     35.2592                 0.1030                 0.6152

                     34                     35                     36
                      A                      A                      A
 Frequencies --   1011.7555              1038.8353              1043.2695
 Red. masses --      1.5490                 1.8132                 1.4685
 Frc consts  --      0.9342                 1.1529                 0.9417
 IR Inten    --      4.4702                10.4278                 2.9401

                     37                     38                     39
                      A                      A                      A
 Frequencies --   1073.3846              1129.8217              1133.6567
 Red. masses --      1.5720                 2.9070                 1.9071
 Frc consts  --      1.0671                 2.1863                 1.4441
 IR Inten    --      5.4645               124.2965                30.8058

                     40                     41                     42
                      A                      A                      A
 Frequencies --   1175.6518              1202.0487              1221.2366
 Red. masses --      1.4611                 1.2252                 3.1269
 Frc consts  --      1.1898                 1.0431                 2.7477
 IR Inten    --     84.8155                 2.2981                28.4973

                     43                     44                     45
                      A                      A                      A
 Frequencies --   1229.6873              1267.3662              1320.7594
 Red. masses --      2.0534                 2.0590                 2.3435
 Frc consts  --      1.8294                 1.9486                 2.4086
 IR Inten    --     76.0405                67.7159                84.7968

                     46                     47                     48
                      A                      A                      A
 Frequencies --   1331.5123              1357.9379              1397.2317
 Red. masses --      4.1781                 1.8488                 1.5809
 Frc consts  --      4.3644                 2.0087                 1.8184
 IR Inten    --     24.7086               110.0796                47.9072

                     49                     50                     51
                      A                      A                      A
 Frequencies --   1424.9266              1427.4648              1436.5527
 Red. masses --      1.4006                 1.3313                 1.2786
 Frc consts  --      1.6755                 1.5984                 1.5546
 IR Inten    --     16.3083                 2.8707                 2.5444

                     52                     53                     54
                      A                      A                      A
 Frequencies --   1448.3886              1476.8815              1499.3075
 Red. masses --      1.2653                 2.8914                 2.2772
 Frc consts  --      1.5640                 3.7158                 3.0160
 IR Inten    --     19.5069                22.0420               177.4386

                     55                     56                     57
                      A                      A                      A
 Frequencies --   1506.0105              1511.7081              1516.9550
 Red. masses --      1.0453                 1.0538                 1.0521
 Frc consts  --      1.3968                 1.4188                 1.4264
 IR Inten    --      5.4222                 2.5309                 0.6044

                     58                     59                     60
                      A                      A                      A
 Frequencies --   1525.2994              1527.7022              1531.8724
 Red. masses --      1.2158                 1.0837                 1.0893
 Frc consts  --      1.6666                 1.4902                 1.5060
 IR Inten    --     79.6148                 5.4958                18.8648

                     61                     62                     63
                      A                      A                      A
 Frequencies --   1542.2519              1641.2276              1649.0782
 Red. masses --      1.0763                 5.0790                 6.8103
 Frc consts  --      1.5084                 8.0605                10.9119
 IR Inten    --     19.5037               142.1023               135.6954

                     64                     65                     66
                      A                      A                      A
 Frequencies --   3044.8801              3050.2615              3057.3242
 Red. masses --      1.0374                 1.0411                 1.0358
 Frc consts  --      5.6666                 5.7071                 5.7042
 IR Inten    --     12.3315                27.3360                18.9719

                     67                     68                     69
                      A                      A                      A
 Frequencies --   3082.7629              3110.0780              3117.5253
 Red. masses --      1.0578                 1.1002                 1.1007
 Frc consts  --      5.9228                 6.2701                 6.3032
 IR Inten    --     31.9697                 5.7263                10.8107

                     70                     71                     72
                      A                      A                      A
 Frequencies --   3117.8020              3124.9473              3133.5551
 Red. masses --      1.0961                 1.1036                 1.1070
 Frc consts  --      6.2779                 6.3497                 6.4042
 IR Inten    --     58.7179                11.5342                37.5109

                     73                     74                     75
                      A                      A                      A
 Frequencies --   3138.4555              3156.4692              3190.6570
 Red. masses --      1.1033                 1.1017                 1.0881
 Frc consts  --      6.4030                 6.4670                 6.5265
 IR Inten    --     19.4392                12.3339                10.0493

                     76                     77                     78
                      A                      A                      A
 Frequencies --   3214.7275              3239.5203              3737.9384
 Red. masses --      1.0940                 1.0918                 1.0660
 Frc consts  --      6.6614                 6.7508                 8.7753
 IR Inten    --     19.6395                15.5237                 7.7204

 - Thermochemistry -
 -------------------
 Temperature   298.150 Kelvin.  Pressure   1.00000 Atm.
 Atom     1 has atomic number  6 and mass  12.00000

 Molecular mass:   181.11028 amu.
 Principal axes and moments of inertia in atomic units:
                           1         2         3
     Eigenvalues --   962.046624471.424584897.92887
           X            0.99985  -0.01710   0.00182
           Y            0.01713   0.99976  -0.01362
           Z           -0.00159   0.01365   0.99991
 This molecule is an asymmetric top.
 Rotational symmetry number  1.
 Warning -- assumption of classical behavior for rotation
           may cause significant error
 Rotational temperatures (Kelvin)      0.09003     0.01937     0.01768
 Rotational constants (GHZ):           1.87594     0.40362     0.36847
 Zero-point vibrational energy     626782.9 (Joules/Mol)
                                  149.80470 (Kcal/Mol)
 Warning -- explicit consideration of  22 degrees of freedom as
           vibrations may cause significant error
 Vibrational temperatures:     40.96    65.43    88.71   103.20   266.48
          (Kelvin)            286.61   327.71   345.40   368.14   388.47
                              401.29   420.77   493.90   555.93   594.78
                              649.19   654.44   724.48   782.77   832.03
                              870.53   888.65  1062.11  1074.58  1109.36
                             1134.28  1250.12  1308.44  1331.84  1351.51
                             1363.97  1416.46  1436.52  1455.69  1494.65
                             1501.03  1544.36  1625.56  1631.08  1691.50
                             1729.48  1757.09  1769.25  1823.46  1900.28
                             1915.75  1953.77  2010.30  2050.15  2053.80
                             2066.88  2083.91  2124.90  2157.17  2166.81
                             2175.01  2182.56  2194.57  2198.02  2204.02
                             2218.96  2361.36  2372.66  4380.90  4388.65
                             4398.81  4435.41  4474.71  4485.42  4485.82
                             4496.10  4508.49  4515.54  4541.46  4590.64
                             4625.28  4660.95  5378.06

 Zero-point correction=                           0.238729 (Hartree/Particle)
 Thermal correction to Energy=                    0.252322
 Thermal correction to Enthalpy=                  0.253266
 Thermal correction to Gibbs Free Energy=         0.197813
 Sum of electronic and zero-point Energies=           -595.095916
 Sum of electronic and thermal Energies=              -595.082323
 Sum of electronic and thermal Enthalpies=            -595.081379
 Sum of electronic and thermal Free Energies=         -595.136831

                     E (Thermal)             CV                S
                      KCal/Mol        Cal/Mol-Kelvin    Cal/Mol-Kelvin
 Total                  158.334             51.199            116.710
 Electronic               0.000              0.000              0.000
 Translational            0.889              2.981             41.488
 Rotational               0.889              2.981             31.422
 Vibrational            156.557             45.237             43.800
 Vibration     1          0.593              1.984              5.934
 Vibration     2          0.595              1.979              5.005
 Vibration     3          0.597              1.973              4.404
 Vibration     4          0.598              1.967              4.105
 Vibration     5          0.631              1.860              2.275
 Vibration     6          0.637              1.841              2.140
 Vibration     7          0.651              1.799              1.896
 Vibration     8          0.657              1.779              1.802
 Vibration     9          0.666              1.753              1.690
 Vibration    10          0.674              1.728              1.596
 Vibration    11          0.679              1.713              1.540
 Vibration    12          0.688              1.688              1.460
 Vibration    13          0.722              1.589              1.197
 Vibration    14          0.755              1.499              1.014
 Vibration    15          0.777              1.441              0.915
 Vibration    16          0.810              1.358              0.792
 Vibration    17          0.813              1.350              0.781
 Vibration    18          0.859              1.242              0.649
 Vibration    19          0.899              1.153              0.557
 Vibration    20          0.935              1.078              0.489
 Vibration    21          0.964              1.021              0.441
 Vibration    22          0.977              0.995              0.420

 Optimization completed.
    -- Stationary point found.
 Normal termination of Gaussian 16 at Sun Dec 13 16:19:19 2020.

 ----------------------------------------------------------------------
 # B3LYP/6-311++G(d,p) empiricaldispersion=gd3bj scf=xqc pop=npa geom=c
 heck
 ----------------------------------------------------------------------

 ---------------------------------------
 CID_124085461_JID_3845_Energie_neutraal
 ---------------------------------------
 Structure from the checkpoint file:  "JID_3845.chk"
 Charge =  0 Multiplicity = 1

 SCF Done:  E(RB3LYP) =  -595.509723390     A.U. after   15 cycles
 Normal termination of Gaussian 16 at Sun Dec 13 16:22:26 2020.

 ----------------------------------------------------------------------
 # B3LYP/6-311++G(d,p) empiricaldispersion=gd3bj scf=xqc pop=npa geom=c
 heck
 ----------------------------------------------------------------------

 -------------------------------------
 CID_124085461_JID_3845_Energie_kation
 -------------------------------------
 Structure from the checkpoint file:  "JID_3845.chk"
 Charge =  1 Multiplicity = 2

 SCF Done:  E(UB3LYP) =  -595.206279030     A.U. after   23 cycles
 Normal termination of Gaussian 16 at Sun Dec 13 16:29:14 2020.
 Gaussian 16:  ES64L-G16RevA.03 25-Dec-2016

 ----------------------------------------------------------------------
 # B3LYP/6-311++G(d,p) empiricaldispersion=gd3bj scf=xqc pop=npa geom=c
 heck
 ----------------------------------------------------------------------

 ------------------------------------
 CID_124085461_JID_3845_Energie_anion
 ------------------------------------
 Structure from the checkpoint file:  "JID_3845.chk"
 Charge = -1 Multiplicity = 2

                         Standard orientation:
 ---------------------------------------------------------------------
 Center     Atomic      Atomic             Coordinates (Angstroms)
 Number     Number       Type             X           Y           Z
 ---------------------------------------------------------------------
      1          6           0        4.072333   -1.324196    0.310987
      2          6           0        2.938005   -0.356110    0.094429
      3          7           0        1.751598   -0.901564   -0.209451
      4          6           0        0.705660   -0.104392   -0.411636
      5          6           0        0.781673    1.296284   -0.315140
      6          6           0        2.017568    1.851937   -0.004314
      7          6           0        3.119828    1.025831    0.204477
      8          8           0       -0.420225   -0.800401   -0.719295
      9          6           0       -1.641409   -0.136439   -1.023020
     10          6           0       -2.627494   -0.105746    0.154765
     11          6           0       -1.977756    0.368555    1.457370
     12          6           0       -3.818945    0.782150   -0.231369
     13          8           0       -3.062589   -1.463891    0.294463
     14          1           0        4.232623   -1.928253   -0.588824
     15          1           0        5.004110   -0.807239    0.558072
     16          1           0        3.828539   -2.018659    1.122472
     17          1           0       -0.079116    1.935272   -0.460563
     18          1           0        2.115090    2.931076    0.079351
     19          1           0        4.093205    1.437040    0.450262
     20          1           0       -1.464710    0.873604   -1.403386
     21          1           0       -2.101315   -0.725119   -1.821351
     22          1           0       -1.603635    1.394089    1.379805
     23          1           0       -2.715864    0.347152    2.269535
     24          1           0       -1.147901   -0.288907    1.726750
     25          1           0       -4.268772    0.434606   -1.167361
     26          1           0       -4.588122    0.738552    0.548638
     27          1           0       -3.522648    1.830741   -0.350331
     28          1           0       -3.596942   -1.515916    1.102449
 ---------------------------------------------------------------------

 SCF Done:  E(UB3LYP) =  -595.499521344     A.U. after   33 cycles
 SCF Done:  E(UB3LYP) =  -595.499521344     a.u. after    1 cycles

 The electronic state is 2-A.
 Alpha  occ. eigenvalues --  -19.05079 -19.01780 -14.20001 -10.16535 -10.13276
 Alpha  occ. eigenvalues --  -10.12344 -10.11821 -10.08827 -10.07675 -10.07646
 Alpha  occ. eigenvalues --  -10.07309 -10.06018 -10.05822  -0.97549  -0.92291
 Alpha  occ. eigenvalues --   -0.84113  -0.70621  -0.69775  -0.67847  -0.61351
 Alpha  occ. eigenvalues --   -0.59989  -0.59350  -0.52094  -0.51706  -0.47451
 Alpha  occ. eigenvalues --   -0.44035  -0.40785  -0.39353  -0.38897  -0.37848
 Alpha  occ. eigenvalues --   -0.34219  -0.34141  -0.33718  -0.32263  -0.31892
 Alpha  occ. eigenvalues --   -0.30426  -0.30014  -0.29399  -0.28775  -0.27583
 Alpha  occ. eigenvalues --   -0.27163  -0.25786  -0.24232  -0.23668  -0.21498
 Alpha  occ. eigenvalues --   -0.18153  -0.17639  -0.16506  -0.13387   0.04204
 Alpha virt. eigenvalues --    0.06078   0.06585   0.07164   0.08085   0.08950
 Alpha virt. eigenvalues --    0.09052   0.09439   0.10290   0.10344   0.10866
 Alpha virt. eigenvalues --    0.11450   0.12099   0.12636   0.13224   0.14025

  Beta  occ. eigenvalues --  -19.05076 -19.01751 -14.19966 -10.16534 -10.13275
  Beta  occ. eigenvalues --  -10.12323 -10.11808 -10.08776 -10.07668 -10.07620
  Beta  occ. eigenvalues --  -10.07303 -10.05970 -10.05791  -0.97539  -0.92227
  Beta  occ. eigenvalues --   -0.84062  -0.70553  -0.69729  -0.67809  -0.61315
  Beta  occ. eigenvalues --   -0.59945  -0.59278  -0.52021  -0.51643  -0.47390
  Beta  occ. eigenvalues --   -0.43989  -0.40743  -0.39295  -0.38851  -0.37814
  Beta  occ. eigenvalues --   -0.34165  -0.34081  -0.33677  -0.32222  -0.31844
  Beta  occ. eigenvalues --   -0.30382  -0.29980  -0.29353  -0.28728  -0.27538
  Beta  occ. eigenvalues --   -0.27110  -0.25750  -0.24186  -0.23627  -0.21438
  Beta  occ. eigenvalues --   -0.17987  -0.17602  -0.16462  -0.13323
  Beta virt. eigenvalues --    0.06399   0.06865   0.07064   0.07987   0.08849
  Beta virt. eigenvalues --    0.09092   0.09444   0.09873   0.10617   0.10887
  Beta virt. eigenvalues --    0.11042   0.11821   0.12489   0.12914   0.13571

 Mulliken charges and spin densities:
               1          2
     1  C    0.636621  -1.134677
     2  C   -0.361486   0.173148
     3  N   -0.162347   0.103969
     4  C   -1.021512   0.474573
     5  C    0.990565  -0.337366
     6  C    0.936148  -1.568252
     7  C   -0.674959   0.797970
     8  O    0.040484   0.005582
     9  C    0.792258  -1.174719
    10  C   -1.543236   1.794004
    11  C    0.536848  -1.168727
    12  C    1.252620  -1.788383
    13  O   -0.171414  -0.008145
    14  H    0.133971   0.017742
    15  H   -0.028617   0.172383
    16  H    0.109246   0.046617
    17  H   -0.047800   0.216805
    18  H   -0.853672   1.050404
    19  H   -0.284954   0.439097
    20  H   -0.313071   0.479092
    21  H    0.236397  -0.021458
    22  H   -0.073055   0.235334
    23  H   -0.340354   0.482470
    24  H    0.089483   0.121959
    25  H   -0.137842   0.293027
    26  H   -0.376971   0.527424
    27  H   -0.374384   0.528135
    28  H    0.011031   0.241991
 Sum of Mulliken charges =  -1.00000   1.00000

 Dipole moment (field-independent basis, Debye):
    X=              3.7577    Y=             -3.3326    Z=             -1.2773  Tot=              5.1825
 Quadrupole moment (field-independent basis, Debye-Ang):
   XX=           -148.7557   YY=           -127.5956   ZZ=           -106.1596
   XY=             -2.8661   XZ=              3.8327   YZ=             -1.5462

 Summary of Natural Population Analysis:

                                       Natural Population
                Natural  -----------------------------------------------
    Atom  No    Charge         Core      Valence    Rydberg      Total
 -----------------------------------------------------------------------
      C    1   -0.29661      0.99963     2.29155    0.00542     3.29661
      C    2    0.11361      0.99955     1.87294    0.01390     2.88639
      N    3   -0.25057      0.99962     2.74035    0.01060     3.75057
      C    4    0.27410      0.99943     1.70922    0.01725     2.72590
      C    5   -0.16042      0.99951     2.15180    0.00911     3.16042
      C    6   -0.06285      0.99957     2.05250    0.01078     3.06285
      C    7   -0.14409      0.99950     2.13498    0.00961     3.14409
      O    8   -0.26655      0.99985     3.25738    0.00933     4.26655
      C    9   -0.01365      0.99947     2.00068    0.01351     3.01365
      C   10    0.11100      0.99956     1.87484    0.01460     2.88900
      C   11   -0.30107      0.99961     2.29412    0.00734     3.30107
      C   12   -0.29618      0.99962     2.28959    0.00698     3.29618
      O   13   -0.37471      0.99989     3.36829    0.00653     4.37471
      H   14    0.10566      0.00000     0.39322    0.00112     0.39434
      H   15    0.09803      0.00000     0.40124    0.00073     0.40197
      H   16    0.10700      0.00000     0.39185    0.00115     0.39300
      H   17    0.10946      0.00000     0.38794    0.00261     0.39054
      H   18    0.10399      0.00000     0.39398    0.00203     0.39601
      H   19    0.10266      0.00000     0.39627    0.00108     0.39734
      H   20    0.09083      0.00000     0.40733    0.00184     0.40917
      H   21    0.09813      0.00000     0.40055    0.00132     0.40187
      H   22    0.10590      0.00000     0.39232    0.00178     0.39410
      H   23    0.10036      0.00000     0.39836    0.00128     0.39964
      H   24    0.10812      0.00000     0.39041    0.00146     0.39188
      H   25    0.10151      0.00000     0.39731    0.00118     0.39849
      H   26    0.10300      0.00000     0.39515    0.00185     0.39700
      H   27    0.10448      0.00000     0.39337    0.00214     0.39552
      H   28    0.22887      0.00000     0.26799    0.00315     0.27113
 =======================================================================
   * Total *    0.00000     12.99481    35.84552    0.15967    49.00000

 Normal termination of Gaussian 16 at Sun Dec 13 16:39:19 2020.
