 Gaussian 16, Revision A.03,

 -----------------------------------------------------------
 # opt freq B3LYP/6-31G(d) empiricaldispersion=gd3bj scf=xqc
 -----------------------------------------------------------

 -------------------------------
 CID_139641270_JID_2122_neutraal
 -------------------------------
 Symbolic Z-matrix:
 Charge =  0 Multiplicity = 1

 SCF Done:  E(RB3LYP) =  -536.165295786     A.U. after   14 cycles
 SCF Done:  E(RB3LYP) =  -536.171297417     A.U. after   13 cycles
 SCF Done:  E(RB3LYP) =  -536.172677082     A.U. after   12 cycles
 SCF Done:  E(RB3LYP) =  -536.173597934     A.U. after   13 cycles
 SCF Done:  E(RB3LYP) =  -536.174315189     A.U. after   12 cycles
 SCF Done:  E(RB3LYP) =  -536.174607305     A.U. after   12 cycles
 SCF Done:  E(RB3LYP) =  -536.174710224     A.U. after   11 cycles
 SCF Done:  E(RB3LYP) =  -536.174725807     A.U. after    9 cycles
 SCF Done:  E(RB3LYP) =  -536.174747538     A.U. after   10 cycles
 SCF Done:  E(RB3LYP) =  -536.174750505     A.U. after    9 cycles
 SCF Done:  E(RB3LYP) =  -536.174751465     A.U. after    8 cycles
 SCF Done:  E(RB3LYP) =  -536.174751759     A.U. after    8 cycles
 Optimization completed.
    -- Stationary point found.
 Normal termination of Gaussian 16 at Wed Dec  9 16:50:41 2020.

 --------------------------------------------------------------------
 #N Geom=AllCheck Guess=TCheck SCRF=Check GenChk RB3LYP/6-31G(d) Freq
 --------------------------------------------------------------------

 Structure from the checkpoint file:  "JID_2122.chk"
 -------------------------------
 CID_139641270_JID_2122_neutraal
 -------------------------------
 Charge =  0 Multiplicity = 1

 SCF Done:  E(RB3LYP) =  -536.174751759     A.U. after    1 cycles

  Exact polarizability: 125.872  -4.286 108.236   3.083  -1.878  80.365
 Approx polarizability: 160.582 -15.890 172.309   8.165  -8.962 124.698

                      1                      2                      3
                      A                      A                      A
 Frequencies --     73.5620                83.5600               125.5932
 Red. masses --      3.0325                 3.2004                 3.6214
 Frc consts  --      0.0097                 0.0132                 0.0337
 IR Inten    --      2.5212                 2.5298                 1.0487

                      4                      5                      6
                      A                      A                      A
 Frequencies --    185.8420               207.4739               282.2720
 Red. masses --      2.5476                 2.6786                 2.7371
 Frc consts  --      0.0518                 0.0679                 0.1285
 IR Inten    --      3.4486                 1.2744                 4.2464

                      7                      8                      9
                      A                      A                      A
 Frequencies --    292.7286               334.8106               360.7918
 Red. masses --      2.7437                 2.7644                 3.6857
 Frc consts  --      0.1385                 0.1826                 0.2827
 IR Inten    --      6.4978                 1.4151                 1.2592

                     10                     11                     12
                      A                      A                      A
 Frequencies --    381.9464               476.0829               506.3240
 Red. masses --      2.9768                 1.8167                 3.4046
 Frc consts  --      0.2559                 0.2426                 0.5142
 IR Inten    --      1.6300                 1.9995                 5.6857

                     13                     14                     15
                      A                      A                      A
 Frequencies --    536.3680               551.5507               592.9867
 Red. masses --      3.4704                 4.3867                 2.4945
 Frc consts  --      0.5882                 0.7862                 0.5168
 IR Inten    --      0.6270                13.8523                 4.6352

                     16                     17                     18
                      A                      A                      A
 Frequencies --    636.4020               705.1795               753.1981
 Red. masses --      4.9054                 3.0383                 3.4419
 Frc consts  --      1.1705                 0.8902                 1.1504
 IR Inten    --      2.4677                14.5704                 3.1545

                     19                     20                     21
                      A                      A                      A
 Frequencies --    839.0062               855.6041               887.7702
 Red. masses --      1.6298                 2.6990                 2.4566
 Frc consts  --      0.6759                 1.1641                 1.1408
 IR Inten    --      3.9406                 1.8829                 4.1960

                     22                     23                     24
                      A                      A                      A
 Frequencies --    898.9170               908.8623               936.6490
 Red. masses --      1.7138                 1.7446                 1.6891
 Frc consts  --      0.8159                 0.8491                 0.8731
 IR Inten    --      3.6301                 1.4454                 2.4671

                     25                     26                     27
                      A                      A                      A
 Frequencies --    960.9322               993.8218              1004.1925
 Red. masses --      2.5545                 2.4058                 2.6005
 Frc consts  --      1.3898                 1.4000                 1.5450
 IR Inten    --     26.4023                 5.6097                10.6224

                     28                     29                     30
                      A                      A                      A
 Frequencies --   1044.2631              1087.6990              1103.4870
 Red. masses --      2.8873                 1.9559                 2.1147
 Frc consts  --      1.8550                 1.3633                 1.5171
 IR Inten    --      5.9651                 0.5106                 1.5379

                     31                     32                     33
                      A                      A                      A
 Frequencies --   1118.5071              1130.8878              1148.8782
 Red. masses --      2.4592                 2.0616                 2.5477
 Frc consts  --      1.8127                 1.5534                 1.9813
 IR Inten    --      0.6519                 5.3209                11.1576

                     34                     35                     36
                      A                      A                      A
 Frequencies --   1171.3444              1219.6276              1237.3753
 Red. masses --      1.2665                 1.5129                 1.3844
 Frc consts  --      1.0238                 1.3259                 1.2489
 IR Inten    --     14.1408                39.3548                28.9291

                     37                     38                     39
                      A                      A                      A
 Frequencies --   1250.6599              1282.5424              1293.8883
 Red. masses --      1.3421                 1.3622                 1.4978
 Frc consts  --      1.2368                 1.3202                 1.4774
 IR Inten    --     35.3369                42.3812                64.1596

                     40                     41                     42
                      A                      A                      A
 Frequencies --   1298.5518              1328.5815              1366.1694
 Red. masses --      1.1551                 1.4630                 1.7284
 Frc consts  --      1.1476                 1.5215                 1.9007
 IR Inten    --      1.0688                21.0346                45.8157

                     43                     44                     45
                      A                      A                      A
 Frequencies --   1372.2948              1382.9641              1384.3492
 Red. masses --      1.3979                 1.4137                 1.5751
 Frc consts  --      1.5510                 1.5931                 1.7785
 IR Inten    --     39.1196                 5.6462                28.2626

                     46                     47                     48
                      A                      A                      A
 Frequencies --   1402.0124              1408.5541              1412.5067
 Red. masses --      1.4517                 2.0735                 1.5211
 Frc consts  --      1.6813                 2.4238                 1.7881
 IR Inten    --     14.4244                91.8498                17.7727

                     49                     50                     51
                      A                      A                      A
 Frequencies --   1425.7008              1499.7511              1503.6171
 Red. masses --      1.6621                 1.0936                 1.0917
 Frc consts  --      1.9905                 1.4493                 1.4542
 IR Inten    --     22.7608                 2.7022                11.5861

                     52                     53                     54
                      A                      A                      A
 Frequencies --   1519.6547              1521.5206              1526.7291
 Red. masses --      1.0817                 1.0904                 1.0999
 Frc consts  --      1.4718                 1.4873                 1.5105
 IR Inten    --     10.1966                 4.9377                 1.6243

                     55                     56                     57
                      A                      A                      A
 Frequencies --   1529.9289              1544.2170              1706.5704
 Red. masses --      1.0972                 1.0950                 8.7976
 Frc consts  --      1.5131                 1.5385                15.0960
 IR Inten    --      4.7152                 4.9166               246.3856

                     58                     59                     60
                      A                      A                      A
 Frequencies --   1767.9787              3008.4590              3032.6574
 Red. masses --     10.5861                 1.0712                 1.0696
 Frc consts  --     19.4957                 5.7121                 5.7958
 IR Inten    --    179.5031                37.6580                 9.0827

                     61                     62                     63
                      A                      A                      A
 Frequencies --   3035.0809              3041.2435              3043.6303
 Red. masses --      1.0697                 1.0640                 1.0615
 Frc consts  --      5.8058                 5.7982                 5.7936
 IR Inten    --      3.6561                24.8721                33.7729

                     64                     65                     66
                      A                      A                      A
 Frequencies --   3063.5940              3078.0134              3081.3118
 Red. masses --      1.0609                 1.0610                 1.0981
 Frc consts  --      5.8667                 5.9227                 6.1427
 IR Inten    --     19.1815                27.7526                42.7489

                     67                     68                     69
                      A                      A                      A
 Frequencies --   3088.1653              3101.7378              3107.6848
 Red. masses --      1.1043                 1.1053                 1.0929
 Frc consts  --      6.2048                 6.2653                 6.2190
 IR Inten    --     50.5572                13.7381                55.7571

                     70                     71                     72
                      A                      A                      A
 Frequencies --   3122.7121              3130.2137              3132.4089
 Red. masses --      1.1058                 1.0943                 1.0943
 Frc consts  --      6.3533                 6.3172                 6.3259
 IR Inten    --     33.6773                12.4474                10.7788

 - Thermochemistry -
 -------------------
 Temperature   298.150 Kelvin.  Pressure   1.00000 Atm.
 Atom     1 has atomic number  6 and mass  12.00000

 Molecular mass:   166.11061 amu.
 Principal axes and moments of inertia in atomic units:
                           1         2         3
     Eigenvalues --  1244.496452081.593323008.06452
           X            0.99918   0.04050  -0.00161
           Y           -0.04049   0.99914   0.00922
           Z            0.00199  -0.00914   0.99996
 This molecule is an asymmetric top.
 Rotational symmetry number  1.
 Warning -- assumption of classical behavior for rotation
           may cause significant error
 Rotational temperatures (Kelvin)      0.06960     0.04161     0.02879
 Rotational constants (GHZ):           1.45018     0.86700     0.59997
 Zero-point vibrational energy     600705.7 (Joules/Mol)
                                  143.57211 (Kcal/Mol)
 Warning -- explicit consideration of  15 degrees of freedom as
           vibrations may cause significant error
 Vibrational temperatures:    105.84   120.22   180.70   267.39   298.51
          (Kelvin)            406.13   421.17   481.72   519.10   549.54
                              684.98   728.49   771.71   793.56   853.18
                              915.64  1014.60  1083.68  1207.14  1231.02
                             1277.30  1293.34  1307.65  1347.63  1382.57
                             1429.89  1444.81  1502.46  1564.96  1587.67
                             1609.28  1627.10  1652.98  1685.30  1754.77
                             1780.31  1799.42  1845.29  1861.62  1868.33
                             1911.53  1965.61  1974.43  1989.78  1991.77
                             2017.18  2026.60  2032.28  2051.27  2157.81
                             2163.37  2186.44  2189.13  2196.62  2201.23
                             2221.78  2455.37  2543.73  4328.50  4363.32
                             4366.80  4375.67  4379.11  4407.83  4428.57
                             4433.32  4443.18  4462.71  4471.27  4492.89
                             4503.68  4506.84

 Zero-point correction=                           0.228797 (Hartree/Particle)
 Thermal correction to Energy=                    0.239096
 Thermal correction to Enthalpy=                  0.240040
 Thermal correction to Gibbs Free Energy=         0.192924
 Sum of electronic and zero-point Energies=           -535.945955
 Sum of electronic and thermal Energies=              -535.935656
 Sum of electronic and thermal Enthalpies=            -535.934712
 Sum of electronic and thermal Free Energies=         -535.981828

                     E (Thermal)             CV                S
                      KCal/Mol        Cal/Mol-Kelvin    Cal/Mol-Kelvin
 Total                  150.035             40.695             99.164
 Electronic               0.000              0.000              0.000
 Translational            0.889              2.981             41.231
 Rotational               0.889              2.981             30.434
 Vibrational            148.258             34.733             27.500
 Vibration     1          0.599              1.966              4.056
 Vibration     2          0.600              1.960              3.805
 Vibration     3          0.611              1.927              3.012
 Vibration     4          0.632              1.859              2.269
 Vibration     5          0.641              1.829              2.066
 Vibration     6          0.681              1.706              1.520
 Vibration     7          0.688              1.687              1.458
 Vibration     8          0.716              1.606              1.237
 Vibration     9          0.735              1.553              1.119
 Vibration    10          0.751              1.509              1.031
 Vibration    11          0.833              1.303              0.721
 Vibration    12          0.862              1.236              0.643
 Vibration    13          0.891              1.170              0.573
 Vibration    14          0.907              1.136              0.541
 Vibration    15          0.951              1.047              0.462

 Optimization completed.
    -- Stationary point found.
 Normal termination of Gaussian 16 at Wed Dec  9 16:57:13 2020.

 ----------------------------------------------------------------------
 # B3LYP/6-311++G(d,p) empiricaldispersion=gd3bj scf=xqc pop=npa geom=c
 heck
 ----------------------------------------------------------------------

 ---------------------------------------
 CID_139641270_JID_2122_Energie_neutraal
 ---------------------------------------
 Structure from the checkpoint file:  "JID_2122.chk"
 Charge =  0 Multiplicity = 1

 SCF Done:  E(RB3LYP) =  -536.321026451     A.U. after   14 cycles
 Normal termination of Gaussian 16 at Wed Dec  9 16:59:27 2020.

 ----------------------------------------------------------------------
 # B3LYP/6-311++G(d,p) empiricaldispersion=gd3bj scf=xqc pop=npa geom=c
 heck
 ----------------------------------------------------------------------

 -------------------------------------
 CID_139641270_JID_2122_Energie_kation
 -------------------------------------
 Structure from the checkpoint file:  "JID_2122.chk"
 Charge =  1 Multiplicity = 2

 SCF Done:  E(UB3LYP) =  -536.001643000     A.U. after   25 cycles
 Normal termination of Gaussian 16 at Wed Dec  9 17:04:55 2020.
 Gaussian 16:  ES64L-G16RevA.03 25-Dec-2016

 ----------------------------------------------------------------------
 # B3LYP/6-311++G(d,p) empiricaldispersion=gd3bj scf=xqc pop=npa geom=c
 heck
 ----------------------------------------------------------------------

 ------------------------------------
 CID_139641270_JID_2122_Energie_anion
 ------------------------------------
 Structure from the checkpoint file:  "JID_2122.chk"
 Charge = -1 Multiplicity = 2

                         Standard orientation:
 ---------------------------------------------------------------------
 Center     Atomic      Atomic             Coordinates (Angstroms)
 Number     Number       Type             X           Y           Z
 ---------------------------------------------------------------------
      1          6           0       -2.189924   -1.539194   -0.034218
      2          6           0       -2.787880   -0.134970   -0.007108
      3          6           0       -1.920325    0.872191    0.759627
      4          6           0       -0.663157    1.382133    0.066526
      5          8           0       -0.526153    2.572171   -0.185386
      6          7           0        0.394474    0.506582   -0.149043
      7          6           0        1.700526    1.160482   -0.415016
      8          6           0        2.847210    0.160588   -0.284929
      9          6           0        2.476331   -0.877418    0.780081
     10          7           0        1.310624   -1.620979    0.315661
     11          6           0        0.335176   -0.910286   -0.108790
     12          6           0       -0.839034   -1.614660   -0.755205
     13          1           0       -2.072043   -1.909707    0.993072
     14          1           0       -2.883677   -2.223472   -0.537370
     15          1           0       -2.952393    0.224716   -1.031781
     16          1           0       -3.773235   -0.169357    0.472503
     17          1           0       -2.495863    1.775634    0.972300
     18          1           0       -1.625836    0.430688    1.722428
     19          1           0        1.803442    1.972002    0.310251
     20          1           0        1.669748    1.623989   -1.406176
     21          1           0        3.770794    0.693166   -0.034133
     22          1           0        3.016749   -0.366878   -1.230477
     23          1           0        2.255969   -0.368267    1.731792
     24          1           0        3.293110   -1.581377    0.961889
     25          1           0       -0.532424   -2.659454   -0.841812
     26          1           0       -0.954336   -1.211459   -1.771537
 ---------------------------------------------------------------------

 SCF Done:  E(UB3LYP) =  -536.311392463     A.U. after   29 cycles

 The electronic state is 2-A.
 Alpha  occ. eigenvalues --  -18.97281 -14.23466 -14.17194 -10.15099 -10.12053
 Alpha  occ. eigenvalues --  -10.09746 -10.08277 -10.06783 -10.06259 -10.05980
 Alpha  occ. eigenvalues --  -10.05952 -10.05678  -0.92833  -0.85447  -0.77030
 Alpha  occ. eigenvalues --   -0.70801  -0.67326  -0.63911  -0.57078  -0.56493
 Alpha  occ. eigenvalues --   -0.52100  -0.48148  -0.46934  -0.40587  -0.39385
 Alpha  occ. eigenvalues --   -0.38472  -0.35781  -0.34164  -0.32423  -0.32390
 Alpha  occ. eigenvalues --   -0.31638  -0.30768  -0.30067  -0.28755  -0.27575
 Alpha  occ. eigenvalues --   -0.26019  -0.24847  -0.24023  -0.23472  -0.22184
 Alpha  occ. eigenvalues --   -0.21542  -0.19006  -0.15159  -0.13769  -0.12685
 Alpha  occ. eigenvalues --    0.04647
 Alpha virt. eigenvalues --    0.06822   0.08318   0.08734   0.09124   0.09610
 Alpha virt. eigenvalues --    0.09872   0.10142   0.11637   0.12104   0.12257
 Alpha virt. eigenvalues --    0.12914   0.13388   0.13750   0.14161   0.14973

  Beta  occ. eigenvalues --  -18.97149 -14.23509 -14.17047 -10.14982 -10.11937
  Beta  occ. eigenvalues --  -10.09726 -10.08270 -10.06755 -10.06253 -10.05981
  Beta  occ. eigenvalues --  -10.05906 -10.05635  -0.92619  -0.85291  -0.76865
  Beta  occ. eigenvalues --   -0.70722  -0.67250  -0.63788  -0.56991  -0.56396
  Beta  occ. eigenvalues --   -0.51918  -0.48039  -0.46813  -0.40451  -0.39279
  Beta  occ. eigenvalues --   -0.38403  -0.35663  -0.34079  -0.32345  -0.32192
  Beta  occ. eigenvalues --   -0.31568  -0.30649  -0.29800  -0.28662  -0.27468
  Beta  occ. eigenvalues --   -0.25957  -0.24772  -0.23951  -0.23159  -0.22034
  Beta  occ. eigenvalues --   -0.21411  -0.18657  -0.14999  -0.13482  -0.12446
  Beta virt. eigenvalues --    0.07163   0.07908   0.08779   0.09358   0.10041
  Beta virt. eigenvalues --    0.10149   0.10296   0.10424   0.11825   0.12253
  Beta virt. eigenvalues --    0.12710   0.13394   0.13514   0.13816   0.14421

 Mulliken charges and spin densities:
               1          2
     1  C    0.236876  -0.458732
     2  C    0.512564  -0.818770
     3  C   -0.606625   0.603558
     4  C    0.447143  -0.596337
     5  O   -0.366351   0.058534
     6  N   -0.016898   0.102821
     7  C    0.073770  -0.186708
     8  C    0.192771  -0.517489
     9  C   -0.090840  -0.261419
    10  N   -0.130758   0.211485
    11  C    0.031887  -0.381956
    12  C    0.280611  -0.590746
    13  H    0.031881   0.107880
    14  H   -0.536987   0.711818
    15  H   -0.010150   0.148540
    16  H   -0.705177   0.879951
    17  H    0.078915   0.117245
    18  H   -0.147962   0.300814
    19  H    0.102756   0.073853
    20  H    0.160885   0.024216
    21  H   -0.384843   0.539577
    22  H    0.081948   0.060528
    23  H   -0.016222   0.142584
    24  H   -0.209308   0.396717
    25  H    0.105805   0.071958
    26  H   -0.115692   0.260076
 Sum of Mulliken charges =  -1.00000   1.00000

 Dipole moment (field-independent basis, Debye):
    X=              2.6375    Y=              0.9009    Z=             -0.6763  Tot=              2.8680
 Quadrupole moment (field-independent basis, Debye-Ang):
   XX=           -134.9272   YY=           -115.0077   ZZ=            -94.6323
   XY=             -2.7910   XZ=             -2.4314   YZ=             -0.7904

 Summary of Natural Population Analysis:

                                       Natural Population
                Natural  -----------------------------------------------
    Atom  No    Charge         Core      Valence    Rydberg      Total
 -----------------------------------------------------------------------
      C    1   -0.18443      0.99962     2.17616    0.00866     3.18443
      C    2   -0.18672      0.99962     2.17816    0.00894     3.18672
      C    3   -0.23201      0.99959     2.22361    0.00880     3.23201
      C    4    0.36721      0.99965     1.61120    0.02194     2.63279
      O    5   -0.30892      0.99988     3.30379    0.00525     4.30892
      N    6   -0.27753      0.99960     2.76933    0.00860     3.77753
      C    7   -0.07864      0.99961     2.06728    0.01174     3.07864
      C    8   -0.20285      0.99963     2.19548    0.00774     3.20285
      C    9   -0.10373      0.99961     2.09136    0.01276     3.10373
      N   10   -0.23333      0.99966     2.72345    0.01021     3.73333
      C   11    0.24786      0.99956     1.73594    0.01664     2.75214
      C   12   -0.21252      0.99958     2.20246    0.01047     3.21252
      H   13    0.09515      0.00000     0.40337    0.00148     0.40485
      H   14    0.10120      0.00000     0.39655    0.00225     0.39880
      H   15    0.09519      0.00000     0.40333    0.00148     0.40481
      H   16    0.10202      0.00000     0.39556    0.00242     0.39798
      H   17    0.11139      0.00000     0.38757    0.00104     0.38861
      H   18    0.10544      0.00000     0.39301    0.00155     0.39456
      H   19    0.10056      0.00000     0.39830    0.00114     0.39944
      H   20    0.09768      0.00000     0.40142    0.00090     0.40232
      H   21    0.10366      0.00000     0.39461    0.00173     0.39634
      H   22    0.09690      0.00000     0.40191    0.00119     0.40310
      H   23    0.09055      0.00000     0.40779    0.00167     0.40945
      H   24    0.09315      0.00000     0.40550    0.00135     0.40685
      H   25    0.11234      0.00000     0.38606    0.00160     0.38766
      H   26    0.10039      0.00000     0.39817    0.00144     0.39961
 =======================================================================
   * Total *    0.00000     11.99561    32.85139    0.15300    45.00000

 Normal termination of Gaussian 16 at Wed Dec  9 17:11:16 2020.
