 Gaussian 16, Revision A.03,

 -----------------------------------------------------------
 # opt freq B3LYP/6-31G(d) empiricaldispersion=gd3bj scf=xqc
 -----------------------------------------------------------

 -------------------------------
 CID_138766053_JID_6952_neutraal
 -------------------------------
 Symbolic Z-matrix:
 Charge =  0 Multiplicity = 1

 SCF Done:  E(RB3LYP) =  -715.714697536     A.U. after   14 cycles
 SCF Done:  E(RB3LYP) =  -715.717894126     A.U. after   12 cycles
 SCF Done:  E(RB3LYP) =  -715.716027448     A.U. after   12 cycles
 SCF Done:  E(RB3LYP) =  -715.717473112     A.U. after   12 cycles
 SCF Done:  E(RB3LYP) =  -715.718626781     A.U. after    8 cycles
 SCF Done:  E(RB3LYP) =  -715.718860561     A.U. after   11 cycles
 SCF Done:  E(RB3LYP) =  -715.719274645     A.U. after   11 cycles
 SCF Done:  E(RB3LYP) =  -715.719457938     A.U. after   10 cycles
 SCF Done:  E(RB3LYP) =  -715.719518262     A.U. after   10 cycles
 SCF Done:  E(RB3LYP) =  -715.719532299     A.U. after    9 cycles
 SCF Done:  E(RB3LYP) =  -715.719537710     A.U. after    9 cycles
 SCF Done:  E(RB3LYP) =  -715.719540258     A.U. after    9 cycles
 SCF Done:  E(RB3LYP) =  -715.719541060     A.U. after    8 cycles
 SCF Done:  E(RB3LYP) =  -715.719541253     A.U. after    7 cycles
 Optimization completed.
    -- Stationary point found.
 Normal termination of Gaussian 16 at Fri Dec 11 01:18:24 2020.

 --------------------------------------------------------------------
 #N Geom=AllCheck Guess=TCheck SCRF=Check GenChk RB3LYP/6-31G(d) Freq
 --------------------------------------------------------------------

 Structure from the checkpoint file:  "JID_6952.chk"
 -------------------------------
 CID_138766053_JID_6952_neutraal
 -------------------------------
 Charge =  0 Multiplicity = 1

 SCF Done:  E(RB3LYP) =  -715.719541253     A.U. after    1 cycles

  Exact polarizability: 162.143   2.159 157.322   3.539   0.697 122.659
 Approx polarizability: 209.264   6.646 204.934  17.601   4.960 193.488

                      1                      2                      3
                      A                      A                      A
 Frequencies --     31.3360                40.9296                46.7474
 Red. masses --      3.2491                 3.0417                 2.7686
 Frc consts  --      0.0019                 0.0030                 0.0036
 IR Inten    --      0.1036                 0.7747                 0.0765

                      4                      5                      6
                      A                      A                      A
 Frequencies --     66.7429                73.6767                86.2500
 Red. masses --      3.7010                 3.7962                 3.2119
 Frc consts  --      0.0097                 0.0121                 0.0141
 IR Inten    --      1.7351                 2.9734                 1.5631

                      7                      8                      9
                      A                      A                      A
 Frequencies --     94.8206               101.9917               186.0713
 Red. masses --      3.9929                 3.1959                 3.4574
 Frc consts  --      0.0212                 0.0196                 0.0705
 IR Inten    --      1.2821                 0.1816                 0.1121

                     10                     11                     12
                      A                      A                      A
 Frequencies --    202.2080               207.6892               227.1380
 Red. masses --      2.0669                 1.2184                 1.7702
 Frc consts  --      0.0498                 0.0310                 0.0538
 IR Inten    --      0.4853                 0.3075                 0.1075

                     13                     14                     15
                      A                      A                      A
 Frequencies --    230.6661               241.5388               249.1447
 Red. masses --      1.3069                 1.3339                 1.5997
 Frc consts  --      0.0410                 0.0459                 0.0585
 IR Inten    --      0.2662                 1.3927                 0.5115

                     16                     17                     18
                      A                      A                      A
 Frequencies --    267.5676               283.3493               312.7333
 Red. masses --      1.7151                 1.8839                 2.3573
 Frc consts  --      0.0723                 0.0891                 0.1358
 IR Inten    --      1.8466                 3.3760                 0.6300

                     19                     20                     21
                      A                      A                      A
 Frequencies --    318.9409               361.3319               383.1716
 Red. masses --      2.7998                 3.3187                 2.3364
 Frc consts  --      0.1678                 0.2553                 0.2021
 IR Inten    --      1.7673                 1.7625                 1.4100

                     22                     23                     24
                      A                      A                      A
 Frequencies --    401.2412               431.7661               458.7960
 Red. masses --      3.0554                 1.9018                 1.8066
 Frc consts  --      0.2898                 0.2089                 0.2241
 IR Inten    --      8.6625                 2.0610                 1.7954

                     25                     26                     27
                      A                      A                      A
 Frequencies --    506.7350               543.3071               600.5220
 Red. masses --      3.3174                 4.3064                 2.0568
 Frc consts  --      0.5019                 0.7490                 0.4370
 IR Inten    --      5.3512                 8.5628                 1.5135

                     28                     29                     30
                      A                      A                      A
 Frequencies --    642.3304               680.4569               740.6402
 Red. masses --      2.7371                 3.9595                 4.1924
 Frc consts  --      0.6654                 1.0802                 1.3550
 IR Inten    --      5.2663                 6.2434                 3.4890

                     31                     32                     33
                      A                      A                      A
 Frequencies --    752.4098               826.4028               848.1701
 Red. masses --      6.3491                 2.6764                 2.2722
 Frc consts  --      2.1177                 1.0769                 0.9631
 IR Inten    --      4.6871                 1.9523                 2.2005

                     34                     35                     36
                      A                      A                      A
 Frequencies --    881.4567               889.4041               899.1007
 Red. masses --      1.7513                 1.7846                 2.2755
 Frc consts  --      0.8017                 0.8318                 1.0838
 IR Inten    --      1.1738                 2.2479                12.9685

                     37                     38                     39
                      A                      A                      A
 Frequencies --    913.3366               936.4651               944.0978
 Red. masses --      1.9375                 2.2844                 1.2345
 Frc consts  --      0.9522                 1.1804                 0.6483
 IR Inten    --      4.3888                 6.9066                 1.8808

                     40                     41                     42
                      A                      A                      A
 Frequencies --    949.8425               958.3843               959.6804
 Red. masses --      1.2665                 1.8179                 1.9504
 Frc consts  --      0.6732                 0.9838                 1.0584
 IR Inten    --      4.3917                 2.5289                 5.9304

                     43                     44                     45
                      A                      A                      A
 Frequencies --    980.0054               985.8986               990.0521
 Red. masses --      1.6105                 1.4217                 1.6582
 Frc consts  --      0.9113                 0.8142                 0.9577
 IR Inten    --      4.4129                 2.2768                32.0943

                     46                     47                     48
                      A                      A                      A
 Frequencies --   1011.6197              1035.7384              1102.4715
 Red. masses --      2.0438                 2.1476                 2.2749
 Frc consts  --      1.2323                 1.3574                 1.6291
 IR Inten    --     21.6725                 9.9165                73.1872

                     49                     50                     51
                      A                      A                      A
 Frequencies --   1118.0971              1127.1542              1137.4765
 Red. masses --      2.3094                 2.7524                 2.5388
 Frc consts  --      1.7010                 2.0603                 1.9354
 IR Inten    --    162.5267                37.4861                 2.4459

                     52                     53                     54
                      A                      A                      A
 Frequencies --   1148.2722              1158.2715              1191.8614
 Red. masses --      1.8854                 2.2429                 1.9503
 Frc consts  --      1.4647                 1.7729                 1.6323
 IR Inten    --      0.8354                 2.0557                 1.9727

                     55                     56                     57
                      A                      A                      A
 Frequencies --   1201.8190              1208.8982              1210.2352
 Red. masses --      1.6101                 1.5653                 1.7610
 Frc consts  --      1.3702                 1.3478                 1.5197
 IR Inten    --     25.8455                 4.2338                 0.9267

                     58                     59                     60
                      A                      A                      A
 Frequencies --   1228.4385              1254.4078              1267.8608
 Red. masses --      1.6295                 2.2832                 1.3645
 Frc consts  --      1.4488                 2.1167                 1.2924
 IR Inten    --      6.0463                19.5494                24.1252

                     61                     62                     63
                      A                      A                      A
 Frequencies --   1288.4897              1327.1533              1336.9038
 Red. masses --      1.5340                 1.4255                 1.3857
 Frc consts  --      1.5005                 1.4793                 1.4593
 IR Inten    --     30.0777                17.2282                13.5474

                     64                     65                     66
                      A                      A                      A
 Frequencies --   1343.4717              1349.5224              1362.8907
 Red. masses --      1.2636                 1.2607                 1.3303
 Frc consts  --      1.3438                 1.3527                 1.4559
 IR Inten    --     27.1927                 1.2524                 8.4368

                     67                     68                     69
                      A                      A                      A
 Frequencies --   1364.6401              1381.0514              1391.7793
 Red. masses --      1.3364                 1.2976                 1.3854
 Frc consts  --      1.4663                 1.4582                 1.5812
 IR Inten    --      0.6718                 4.4443                10.1424

                     70                     71                     72
                      A                      A                      A
 Frequencies --   1395.2011              1412.6770              1421.9844
 Red. masses --      1.3485                 1.3421                 1.3596
 Frc consts  --      1.5465                 1.5780                 1.6198
 IR Inten    --      1.5627                 3.7614                 2.2828

                     73                     74                     75
                      A                      A                      A
 Frequencies --   1428.6236              1430.7715              1434.7768
 Red. masses --      1.4529                 1.2787                 1.2439
 Frc consts  --      1.7471                 1.5423                 1.5087
 IR Inten    --      5.2287                 1.5426                 3.5791

                     76                     77                     78
                      A                      A                      A
 Frequencies --   1448.5340              1451.2889              1473.5479
 Red. masses --      1.3243                 1.2373                 1.8688
 Frc consts  --      1.6372                 1.5354                 2.3908
 IR Inten    --     11.4737                 3.3623               103.2088

                     79                     80                     81
                      A                      A                      A
 Frequencies --   1505.5497              1515.5917              1517.5697
 Red. masses --      1.1041                 1.0819                 1.0712
 Frc consts  --      1.4745                 1.4642                 1.4535
 IR Inten    --     10.5000                 2.4561                 1.2024

                     82                     83                     84
                      A                      A                      A
 Frequencies --   1519.3160              1521.4015              1523.1460
 Red. masses --      1.0674                 1.0539                 1.0574
 Frc consts  --      1.4517                 1.4373                 1.4454
 IR Inten    --      5.0711                 0.7309                 7.3039

                     85                     86                     87
                      A                      A                      A
 Frequencies --   1528.5807              1530.1851              1534.5228
 Red. masses --      1.1034                 1.0603                 1.0591
 Frc consts  --      1.5191                 1.4627                 1.4694
 IR Inten    --      1.3640                 1.5254                 6.1383

                     88                     89                     90
                      A                      A                      A
 Frequencies --   1541.7351              1544.4105              1548.4794
 Red. masses --      1.0490                 1.0768                 1.0514
 Frc consts  --      1.4691                 1.5133                 1.4854
 IR Inten    --     15.1668                30.9892                 7.0099

                     91                     92                     93
                      A                      A                      A
 Frequencies --   1561.8873              1736.4936              3006.0470
 Red. masses --      1.0959                 9.0881                 1.0826
 Frc consts  --      1.5751                16.1461                 5.7639
 IR Inten    --      2.5811               253.8034                26.4860

                     94                     95                     96
                      A                      A                      A
 Frequencies --   3016.5955              3025.9076              3039.5950
 Red. masses --      1.0820                 1.0688                 1.0355
 Frc consts  --      5.8011                 5.7660                 5.6370
 IR Inten    --     54.6105                56.2734                29.5218

                     97                     98                     99
                      A                      A                      A
 Frequencies --   3052.0423              3052.4680              3053.5216
 Red. masses --      1.0608                 1.0422                 1.0374
 Frc consts  --      5.8220                 5.7214                 5.6989
 IR Inten    --      7.6520                34.4616                22.3241

                    100                    101                    102
                      A                      A                      A
 Frequencies --   3055.7367              3065.9241              3068.4145
 Red. masses --      1.0386                 1.0683                 1.0727
 Frc consts  --      5.7139                 5.9165                 5.9506
 IR Inten    --     23.1295                16.4638                30.2341

                    103                    104                    105
                      A                      A                      A
 Frequencies --   3079.0042              3082.9050              3084.8813
 Red. masses --      1.0673                 1.0856                 1.0926
 Frc consts  --      5.9617                 6.0792                 6.1262
 IR Inten    --     39.2883                 1.3155                66.8136

                    106                    107                    108
                      A                      A                      A
 Frequencies --   3102.8868              3111.8978              3113.1865
 Red. masses --      1.1017                 1.1016                 1.1019
 Frc consts  --      6.2497                 6.2850                 6.2923
 IR Inten    --     36.8344                20.7453                15.6947

                    109                    110                    111
                      A                      A                      A
 Frequencies --   3118.5397              3119.3664              3121.4166
 Red. masses --      1.1014                 1.1011                 1.0993
 Frc consts  --      6.3111                 6.3125                 6.3107
 IR Inten    --     81.4631                20.8756                21.8969

                    112                    113                    114
                      A                      A                      A
 Frequencies --   3127.7674              3129.0232              3131.8299
 Red. masses --      1.1020                 1.1022                 1.1021
 Frc consts  --      6.3518                 6.3581                 6.3691
 IR Inten    --     25.0415                39.5246                25.3920

                    115                    116                    117
                      A                      A                      A
 Frequencies --   3144.4075              3151.8037              3194.2465
 Red. masses --      1.0995                 1.0978                 1.0885
 Frc consts  --      6.4052                 6.4255                 6.5437
 IR Inten    --     24.2261                 8.9878                 9.8583

 - Thermochemistry -
 -------------------
 Temperature   298.150 Kelvin.  Pressure   1.00000 Atm.
 Atom     1 has atomic number  6 and mass  12.00000

 Molecular mass:   227.18853 amu.
 Principal axes and moments of inertia in atomic units:
                           1         2         3
     Eigenvalues --  3096.278824727.539946822.31610
           X            0.99960  -0.02308  -0.01611
           Y            0.02291   0.99968  -0.01086
           Z            0.01636   0.01048   0.99981
 This molecule is an asymmetric top.
 Rotational symmetry number  1.
 Warning -- assumption of classical behavior for rotation
           may cause significant error
 Rotational temperatures (Kelvin)      0.02797     0.01832     0.01270
 Rotational constants (GHZ):           0.58287     0.38175     0.26453
 Zero-point vibrational energy     981289.3 (Joules/Mol)
                                  234.53377 (Kcal/Mol)
 Warning -- explicit consideration of  27 degrees of freedom as
           vibrations may cause significant error
 Vibrational temperatures:     45.09    58.89    67.26    96.03   106.00
          (Kelvin)            124.09   136.43   146.74   267.72   290.93
                              298.82   326.80   331.88   347.52   358.46
                              384.97   407.68   449.95   458.88   519.88
                              551.30   577.30   621.22   660.11   729.08
                              781.70   864.02   924.17   979.03  1065.62
                             1082.55  1189.01  1220.33  1268.22  1279.65
                             1293.61  1314.09  1347.36  1358.35  1366.61
                             1378.90  1380.77  1410.01  1418.49  1424.46
                             1455.50  1490.20  1586.21  1608.69  1621.72
                             1636.57  1652.11  1666.49  1714.82  1729.15
                             1739.33  1741.26  1767.45  1804.81  1824.17
                             1853.85  1909.48  1923.51  1932.96  1941.66
                             1960.90  1963.41  1987.02  2002.46  2007.38
                             2032.53  2045.92  2055.47  2058.56  2064.32
                             2084.12  2088.08  2120.11  2166.15  2180.60
                             2183.44  2185.96  2188.96  2191.47  2199.29
                             2201.60  2207.84  2218.21  2222.06  2227.92
                             2247.21  2498.43  4325.03  4340.21  4353.61
                             4373.30  4391.21  4391.82  4393.34  4396.52
                             4411.18  4414.76  4430.00  4435.61  4438.46
                             4464.36  4477.33  4479.18  4486.88  4488.07
                             4491.02  4500.16  4501.97  4506.00  4524.10
                             4534.74  4595.81

 Zero-point correction=                           0.373753 (Hartree/Particle)
 Thermal correction to Energy=                    0.392139
 Thermal correction to Enthalpy=                  0.393083
 Thermal correction to Gibbs Free Energy=         0.326455
 Sum of electronic and zero-point Energies=           -715.345788
 Sum of electronic and thermal Energies=              -715.327403
 Sum of electronic and thermal Enthalpies=            -715.326458
 Sum of electronic and thermal Free Energies=         -715.393086

                     E (Thermal)             CV                S
                      KCal/Mol        Cal/Mol-Kelvin    Cal/Mol-Kelvin
 Total                  246.071             68.098            140.230
 Electronic               0.000              0.000              0.000
 Translational            0.889              2.981             42.164
 Rotational               0.889              2.981             32.968
 Vibrational            244.293             62.136             65.098
 Vibration     1          0.594              1.983              5.743
 Vibration     2          0.594              1.981              5.214
 Vibration     3          0.595              1.979              4.950
 Vibration     4          0.598              1.970              4.247
 Vibration     5          0.599              1.966              4.053
 Vibration     6          0.601              1.959              3.743
 Vibration     7          0.603              1.953              3.558
 Vibration     8          0.604              1.948              3.416
 Vibration     9          0.632              1.859              2.267
 Vibration    10          0.639              1.837              2.113
 Vibration    11          0.641              1.829              2.064
 Vibration    12          0.651              1.800              1.901
 Vibration    13          0.652              1.794              1.874
 Vibration    14          0.658              1.777              1.792
 Vibration    15          0.662              1.764              1.737
 Vibration    16          0.673              1.733              1.612
 Vibration    17          0.682              1.705              1.513
 Vibration    18          0.701              1.649              1.348
 Vibration    19          0.705              1.637              1.316
 Vibration    20          0.736              1.552              1.116
 Vibration    21          0.752              1.506              1.027
 Vibration    22          0.767              1.467              0.958
 Vibration    23          0.793              1.401              0.853
 Vibration    24          0.817              1.341              0.770
 Vibration    25          0.862              1.235              0.641
 Vibration    26          0.898              1.154              0.558
 Vibration    27          0.959              1.031              0.449

                           ! Non-Optimized Parameters !
 Normal termination of Gaussian 16 at Fri Dec 11 01:33:59 2020.

 ----------------------------------------------------------------------
 # B3LYP/6-311++G(d,p) empiricaldispersion=gd3bj scf=xqc pop=npa geom=c
 heck
 ----------------------------------------------------------------------

 ---------------------------------------
 CID_138766053_JID_6952_Energie_neutraal
 ---------------------------------------
 Structure from the checkpoint file:  "JID_6952.chk"
 Charge =  0 Multiplicity = 1

 SCF Done:  E(RB3LYP) =  -715.922759215     A.U. after   15 cycles
 Normal termination of Gaussian 16 at Fri Dec 11 01:41:29 2020.

 ----------------------------------------------------------------------
 # B3LYP/6-311++G(d,p) empiricaldispersion=gd3bj scf=xqc pop=npa geom=c
 heck
 ----------------------------------------------------------------------

 -------------------------------------
 CID_138766053_JID_6952_Energie_kation
 -------------------------------------
 Structure from the checkpoint file:  "JID_6952.chk"
 Charge =  1 Multiplicity = 2

 SCF Done:  E(UB3LYP) =  -715.619423876     A.U. after   24 cycles
 Normal termination of Gaussian 16 at Fri Dec 11 01:57:15 2020.
 Gaussian 16:  ES64L-G16RevA.03 25-Dec-2016

 ----------------------------------------------------------------------
 # B3LYP/6-311++G(d,p) empiricaldispersion=gd3bj scf=xqc pop=npa geom=c
 heck
 ----------------------------------------------------------------------

 ------------------------------------
 CID_138766053_JID_6952_Energie_anion
 ------------------------------------
 Structure from the checkpoint file:  "JID_6952.chk"
 Charge = -1 Multiplicity = 2

                         Standard orientation:
 ---------------------------------------------------------------------
 Center     Atomic      Atomic             Coordinates (Angstroms)
 Number     Number       Type             X           Y           Z
 ---------------------------------------------------------------------
      1          6           0        3.243695   -1.027354   -0.920703
      2          6           0        2.071111   -1.912276   -0.486560
      3          6           0        2.554908   -3.278088    0.014820
      4          6           0        1.222653   -1.244779    0.610412
      5          7           0        0.676516    0.059710    0.226643
      6          6           0       -0.498983    0.052635   -0.628952
      7          6           0       -1.825804   -0.099083    0.126358
      8          6           0       -2.228863   -1.511851    0.562326
      9          6           0       -3.760123   -1.412472    0.567151
     10          6           0       -4.018729   -0.501116   -0.638638
     11          8           0       -2.858945    0.330080   -0.772595
     12          6           0        1.319334    1.185999    0.694761
     13          8           0        2.289855    1.087563    1.444521
     14          6           0        0.893252    2.597980    0.246868
     15          6           0        1.303306    2.880340   -1.210241
     16          6           0       -0.552213    3.026495    0.552052
     17          1           0        3.893142   -0.795091   -0.070172
     18          1           0        2.891005   -0.077517   -1.334614
     19          1           0        3.842740   -1.528733   -1.689665
     20          1           0        1.428785   -2.083954   -1.363937
     21          1           0        3.209123   -3.160656    0.887729
     22          1           0        1.715690   -3.920201    0.309176
     23          1           0        3.124178   -3.802889   -0.760217
     24          1           0        0.392647   -1.906422    0.879970
     25          1           0        1.832785   -1.084468    1.500485
     26          1           0       -0.550058    0.973319   -1.204088
     27          1           0       -0.404432   -0.760485   -1.357879
     28          1           0       -1.806544    0.565500    1.002663
     29          1           0       -1.894730   -2.245999   -0.181942
     30          1           0       -1.810956   -1.791914    1.532889
     31          1           0       -4.260281   -2.381574    0.481712
     32          1           0       -4.104590   -0.933785    1.490902
     33          1           0       -4.147793   -1.084290   -1.561466
     34          1           0       -4.900649    0.136872   -0.512316
     35          1           0        1.541236    3.213842    0.877233
     36          1           0        0.695854    2.334199   -1.938917
     37          1           0        1.190264    3.948877   -1.425991
     38          1           0        2.352126    2.611538   -1.374563
     39          1           0       -0.829580    2.772386    1.581018
     40          1           0       -0.628155    4.115287    0.450468
     41          1           0       -1.295960    2.588471   -0.118319
 ---------------------------------------------------------------------

 SCF Done:  E(UB3LYP) =  -715.910558450     A.U. after   33 cycles
 SCF Done:  E(UB3LYP) =  -715.910558450     a.u. after    1 cycles

 The electronic state is 2-A.
 Alpha  occ. eigenvalues --  -19.02808 -18.99114 -14.25025 -10.17708 -10.12919
 Alpha  occ. eigenvalues --  -10.11857 -10.11413 -10.10249 -10.09868 -10.08449
 Alpha  occ. eigenvalues --  -10.08281 -10.07838 -10.07705 -10.07593 -10.06850
 Alpha  occ. eigenvalues --  -10.06383  -0.94581  -0.94310  -0.84375  -0.72078
 Alpha  occ. eigenvalues --   -0.70706  -0.69329  -0.67355  -0.60795  -0.60716
 Alpha  occ. eigenvalues --   -0.59455  -0.59041  -0.53088  -0.50862  -0.49186
 Alpha  occ. eigenvalues --   -0.48053  -0.45373  -0.42256  -0.39915  -0.39316
 Alpha  occ. eigenvalues --   -0.38475  -0.37188  -0.37065  -0.35492  -0.34338
 Alpha  occ. eigenvalues --   -0.34201  -0.33737  -0.33555  -0.31861  -0.30728
 Alpha  occ. eigenvalues --   -0.30587  -0.30083  -0.29432  -0.28517  -0.28367
 Alpha  occ. eigenvalues --   -0.28104  -0.26542  -0.26218  -0.25605  -0.25288
 Alpha  occ. eigenvalues --   -0.24586  -0.24362  -0.23912  -0.23581  -0.22893
 Alpha  occ. eigenvalues --   -0.16572  -0.16019  -0.14849   0.04136
 Alpha virt. eigenvalues --    0.05926   0.06222   0.07248   0.07854   0.08189
 Alpha virt. eigenvalues --    0.08643   0.08970   0.09334   0.09890   0.10316
 Alpha virt. eigenvalues --    0.10732   0.10933   0.11051   0.11370   0.12006

  Beta  occ. eigenvalues --  -19.02808 -18.99111 -14.25024 -10.17706 -10.12914
  Beta  occ. eigenvalues --  -10.11832 -10.11402 -10.10242 -10.09865 -10.08440
  Beta  occ. eigenvalues --  -10.08264 -10.07825 -10.07676 -10.07559 -10.06825
  Beta  occ. eigenvalues --  -10.06371  -0.94575  -0.94304  -0.84367  -0.72062
  Beta  occ. eigenvalues --   -0.70688  -0.69289  -0.67325  -0.60767  -0.60686
  Beta  occ. eigenvalues --   -0.59418  -0.59006  -0.53061  -0.50784  -0.49136
  Beta  occ. eigenvalues --   -0.48016  -0.45348  -0.42235  -0.39862  -0.39295
  Beta  occ. eigenvalues --   -0.38451  -0.37159  -0.37035  -0.35472  -0.34309
  Beta  occ. eigenvalues --   -0.34173  -0.33717  -0.33537  -0.31826  -0.30708
  Beta  occ. eigenvalues --   -0.30558  -0.30059  -0.29410  -0.28499  -0.28348
  Beta  occ. eigenvalues --   -0.28089  -0.26512  -0.26177  -0.25580  -0.25262
  Beta  occ. eigenvalues --   -0.24552  -0.24336  -0.23880  -0.23554  -0.22871
  Beta  occ. eigenvalues --   -0.16557  -0.16013  -0.14840
  Beta virt. eigenvalues --    0.06004   0.06685   0.06934   0.07710   0.08419
  Beta virt. eigenvalues --    0.08580   0.09026   0.09201   0.09575   0.10057
  Beta virt. eigenvalues --    0.10696   0.11039   0.11184   0.11286   0.11667

 Mulliken charges and spin densities:
               1          2
     1  C   -0.140698  -0.422569
     2  C   -0.511385   1.233761
     3  C    0.443818  -1.147170
     4  C   -0.135487  -0.717231
     5  N    0.381880   0.095230
     6  C    0.771063  -1.237412
     7  C   -2.091800   1.747793
     8  C    0.886746  -1.087901
     9  C   -0.263629  -0.205151
    10  C    1.144256  -1.337255
    11  O   -0.077976   0.016146
    12  C    0.093239  -0.274037
    13  O   -0.281896   0.010281
    14  C   -0.783304   0.894571
    15  C    0.125376  -0.640044
    16  C   -0.047651  -0.541329
    17  H    0.143421   0.019105
    18  H    0.227786  -0.090241
    19  H   -0.120976   0.264433
    20  H   -0.232570   0.368060
    21  H    0.069787   0.057963
    22  H   -0.396890   0.535894
    23  H   -0.121721   0.266172
    24  H    0.730693  -0.578824
    25  H    0.055185   0.162901
    26  H    0.243420  -0.030452
    27  H    0.026164   0.138967
    28  H    0.274040  -0.053633
    29  H   -0.120207   0.299394
    30  H   -0.359979   0.516180
    31  H   -0.608398   0.798247
    32  H   -0.108067   0.256155
    33  H   -0.233471   0.372133
    34  H   -0.152192   0.310575
    35  H    0.191140   0.037865
    36  H    0.009669   0.137898
    37  H   -0.054615   0.207125
    38  H    0.006831   0.143212
    39  H   -0.044318   0.189598
    40  H   -0.066719   0.227797
    41  H    0.129435   0.055792
 Sum of Mulliken charges =  -1.00000   1.00000

 Dipole moment (field-independent basis, Debye):
    X=              3.3196    Y=              4.5823    Z=              0.0368  Tot=              5.6585
 Quadrupole moment (field-independent basis, Debye-Ang):
   XX=           -179.6358   YY=           -167.6850   ZZ=           -138.5623
   XY=             -9.2179   XZ=             -1.8242   YZ=             -3.0071

 Summary of Natural Population Analysis:

                                       Natural Population
                Natural  -----------------------------------------------
    Atom  No    Charge         Core      Valence    Rydberg      Total
 -----------------------------------------------------------------------
      C    1   -0.28589      0.99965     2.27998    0.00626     3.28589
      C    2   -0.11819      0.99961     2.10994    0.00864     3.11819
      C    3   -0.28393      0.99965     2.27795    0.00633     3.28393
      C    4   -0.08767      0.99957     2.07680    0.01130     3.08767
      N    5   -0.25716      0.99963     2.74606    0.01147     3.75716
      C    6   -0.09174      0.99956     2.08032    0.01186     3.09174
      C    7    0.06351      0.99955     1.92316    0.01378     2.93649
      C    8   -0.20369      0.99962     2.19520    0.00887     3.20369
      C    9   -0.20264      0.99964     2.19522    0.00777     3.20264
      C   10   -0.00701      0.99960     1.99518    0.01224     3.00701
      O   11   -0.30858      0.99989     3.30054    0.00816     4.30858
      C   12    0.35377      0.99960     1.62351    0.02312     2.64623
      O   13   -0.33148      0.99988     3.32642    0.00518     4.33148
      C   14   -0.15130      0.99957     2.14231    0.00941     3.15130
      C   15   -0.28283      0.99964     2.27713    0.00606     3.28283
      C   16   -0.28835      0.99964     2.28262    0.00609     3.28835
      H   17    0.10210      0.00000     0.39713    0.00078     0.39790
      H   18    0.10010      0.00000     0.39899    0.00092     0.39990
      H   19    0.09683      0.00000     0.40246    0.00071     0.40317
      H   20    0.09227      0.00000     0.40552    0.00221     0.40773
      H   21    0.09536      0.00000     0.40374    0.00089     0.40464
      H   22    0.10204      0.00000     0.39682    0.00114     0.39796
      H   23    0.10016      0.00000     0.39897    0.00086     0.39984
      H   24    0.09815      0.00000     0.40002    0.00183     0.40185
      H   25    0.11303      0.00000     0.38568    0.00129     0.38697
      H   26    0.10592      0.00000     0.39204    0.00204     0.39408
      H   27    0.09983      0.00000     0.39821    0.00195     0.40017
      H   28    0.08192      0.00000     0.41616    0.00193     0.41808
      H   29    0.10078      0.00000     0.39718    0.00204     0.39922
      H   30    0.10707      0.00000     0.39166    0.00127     0.39293
      H   31    0.10845      0.00000     0.38898    0.00256     0.39155
      H   32    0.09700      0.00000     0.40155    0.00146     0.40300
      H   33    0.08249      0.00000     0.41577    0.00174     0.41751
      H   34    0.08600      0.00000     0.41267    0.00133     0.41400
      H   35    0.10842      0.00000     0.38975    0.00183     0.39158
      H   36    0.09708      0.00000     0.40201    0.00091     0.40292
      H   37    0.09985      0.00000     0.39934    0.00081     0.40015
      H   38    0.10312      0.00000     0.39603    0.00085     0.39688
      H   39    0.10221      0.00000     0.39675    0.00104     0.39779
      H   40    0.09963      0.00000     0.39955    0.00083     0.40037
      H   41    0.10338      0.00000     0.39519    0.00143     0.39662
 =======================================================================
   * Total *   -0.00000     15.99430    46.81450    0.19120    63.00000

 Normal termination of Gaussian 16 at Fri Dec 11 02:18:11 2020.
