 Gaussian 16, Revision A.03,

 -----------------------------------------------------------
 # opt freq B3LYP/6-31G(d) empiricaldispersion=gd3bj scf=xqc
 -----------------------------------------------------------

 -------------------------------
 CID_148135994_JID_3182_neutraal
 -------------------------------
 Symbolic Z-matrix:
 Charge =  0 Multiplicity = 1

 SCF Done:  E(RB3LYP) =  -551.981733503     A.U. after   14 cycles
 SCF Done:  E(RB3LYP) =  -551.986366388     A.U. after   12 cycles
 SCF Done:  E(RB3LYP) =  -551.987287701     A.U. after   12 cycles
 SCF Done:  E(RB3LYP) =  -551.987793789     A.U. after   12 cycles
 SCF Done:  E(RB3LYP) =  -551.987978875     A.U. after   11 cycles
 SCF Done:  E(RB3LYP) =  -551.988090036     A.U. after   11 cycles
 SCF Done:  E(RB3LYP) =  -551.988112535     A.U. after   10 cycles
 SCF Done:  E(RB3LYP) =  -551.988134854     A.U. after   10 cycles
 SCF Done:  E(RB3LYP) =  -551.988157029     A.U. after   10 cycles
 SCF Done:  E(RB3LYP) =  -551.988163223     A.U. after   10 cycles
 SCF Done:  E(RB3LYP) =  -551.988165506     A.U. after    9 cycles
 SCF Done:  E(RB3LYP) =  -551.988166568     A.U. after    8 cycles
 SCF Done:  E(RB3LYP) =  -551.988166872     A.U. after    7 cycles
 SCF Done:  E(RB3LYP) =  -551.988167060     A.U. after    7 cycles
 SCF Done:  E(RB3LYP) =  -551.988167106     A.U. after    7 cycles
 Optimization completed.
    -- Stationary point found.
 Normal termination of Gaussian 16 at Wed Dec  9 22:29:24 2020.

 --------------------------------------------------------------------
 #N Geom=AllCheck Guess=TCheck SCRF=Check GenChk RB3LYP/6-31G(d) Freq
 --------------------------------------------------------------------

 Structure from the checkpoint file:  "JID_3182.chk"
 -------------------------------
 CID_148135994_JID_3182_neutraal
 -------------------------------
 Charge =  0 Multiplicity = 1

 SCF Done:  E(RB3LYP) =  -551.988167106     A.U. after    1 cycles

  Exact polarizability: 212.558 -13.531 122.516   5.094  -0.446  52.330
 Approx polarizability: 312.555 -30.014 216.836   8.775   1.674  81.352

                      1                      2                      3
                      A                      A                      A
 Frequencies --     47.5396                85.1510               163.3193
 Red. masses --      3.0652                 4.4709                 3.6968
 Frc consts  --      0.0041                 0.0191                 0.0581
 IR Inten    --      0.4408                 0.9129                 4.3809

                      4                      5                      6
                      A                      A                      A
 Frequencies --    181.2490               220.1044               261.0830
 Red. masses --      4.5412                 1.0691                 3.7863
 Frc consts  --      0.0879                 0.0305                 0.1521
 IR Inten    --      5.4163                 0.1277                 7.5699

                      7                      8                      9
                      A                      A                      A
 Frequencies --    298.0806               302.7404               336.0457
 Red. masses --      1.6379                 1.7927                 3.9808
 Frc consts  --      0.0857                 0.0968                 0.2649
 IR Inten    --     32.9439                46.9984                 7.6957

                     10                     11                     12
                      A                      A                      A
 Frequencies --    348.4060               379.1451               434.5038
 Red. masses --      4.5743                 1.2640                 3.1756
 Frc consts  --      0.3271                 0.1071                 0.3532
 IR Inten    --     14.3066                90.3820                11.2484

                     13                     14                     15
                      A                      A                      A
 Frequencies --    448.2023               501.4185               505.8808
 Red. masses --      3.4249                 3.1225                 3.1046
 Frc consts  --      0.4054                 0.4626                 0.4681
 IR Inten    --      3.6711                16.3425                 4.1849

                     16                     17                     18
                      A                      A                      A
 Frequencies --    537.2952               596.0591               631.4745
 Red. masses --      3.4450                 4.3018                 2.1754
 Frc consts  --      0.5860                 0.9005                 0.5111
 IR Inten    --      1.6519                 6.9787                 2.9980

                     19                     20                     21
                      A                      A                      A
 Frequencies --    669.8236               714.6903               733.7082
 Red. masses --      2.4429                 5.4368                 1.5947
 Frc consts  --      0.6458                 1.6362                 0.5058
 IR Inten    --    183.6034                11.6400                 1.6661

                     22                     23                     24
                      A                      A                      A
 Frequencies --    750.6332               768.5652               777.8944
 Red. masses --      4.8116                 2.8489                 2.0134
 Frc consts  --      1.5973                 0.9915                 0.7178
 IR Inten    --     13.3401                18.4324               223.9176

                     25                     26                     27
                      A                      A                      A
 Frequencies --    841.9803               866.2488               880.1751
 Red. masses --      1.5149                 1.5160                 4.5712
 Frc consts  --      0.6327                 0.6703                 2.0865
 IR Inten    --     22.8955                24.8027                 4.6545

                     28                     29                     30
                      A                      A                      A
 Frequencies --    909.0675               931.0330               954.7791
 Red. masses --      1.3668                 3.0838                 1.2984
 Frc consts  --      0.6655                 1.5750                 0.6973
 IR Inten    --     36.3040                 0.1549                 0.5644

                     31                     32                     33
                      A                      A                      A
 Frequencies --    971.7158              1024.0199              1036.1802
 Red. masses --      2.3576                 4.1602                 1.3704
 Frc consts  --      1.3116                 2.5703                 0.8669
 IR Inten    --      1.6170                 1.8745                 0.4432

                     34                     35                     36
                      A                      A                      A
 Frequencies --   1085.0562              1120.8801              1142.5127
 Red. masses --      1.4855                 1.8572                 1.6327
 Frc consts  --      1.0304                 1.3747                 1.2557
 IR Inten    --      0.5259                 1.9055                12.0958

                     37                     38                     39
                      A                      A                      A
 Frequencies --   1163.2149              1230.9075              1271.1965
 Red. masses --      1.5469                 2.0554                 1.7816
 Frc consts  --      1.2332                 1.8348                 1.6962
 IR Inten    --      4.0756                 0.8122                 8.1854

                     40                     41                     42
                      A                      A                      A
 Frequencies --   1304.9154              1325.9858              1354.6911
 Red. masses --      3.1788                 2.3436                 2.2756
 Frc consts  --      3.1892                 2.4278                 2.4605
 IR Inten    --     24.5203                80.6586                12.7520

                     43                     44                     45
                      A                      A                      A
 Frequencies --   1383.6096              1438.2936              1467.0602
 Red. masses --      5.6950                 1.2623                 1.3333
 Frc consts  --      6.4235                 1.5385                 1.6907
 IR Inten    --     30.6810                10.1139                 4.3042

                     46                     47                     48
                      A                      A                      A
 Frequencies --   1490.3769              1508.4066              1512.6901
 Red. masses --      3.7959                 2.9911                 1.1471
 Frc consts  --      4.9678                 4.0097                 1.5465
 IR Inten    --     48.1517                84.4601                17.3921

                     49                     50                     51
                      A                      A                      A
 Frequencies --   1530.5798              1536.1233              1606.2991
 Red. masses --      1.0662                 2.9921                 3.3295
 Frc consts  --      1.4716                 4.1598                 5.0615
 IR Inten    --      3.7887                36.2302               204.1014

                     52                     53                     54
                      A                      A                      A
 Frequencies --   1630.2890              1678.4428              1705.7861
 Red. masses --      3.9385                 2.1193                 3.0332
 Frc consts  --      6.1676                 3.5177                 5.2001
 IR Inten    --     15.5405                75.2022               173.0461

                     55                     56                     57
                      A                      A                      A
 Frequencies --   1710.3257              3039.1976              3089.9954
 Red. masses --      4.7318                 1.0397                 1.0980
 Frc consts  --      8.1552                 5.6580                 6.1766
 IR Inten    --     46.3583                21.5317                24.0759

                     58                     59                     60
                      A                      A                      A
 Frequencies --   3133.0571              3171.5099              3204.1592
 Red. masses --      1.1004                 1.0600                 1.0870
 Frc consts  --      6.3644                 6.2821                 6.5753
 IR Inten    --     26.9843                 7.4291                 7.6667

                     61                     62                     63
                      A                      A                      A
 Frequencies --   3211.6247              3219.8694              3249.6581
 Red. masses --      1.0898                 1.0944                 1.1150
 Frc consts  --      6.6230                 6.6848                 6.9374
 IR Inten    --     12.1805                11.9387                18.5984

                     64                     65                     66
                      A                      A                      A
 Frequencies --   3532.1745              3634.9711              3652.8104
 Red. masses --      1.0490                 1.0961                 1.0797
 Frc consts  --      7.7108                 8.5330                 8.4880
 IR Inten    --     22.7578                27.8615                41.5646

 - Thermochemistry -
 -------------------
 Temperature   298.150 Kelvin.  Pressure   1.00000 Atm.
 Atom     1 has atomic number  6 and mass  12.00000

 Molecular mass:   173.09530 amu.
 Principal axes and moments of inertia in atomic units:
                           1         2         3
     Eigenvalues --   767.236574115.725464815.97136
           X            1.00000   0.00164   0.00116
           Y           -0.00163   0.99996  -0.00857
           Z           -0.00117   0.00857   0.99996
 This molecule is an asymmetric top.
 Rotational symmetry number  1.
 Warning -- assumption of classical behavior for rotation
           may cause significant error
 Rotational temperatures (Kelvin)      0.11289     0.02104     0.01798
 Rotational constants (GHZ):           2.35226     0.43850     0.37474
 Zero-point vibrational energy     517055.2 (Joules/Mol)
                                  123.57917 (Kcal/Mol)
 Warning -- explicit consideration of  17 degrees of freedom as
           vibrations may cause significant error
 Vibrational temperatures:     68.40   122.51   234.98   260.78   316.68
          (Kelvin)            375.64   428.87   435.58   483.49   501.28
                              545.51   625.15   644.86   721.43   727.85
                              773.05   857.60   908.55   963.73  1028.28
                             1055.64  1079.99  1105.79  1119.22  1211.42
                             1246.34  1266.38  1307.95  1339.55  1373.71
                             1398.08  1473.34  1490.83  1561.15  1612.70
                             1643.82  1673.61  1771.00  1828.97  1877.48
                             1907.80  1949.10  1990.71  2069.38  2110.77
                             2144.32  2170.26  2176.42  2202.16  2210.14
                             2311.11  2345.62  2414.90  2454.25  2460.78
                             4372.73  4445.81  4507.77  4563.10  4610.07
                             4620.81  4632.67  4675.53  5082.01  5229.91
                             5255.58

 Zero-point correction=                           0.196936 (Hartree/Particle)
 Thermal correction to Energy=                    0.208222
 Thermal correction to Enthalpy=                  0.209166
 Thermal correction to Gibbs Free Energy=         0.160009
 Sum of electronic and zero-point Energies=           -551.791231
 Sum of electronic and thermal Energies=              -551.779945
 Sum of electronic and thermal Enthalpies=            -551.779001
 Sum of electronic and thermal Free Energies=         -551.828158

                     E (Thermal)             CV                S
                      KCal/Mol        Cal/Mol-Kelvin    Cal/Mol-Kelvin
 Total                  130.661             45.024            103.460
 Electronic               0.000              0.000              0.000
 Translational            0.889              2.981             41.353
 Rotational               0.889              2.981             31.098
 Vibrational            128.884             39.062             31.009
 Vibration     1          0.595              1.979              4.917
 Vibration     2          0.601              1.959              3.768
 Vibration     3          0.623              1.887              2.511
 Vibration     4          0.630              1.865              2.316
 Vibration     5          0.647              1.810              1.958
 Vibration     6          0.669              1.744              1.655
 Vibration     7          0.691              1.677              1.428
 Vibration     8          0.694              1.669              1.402
 Vibration     9          0.717              1.604              1.231
 Vibration    10          0.726              1.579              1.173
 Vibration    11          0.749              1.515              1.043
 Vibration    12          0.795              1.395              0.844
 Vibration    13          0.807              1.365              0.801
 Vibration    14          0.857              1.247              0.655
 Vibration    15          0.861              1.237              0.644
 Vibration    16          0.892              1.168              0.571
 Vibration    17          0.954              1.040              0.456

 Optimization completed.
    -- Stationary point found.
 Normal termination of Gaussian 16 at Wed Dec  9 22:35:11 2020.

 ----------------------------------------------------------------------
 # B3LYP/6-311++G(d,p) empiricaldispersion=gd3bj scf=xqc pop=npa geom=c
 heck
 ----------------------------------------------------------------------

 ---------------------------------------
 CID_148135994_JID_3182_Energie_neutraal
 ---------------------------------------
 Structure from the checkpoint file:  "JID_3182.chk"
 Charge =  0 Multiplicity = 1

 SCF Done:  E(RB3LYP) =  -552.142266031     A.U. after   16 cycles
 Normal termination of Gaussian 16 at Wed Dec  9 22:37:59 2020.

 ----------------------------------------------------------------------
 # B3LYP/6-311++G(d,p) empiricaldispersion=gd3bj scf=xqc pop=npa geom=c
 heck
 ----------------------------------------------------------------------

 -------------------------------------
 CID_148135994_JID_3182_Energie_kation
 -------------------------------------
 Structure from the checkpoint file:  "JID_3182.chk"
 Charge =  1 Multiplicity = 2

 SCF Done:  E(UB3LYP) =  -551.875845717     A.U. after   23 cycles
 Normal termination of Gaussian 16 at Wed Dec  9 22:43:43 2020.
 Gaussian 16:  ES64L-G16RevA.03 25-Dec-2016

 ----------------------------------------------------------------------
 # B3LYP/6-311++G(d,p) empiricaldispersion=gd3bj scf=xqc pop=npa geom=c
 heck
 ----------------------------------------------------------------------

 ------------------------------------
 CID_148135994_JID_3182_Energie_anion
 ------------------------------------
 Structure from the checkpoint file:  "JID_3182.chk"
 Charge = -1 Multiplicity = 2

                         Standard orientation:
 ---------------------------------------------------------------------
 Center     Atomic      Atomic             Coordinates (Angstroms)
 Number     Number       Type             X           Y           Z
 ---------------------------------------------------------------------
      1          6           0       -3.381857   -1.632627    0.364561
      2          6           0       -3.000992   -0.229801   -0.050793
      3          6           0       -3.946456    0.629068   -0.462808
      4          6           0       -1.563971    0.137185    0.005217
      5          6           0       -0.573955   -0.857769   -0.081190
      6          6           0        0.754313   -0.458163   -0.050408
      7          6           0        1.152066    0.893510    0.080263
      8          6           0        0.167232    1.877683    0.195693
      9          6           0       -1.166603    1.487350    0.158497
     10          7           0        2.540508    0.998060    0.096035
     11          6           0        2.968121   -0.234468   -0.039747
     12          7           0        1.952878   -1.170524   -0.106476
     13          7           0        4.292429   -0.614887   -0.167310
     14          1           0       -4.468636   -1.746767    0.403206
     15          1           0       -2.969376   -1.883871    1.349182
     16          1           0       -2.998911   -2.379887   -0.342768
     17          1           0       -3.710561    1.626049   -0.820490
     18          1           0       -4.995455    0.347599   -0.469965
     19          1           0       -0.839773   -1.903872   -0.188147
     20          1           0        0.445711    2.918927    0.322845
     21          1           0       -1.935947    2.242213    0.280392
     22          1           0        2.061645   -2.127873   -0.405859
     23          1           0        4.556013   -1.423713    0.385759
     24          1           0        4.907191    0.170842    0.014385
 ---------------------------------------------------------------------

 SCF Done:  E(UB3LYP) =  -552.137387363     A.U. after   32 cycles

 The electronic state is 2-A.
 Alpha  occ. eigenvalues --  -14.24762 -14.21683 -14.18058 -10.16090 -10.09997
 Alpha  occ. eigenvalues --  -10.08507 -10.08378 -10.07242 -10.07140 -10.06681
 Alpha  occ. eigenvalues --  -10.06438 -10.06303 -10.05549  -0.91407  -0.80336
 Alpha  occ. eigenvalues --   -0.76848  -0.74459  -0.69555  -0.63778  -0.61545
 Alpha  occ. eigenvalues --   -0.58906  -0.51706  -0.51185  -0.50073  -0.45099
 Alpha  occ. eigenvalues --   -0.43878  -0.40599  -0.39151  -0.36425  -0.35213
 Alpha  occ. eigenvalues --   -0.34865  -0.33823  -0.33206  -0.32179  -0.30432
 Alpha  occ. eigenvalues --   -0.29760  -0.27508  -0.25609  -0.25218  -0.23884
 Alpha  occ. eigenvalues --   -0.20695  -0.19700  -0.17207  -0.15754  -0.12564
 Alpha  occ. eigenvalues --   -0.09684   0.04237
 Alpha virt. eigenvalues --    0.06346   0.06893   0.08038   0.08724   0.09475
 Alpha virt. eigenvalues --    0.09680   0.10481   0.11059   0.11564   0.12439
 Alpha virt. eigenvalues --    0.13003   0.13379   0.14119   0.14779   0.15099

  Beta  occ. eigenvalues --  -14.24705 -14.21587 -14.18066 -10.16047 -10.10010
  Beta  occ. eigenvalues --  -10.08466 -10.08343 -10.07234 -10.07105 -10.06629
  Beta  occ. eigenvalues --  -10.06436 -10.06302 -10.05493  -0.91345  -0.80219
  Beta  occ. eigenvalues --   -0.76785  -0.74375  -0.69478  -0.63708  -0.61475
  Beta  occ. eigenvalues --   -0.58825  -0.51613  -0.51062  -0.49980  -0.45016
  Beta  occ. eigenvalues --   -0.43750  -0.40526  -0.39073  -0.36336  -0.35159
  Beta  occ. eigenvalues --   -0.34804  -0.33723  -0.33150  -0.32117  -0.30393
  Beta  occ. eigenvalues --   -0.29729  -0.27473  -0.25535  -0.25093  -0.23843
  Beta  occ. eigenvalues --   -0.20607  -0.19509  -0.17201  -0.15511  -0.12416
  Beta  occ. eigenvalues --   -0.09470
  Beta virt. eigenvalues --    0.06849   0.06944   0.08047   0.08416   0.09162
  Beta virt. eigenvalues --    0.09742   0.09972   0.10946   0.11330   0.12081
  Beta virt. eigenvalues --    0.12702   0.13089   0.13439   0.14387   0.14988

 Mulliken charges and spin densities:
               1          2
     1  C   -0.252939  -0.515519
     2  C    0.864828  -0.322556
     3  C   -0.859423   0.007834
     4  C    1.397974  -0.168806
     5  C   -0.612844  -0.081037
     6  C    1.263534  -0.901763
     7  C    0.726060  -0.676368
     8  C   -0.773072   0.175438
     9  C   -0.791337  -0.075716
    10  N   -0.060560  -0.142898
    11  C    0.086485   0.388568
    12  N   -0.201518  -0.030938
    13  N   -0.567354   0.248069
    14  H    0.124785   0.002543
    15  H    0.114336   0.033277
    16  H   -0.029555   0.194374
    17  H    0.100142   0.000863
    18  H    0.087964   0.002847
    19  H   -0.367356   0.505723
    20  H    0.121001   0.029963
    21  H    0.110842  -0.012822
    22  H   -0.551569   0.867212
    23  H   -0.768110   1.039381
    24  H   -0.162313   0.432333
 Sum of Mulliken charges =  -1.00000   1.00000

 Dipole moment (field-independent basis, Debye):
    X=             -8.5472    Y=              4.8964    Z=              0.2921  Tot=              9.8547
 Quadrupole moment (field-independent basis, Debye-Ang):
   XX=           -155.2871   YY=           -115.1323   ZZ=            -97.5463
   XY=             16.5609   XZ=             -5.6134   YZ=             -1.0954

 Summary of Natural Population Analysis:

                                       Natural Population
                Natural  -----------------------------------------------
    Atom  No    Charge         Core      Valence    Rydberg      Total
 -----------------------------------------------------------------------
      C    1   -0.29834      0.99963     2.29307    0.00564     3.29834
      C    2   -0.00142      0.99951     1.99136    0.01055     3.00142
      C    3   -0.19427      0.99953     2.18879    0.00595     3.19427
      C    4   -0.04185      0.99949     2.03228    0.01007     3.04185
      C    5   -0.10299      0.99949     2.09471    0.00879     3.10299
      C    6    0.06468      0.99945     1.92447    0.01140     2.93532
      C    7    0.06835      0.99945     1.91826    0.01393     2.93165
      C    8   -0.10832      0.99953     2.10068    0.00811     3.10832
      C    9   -0.09826      0.99949     2.09004    0.00874     3.09826
      N   10   -0.28976      0.99967     2.78081    0.00928     3.78976
      C   11    0.30303      0.99962     1.67890    0.01845     2.69697
      N   12   -0.29017      0.99963     2.78002    0.01052     3.79017
      N   13   -0.39902      0.99971     2.88909    0.01022     3.89902
      H   14    0.09824      0.00000     0.40100    0.00076     0.40176
      H   15    0.10270      0.00000     0.39638    0.00092     0.39730
      H   16    0.10488      0.00000     0.39392    0.00120     0.39512
      H   17    0.09168      0.00000     0.40738    0.00094     0.40832
      H   18    0.08712      0.00000     0.41192    0.00096     0.41288
      H   19    0.10390      0.00000     0.39445    0.00164     0.39610
      H   20    0.10030      0.00000     0.39856    0.00114     0.39970
      H   21    0.09656      0.00000     0.40220    0.00123     0.40344
      H   22    0.21138      0.00000     0.27583    0.01279     0.28862
      H   23    0.19916      0.00000     0.27232    0.02853     0.30084
      H   24    0.19240      0.00000     0.30495    0.00265     0.30760
 =======================================================================
   * Total *    0.00000     12.99420    32.82139    0.18441    46.00000

 Normal termination of Gaussian 16 at Wed Dec  9 22:51:34 2020.
