 Gaussian 16, Revision A.03,

 -----------------------------------------------------------
 # opt freq B3LYP/6-31G(d) empiricaldispersion=gd3bj scf=xqc
 -----------------------------------------------------------

 ------------------------------
 CID_21801740_JID_4170_neutraal
 ------------------------------
 Symbolic Z-matrix:
 Charge =  0 Multiplicity = 1

 SCF Done:  E(RB3LYP) =  -688.000749781     A.U. after   15 cycles
 SCF Done:  E(RB3LYP) =  -688.004413368     A.U. after   14 cycles
 SCF Done:  E(RB3LYP) =  -688.001495828     A.U. after   14 cycles
 SCF Done:  E(RB3LYP) =  -688.005868134     A.U. after   12 cycles
 SCF Done:  E(RB3LYP) =  -688.006018036     A.U. after   12 cycles
 SCF Done:  E(RB3LYP) =  -688.006167690     A.U. after   12 cycles
 SCF Done:  E(RB3LYP) =  -688.006434986     A.U. after   11 cycles
 SCF Done:  E(RB3LYP) =  -688.006464664     A.U. after   11 cycles
 SCF Done:  E(RB3LYP) =  -688.006480592     A.U. after   11 cycles
 SCF Done:  E(RB3LYP) =  -688.006494116     A.U. after   11 cycles
 SCF Done:  E(RB3LYP) =  -688.006506061     A.U. after   12 cycles
 SCF Done:  E(RB3LYP) =  -688.006509312     A.U. after   10 cycles
 SCF Done:  E(RB3LYP) =  -688.006510754     A.U. after   10 cycles
 SCF Done:  E(RB3LYP) =  -688.006511102     A.U. after    9 cycles
 SCF Done:  E(RB3LYP) =  -688.006511193     A.U. after    8 cycles
 Optimization completed.
    -- Stationary point found.
 Normal termination of Gaussian 16 at Thu Dec 10 09:18:15 2020.

 --------------------------------------------------------------------
 #N Geom=AllCheck Guess=TCheck SCRF=Check GenChk RB3LYP/6-31G(d) Freq
 --------------------------------------------------------------------

 Structure from the checkpoint file:  "JID_4170.chk"
 ------------------------------
 CID_21801740_JID_4170_neutraal
 ------------------------------
 Charge =  0 Multiplicity = 1

 SCF Done:  E(RB3LYP) =  -688.006511193     A.U. after    1 cycles

  Exact polarizability: 134.556  -2.058 121.568   1.673  -9.661  72.371
 Approx polarizability: 204.892   1.405 196.520   1.637 -24.404 108.821

                      1                      2                      3
                      A                      A                      A
 Frequencies --     33.2863                61.4357                68.1913
 Red. masses --      8.3557                 5.3779                 8.4760
 Frc consts  --      0.0055                 0.0120                 0.0232
 IR Inten    --      0.2905                 0.5451                 3.4101

                      4                      5                      6
                      A                      A                      A
 Frequencies --     87.6642                99.8586               149.9611
 Red. masses --      4.3183                 2.8818                 3.6854
 Frc consts  --      0.0196                 0.0169                 0.0488
 IR Inten    --      2.1029                 6.3239                 1.2408

                      7                      8                      9
                      A                      A                      A
 Frequencies --    160.4580               176.6137               190.0973
 Red. masses --      4.6358                 2.1253                 1.4652
 Frc consts  --      0.0703                 0.0391                 0.0312
 IR Inten    --      4.0783                 1.2624                 1.5077

                     10                     11                     12
                      A                      A                      A
 Frequencies --    247.3265               282.8836               337.1455
 Red. masses --      4.6596                 4.8105                 6.8800
 Frc consts  --      0.1679                 0.2268                 0.4608
 IR Inten    --      4.0189                 3.2168                 0.9048

                     13                     14                     15
                      A                      A                      A
 Frequencies --    363.7177               475.5120               504.4440
 Red. masses --      4.4282                 4.4469                 4.0999
 Frc consts  --      0.3451                 0.5924                 0.6147
 IR Inten    --      0.7805                 2.7494                23.1425

                     16                     17                     18
                      A                      A                      A
 Frequencies --    511.7692               540.3258               586.6074
 Red. masses --      4.6672                 3.5904                 3.3425
 Frc consts  --      0.7202                 0.6176                 0.6777
 IR Inten    --      0.3740                14.4690                26.1620

                     19                     20                     21
                      A                      A                      A
 Frequencies --    599.8966               632.7157               691.6606
 Red. masses --      2.9606                 2.2556                 3.2837
 Frc consts  --      0.6278                 0.5320                 0.9255
 IR Inten    --     46.1462                68.1532                51.4704

                     22                     23                     24
                      A                      A                      A
 Frequencies --    738.8750               760.9186               785.3184
 Red. masses --      3.8970                 2.3398                 1.7413
 Frc consts  --      1.2535                 0.7982                 0.6327
 IR Inten    --      1.7037                 6.1511                25.5213

                     25                     26                     27
                      A                      A                      A
 Frequencies --    810.0871               822.1897               885.8399
 Red. masses --      4.1301                 4.8508                 1.4808
 Frc consts  --      1.5969                 1.9320                 0.6846
 IR Inten    --      3.0153                15.0964                 2.1696

                     28                     29                     30
                      A                      A                      A
 Frequencies --    926.4614               952.9849               975.6802
 Red. masses --      3.6003                 1.4016                 2.2609
 Frc consts  --      1.8207                 0.7500                 1.2681
 IR Inten    --      2.1489                 1.7112                27.6976

                     31                     32                     33
                      A                      A                      A
 Frequencies --    985.6752              1040.5174              1054.5411
 Red. masses --      1.2612                 6.2256                 2.8776
 Frc consts  --      0.7220                 3.9713                 1.8854
 IR Inten    --      0.1373                76.9919                18.2595

                     34                     35                     36
                      A                      A                      A
 Frequencies --   1073.1725              1122.7478              1186.8081
 Red. masses --      2.0464                 2.3109                 1.2371
 Frc consts  --      1.3886                 1.7163                 1.0267
 IR Inten    --      9.0891                27.3975                16.5056

                     37                     38                     39
                      A                      A                      A
 Frequencies --   1193.7114              1201.4341              1208.1634
 Red. masses --      1.2552                 1.4072                 2.0279
 Frc consts  --      1.0538                 1.1967                 1.7440
 IR Inten    --      1.7530                47.4829               150.6476

                     40                     41                     42
                      A                      A                      A
 Frequencies --   1220.1845              1271.0948              1287.0429
 Red. masses --      1.4356                 2.4735                 3.0988
 Frc consts  --      1.2593                 2.3546                 3.0243
 IR Inten    --      8.4437                14.7740               114.7289

                     43                     44                     45
                      A                      A                      A
 Frequencies --   1314.4725              1327.7689              1360.4389
 Red. masses --      1.6034                 1.5390                 3.7106
 Frc consts  --      1.6323                 1.5986                 4.0462
 IR Inten    --      2.1360                16.0109                 7.2543

                     46                     47                     48
                      A                      A                      A
 Frequencies --   1380.0350              1433.1844              1490.6128
 Red. masses --      2.1744                 1.2851                 1.5244
 Frc consts  --      2.4399                 1.5552                 1.9957
 IR Inten    --     49.1883                 6.3218                18.6856

                     49                     50                     51
                      A                      A                      A
 Frequencies --   1508.2083              1522.6786              1537.3404
 Red. masses --      1.6418                 1.1004                 1.0921
 Frc consts  --      2.2004                 1.5032                 1.5208
 IR Inten    --      2.7198                 8.2267                15.2546

                     52                     53                     54
                      A                      A                      A
 Frequencies --   1544.1608              1639.0686              1660.7674
 Red. masses --      2.0577                 6.1989                 5.8654
 Frc consts  --      2.8907                 9.8120                 9.5316
 IR Inten    --     42.8226                 3.8382                 4.9635

                     55                     56                     57
                      A                      A                      A
 Frequencies --   1832.8737              1843.4008              2934.0571
 Red. masses --     10.5287                 9.6566                 1.0858
 Frc consts  --     20.8396                19.3336                 5.5074
 IR Inten    --    247.1596               274.4510                89.7044

                     58                     59                     60
                      A                      A                      A
 Frequencies --   3037.8428              3083.2518              3109.7807
 Red. masses --      1.0335                 1.0816                 1.1053
 Frc consts  --      5.6196                 6.0580                 6.2979
 IR Inten    --     50.4399                 9.9583                17.9632

                     61                     62                     63
                      A                      A                      A
 Frequencies --   3159.8865              3191.3064              3200.7501
 Red. masses --      1.1032                 1.0856                 1.0896
 Frc consts  --      6.4898                 6.5143                 6.5768
 IR Inten    --     26.9609                 0.4097                 9.5049

                     64                     65                     66
                      A                      A                      A
 Frequencies --   3210.9757              3218.2869              3689.1047
 Red. masses --      1.0932                 1.0975                 1.0641
 Frc consts  --      6.6408                 6.6972                 8.5322
 IR Inten    --     15.7156                13.0319                62.4234

 - Thermochemistry -
 -------------------
 Temperature   298.150 Kelvin.  Pressure   1.00000 Atm.
 Atom     1 has atomic number  6 and mass  12.00000

 Molecular mass:   194.05791 amu.
 Principal axes and moments of inertia in atomic units:
                           1         2         3
     Eigenvalues --  1893.424073147.214933971.86656
           X            0.99998   0.00501   0.00337
           Y           -0.00498   0.99995  -0.00918
           Z           -0.00342   0.00916   0.99995
 This molecule is an asymmetric top.
 Rotational symmetry number  1.
 Warning -- assumption of classical behavior for rotation
           may cause significant error
 Rotational temperatures (Kelvin)      0.04574     0.02752     0.02181
 Rotational constants (GHZ):           0.95316     0.57344     0.45438
 Zero-point vibrational energy     487689.2 (Joules/Mol)
                                  116.56052 (Kcal/Mol)
 Warning -- explicit consideration of  19 degrees of freedom as
           vibrations may cause significant error
 Vibrational temperatures:     47.89    88.39    98.11   126.13   143.67
          (Kelvin)            215.76   230.86   254.11   273.51   355.85
                              407.01   485.08   523.31   684.16   725.78
                              736.32   777.41   844.00   863.12   910.34
                              995.15  1063.08  1094.79  1129.90  1165.53
                             1182.95  1274.53  1332.97  1371.13  1403.79
                             1418.17  1497.07  1517.25  1544.06  1615.38
                             1707.55  1717.48  1728.60  1738.28  1755.57
                             1828.82  1851.77  1891.23  1910.36  1957.37
                             1985.56  2062.03  2144.66  2169.98  2190.79
                             2211.89  2221.70  2358.25  2389.47  2637.10
                             2652.24  4221.45  4370.78  4436.11  4474.28
                             4546.37  4591.58  4605.17  4619.88  4630.40
                             5307.80

 Zero-point correction=                           0.185751 (Hartree/Particle)
 Thermal correction to Energy=                    0.199057
 Thermal correction to Enthalpy=                  0.200001
 Thermal correction to Gibbs Free Energy=         0.144567
 Sum of electronic and zero-point Energies=           -687.820760
 Sum of electronic and thermal Energies=              -687.807454
 Sum of electronic and thermal Enthalpies=            -687.806510
 Sum of electronic and thermal Free Energies=         -687.861944

                     E (Thermal)             CV                S
                      KCal/Mol        Cal/Mol-Kelvin    Cal/Mol-Kelvin
 Total                  124.910             48.019            116.670
 Electronic               0.000              0.000              0.000
 Translational            0.889              2.981             41.694
 Rotational               0.889              2.981             31.537
 Vibrational            123.133             42.057             43.438
 Vibration     1          0.594              1.983              5.623
 Vibration     2          0.597              1.973              4.411
 Vibration     3          0.598              1.969              4.205
 Vibration     4          0.601              1.958              3.712
 Vibration     5          0.604              1.949              3.457
 Vibration     6          0.618              1.903              2.673
 Vibration     7          0.622              1.891              2.544
 Vibration     8          0.628              1.871              2.364
 Vibration     9          0.633              1.854              2.227
 Vibration    10          0.661              1.767              1.750
 Vibration    11          0.682              1.705              1.516
 Vibration    12          0.718              1.601              1.226
 Vibration    13          0.737              1.547              1.106
 Vibration    14          0.832              1.304              0.722
 Vibration    15          0.860              1.240              0.647
 Vibration    16          0.867              1.224              0.629
 Vibration    17          0.895              1.161              0.565
 Vibration    18          0.944              1.060              0.473
 Vibration    19          0.958              1.032              0.450

 Optimization completed.
    -- Stationary point found.
 Normal termination of Gaussian 16 at Thu Dec 10 09:24:37 2020.

 ----------------------------------------------------------------------
 # B3LYP/6-311++G(d,p) empiricaldispersion=gd3bj scf=xqc pop=npa geom=c
 heck
 ----------------------------------------------------------------------

 --------------------------------------
 CID_21801740_JID_4170_Energie_neutraal
 --------------------------------------
 Structure from the checkpoint file:  "JID_4170.chk"
 Charge =  0 Multiplicity = 1

 SCF Done:  E(RB3LYP) =  -688.211488355     A.U. after   16 cycles
 Normal termination of Gaussian 16 at Thu Dec 10 09:26:54 2020.

 ----------------------------------------------------------------------
 # B3LYP/6-311++G(d,p) empiricaldispersion=gd3bj scf=xqc pop=npa geom=c
 heck
 ----------------------------------------------------------------------

 ------------------------------------
 CID_21801740_JID_4170_Energie_kation
 ------------------------------------
 Structure from the checkpoint file:  "JID_4170.chk"
 Charge =  1 Multiplicity = 2

 SCF Done:  E(UB3LYP) =  -687.886398079     A.U. after   26 cycles
 Normal termination of Gaussian 16 at Thu Dec 10 09:32:00 2020.
 Gaussian 16:  ES64L-G16RevA.03 25-Dec-2016

 ----------------------------------------------------------------------
 # B3LYP/6-311++G(d,p) empiricaldispersion=gd3bj scf=xqc pop=npa geom=c
 heck
 ----------------------------------------------------------------------

 -----------------------------------
 CID_21801740_JID_4170_Energie_anion
 -----------------------------------
 Structure from the checkpoint file:  "JID_4170.chk"
 Charge = -1 Multiplicity = 2

                         Standard orientation:
 ---------------------------------------------------------------------
 Center     Atomic      Atomic             Coordinates (Angstroms)
 Number     Number       Type             X           Y           Z
 ---------------------------------------------------------------------
      1          6           0        1.172855    2.738759    0.069792
      2          8           0        1.318835    1.708982   -0.916730
      3          6           0        1.478612    0.443541   -0.395592
      4          6           0        2.763153   -0.023025   -0.111313
      5          6           0        2.943034   -1.317314    0.373017
      6          6           0        1.838624   -2.147127    0.575867
      7          6           0        0.557486   -1.679409    0.290187
      8          6           0        0.360327   -0.381641   -0.196073
      9          6           0       -1.025871    0.137289   -0.527441
     10          6           0       -1.785581   -0.832576   -1.429001
     11          8           0       -2.948839   -1.130020   -1.300875
     12          6           0       -1.815168    0.509646    0.718034
     13          8           0       -2.124765    1.638812    1.027268
     14          8           0       -2.105421   -0.567375    1.475860
     15          1           0        2.026508    2.740301    0.759218
     16          1           0        0.242635    2.613954    0.635937
     17          1           0        1.142865    3.682781   -0.477712
     18          1           0        3.606844    0.636786   -0.288070
     19          1           0        3.944573   -1.678336    0.588275
     20          1           0        1.974151   -3.156555    0.952028
     21          1           0       -0.305449   -2.316895    0.458792
     22          1           0       -0.902691    1.060718   -1.105001
     23          1           0       -1.165756   -1.238466   -2.256870
     24          1           0       -2.606991   -0.236337    2.244350
 ---------------------------------------------------------------------

 SCF Done:  E(UB3LYP) =  -688.206144898     A.U. after   33 cycles
 SCF Done:  E(UB3LYP) =  -688.206144898     a.u. after    1 cycles

 The electronic state is 2-A.
 Alpha  occ. eigenvalues --  -19.06506 -19.02908 -19.00797 -18.97709 -10.19701
 Alpha  occ. eigenvalues --  -10.11080 -10.10915 -10.10786 -10.07812 -10.07027
 Alpha  occ. eigenvalues --  -10.06197 -10.06044 -10.05822 -10.05603  -1.00583
 Alpha  occ. eigenvalues --   -0.94441  -0.91572  -0.91329  -0.74636  -0.68640
 Alpha  occ. eigenvalues --   -0.63890  -0.61314  -0.57608  -0.52935  -0.50107
 Alpha  occ. eigenvalues --   -0.47844  -0.45382  -0.41672  -0.38634  -0.38073
 Alpha  occ. eigenvalues --   -0.37410  -0.36618  -0.35090  -0.34727  -0.32705
 Alpha  occ. eigenvalues --   -0.32264  -0.31930  -0.30863  -0.29701  -0.28349
 Alpha  occ. eigenvalues --   -0.26885  -0.25970  -0.24195  -0.23831  -0.22861
 Alpha  occ. eigenvalues --   -0.22110  -0.18363  -0.16817  -0.14337  -0.13656
 Alpha  occ. eigenvalues --   -0.12255   0.04943
 Alpha virt. eigenvalues --    0.07199   0.07712   0.07899   0.08621   0.09276
 Alpha virt. eigenvalues --    0.10198   0.10474   0.10721   0.11066   0.11835
 Alpha virt. eigenvalues --    0.12958   0.13714   0.14021   0.14515   0.16208

  Beta  occ. eigenvalues --  -19.06492 -19.02915 -19.00768 -18.97376 -10.19638
  Beta  occ. eigenvalues --  -10.10798 -10.10747 -10.10733 -10.07844 -10.06968
  Beta  occ. eigenvalues --  -10.06202 -10.06068 -10.05710 -10.05532  -1.00524
  Beta  occ. eigenvalues --   -0.94392  -0.91506  -0.90711  -0.74496  -0.68448
  Beta  occ. eigenvalues --   -0.63742  -0.61149  -0.57506  -0.52691  -0.49871
  Beta  occ. eigenvalues --   -0.47605  -0.44971  -0.41575  -0.38553  -0.37968
  Beta  occ. eigenvalues --   -0.37304  -0.36397  -0.34963  -0.34591  -0.32572
  Beta  occ. eigenvalues --   -0.32159  -0.31692  -0.30526  -0.29519  -0.28125
  Beta  occ. eigenvalues --   -0.26714  -0.25295  -0.24086  -0.23203  -0.22228
  Beta  occ. eigenvalues --   -0.21962  -0.18297  -0.16778  -0.14008  -0.13249
  Beta  occ. eigenvalues --   -0.11890
  Beta virt. eigenvalues --    0.07413   0.08066   0.08274   0.08951   0.09514
  Beta virt. eigenvalues --    0.10011   0.10377   0.11034   0.11290   0.11954
  Beta virt. eigenvalues --    0.12311   0.13066   0.13657   0.14055   0.14482

 Mulliken charges and spin densities:
               1          2
     1  C    0.408031  -0.686899
     2  O   -0.171250   0.022746
     3  C   -1.904875   0.966137
     4  C    0.332996  -0.284488
     5  C    0.533474  -0.704189
     6  C   -0.200146  -0.218547
     7  C   -0.250156  -0.126235
     8  C    1.233143   0.225592
     9  C    0.882073  -0.658466
    10  C   -0.486340   0.255887
    11  O   -0.284849   0.108499
    12  C   -0.262946  -0.021351
    13  O   -0.278136   0.010151
    14  O   -0.168009   0.015734
    15  H   -0.163577   0.284680
    16  H    0.025600   0.139521
    17  H   -0.086394   0.228030
    18  H   -0.257925   0.440111
    19  H   -0.506283   0.649916
    20  H   -0.194599   0.332118
    21  H    0.191147   0.007473
    22  H    0.328062  -0.027386
    23  H    0.057536  -0.005396
    24  H    0.223423   0.046360
 Sum of Mulliken charges =  -1.00000   1.00000

 Dipole moment (field-independent basis, Debye):
    X=             -1.4996    Y=              0.3035    Z=              1.2191  Tot=              1.9563
 Quadrupole moment (field-independent basis, Debye-Ang):
   XX=           -139.0805   YY=           -115.3207   ZZ=            -98.2452
   XY=              1.7428   XZ=             -7.4642   YZ=             -2.3802

 Summary of Natural Population Analysis:

                                       Natural Population
                Natural  -----------------------------------------------
    Atom  No    Charge         Core      Valence    Rydberg      Total
 -----------------------------------------------------------------------
      C    1   -0.09741      0.99959     2.08910    0.00872     3.09741
      O    2   -0.29727      0.99986     3.28783    0.00958     4.29727
      C    3    0.17268      0.99930     1.81406    0.01395     2.82732
      C    4   -0.12640      0.99951     2.11668    0.01021     3.12640
      C    5   -0.08120      0.99957     2.07168    0.00996     3.08120
      C    6   -0.09954      0.99957     2.08964    0.01033     3.09954
      C    7   -0.09332      0.99952     2.08441    0.00939     3.09332
      C    8   -0.02956      0.99944     2.01809    0.01203     3.02956
      C    9   -0.21373      0.99949     2.20135    0.01289     3.21373
      C   10    0.26921      0.99974     1.70956    0.02149     2.73079
      O   11   -0.25387      0.99988     3.24722    0.00677     4.25387
      C   12    0.42964      0.99970     1.54415    0.02651     2.57036
      O   13   -0.31288      0.99987     3.30669    0.00633     4.31288
      O   14   -0.33991      0.99987     3.33336    0.00668     4.33991
      H   15    0.08115      0.00000     0.41749    0.00136     0.41885
      H   16    0.09112      0.00000     0.40747    0.00140     0.40888
      H   17    0.08763      0.00000     0.41126    0.00111     0.41237
      H   18    0.10364      0.00000     0.39501    0.00135     0.39636
      H   19    0.09800      0.00000     0.40053    0.00147     0.40200
      H   20    0.09724      0.00000     0.40187    0.00089     0.40276
      H   21    0.10610      0.00000     0.39270    0.00119     0.39390
      H   22    0.13079      0.00000     0.36723    0.00198     0.36921
      H   23    0.04260      0.00000     0.45537    0.00203     0.45740
      H   24    0.23528      0.00000     0.26102    0.00371     0.26472
 =======================================================================
   * Total *   -0.00000     13.99490    36.82377    0.18133    51.00000

 Normal termination of Gaussian 16 at Thu Dec 10 09:38:12 2020.
