 Gaussian 16, Revision A.03,

 -----------------------------------------------------------
 # opt freq B3LYP/6-31G(d) empiricaldispersion=gd3bj scf=xqc
 -----------------------------------------------------------

 ------------------------------
 CID_50972198_JID_6542_neutraal
 ------------------------------
 Symbolic Z-matrix:
 Charge =  0 Multiplicity = 1

 SCF Done:  E(RB3LYP) =  -708.209702069     A.U. after   14 cycles
 SCF Done:  E(RB3LYP) =  -708.214016947     A.U. after   12 cycles
 SCF Done:  E(RB3LYP) =  -708.214643802     A.U. after   11 cycles
 SCF Done:  E(RB3LYP) =  -708.214861567     A.U. after   12 cycles
 SCF Done:  E(RB3LYP) =  -708.215025725     A.U. after   11 cycles
 SCF Done:  E(RB3LYP) =  -708.215076655     A.U. after    9 cycles
 SCF Done:  E(RB3LYP) =  -708.215085387     A.U. after    9 cycles
 SCF Done:  E(RB3LYP) =  -708.215091600     A.U. after    9 cycles
 SCF Done:  E(RB3LYP) =  -708.215099479     A.U. after   10 cycles
 SCF Done:  E(RB3LYP) =  -708.215104198     A.U. after   10 cycles
 SCF Done:  E(RB3LYP) =  -708.215105237     A.U. after    8 cycles
 SCF Done:  E(RB3LYP) =  -708.215105449     A.U. after    7 cycles
 SCF Done:  E(RB3LYP) =  -708.215105455     A.U. after    7 cycles
 Optimization completed.
    -- Stationary point found.
 Normal termination of Gaussian 16 at Thu Dec 10 22:25:18 2020.

 --------------------------------------------------------------------
 #N Geom=AllCheck Guess=TCheck SCRF=Check GenChk RB3LYP/6-31G(d) Freq
 --------------------------------------------------------------------

 Structure from the checkpoint file:  "JID_6542.chk"
 ------------------------------
 CID_50972198_JID_6542_neutraal
 ------------------------------
 Charge =  0 Multiplicity = 1

 SCF Done:  E(RB3LYP) =  -708.215105455     A.U. after    1 cycles

  Exact polarizability: 177.610  -7.180 127.958   3.882   4.631 115.910
 Approx polarizability: 216.183  -9.047 203.321   6.776  17.648 178.573

                      1                      2                      3
                      A                      A                      A
 Frequencies --     12.1328                38.5052                67.9092
 Red. masses --      3.9707                 4.0395                 2.7170
 Frc consts  --      0.0003                 0.0035                 0.0074
 IR Inten    --      0.2308                 1.8117                 2.4044

                      4                      5                      6
                      A                      A                      A
 Frequencies --     74.5103                84.9438               120.1628
 Red. masses --      4.0253                 3.5132                 3.6862
 Frc consts  --      0.0132                 0.0149                 0.0314
 IR Inten    --      0.5686                 0.8715                 3.2331

                      7                      8                      9
                      A                      A                      A
 Frequencies --    173.6043               197.3607               214.7967
 Red. masses --      3.5220                 3.4589                 1.9418
 Frc consts  --      0.0625                 0.0794                 0.0528
 IR Inten    --      2.9773                 1.1118                 0.9900

                     10                     11                     12
                      A                      A                      A
 Frequencies --    244.9751               251.8947               302.0767
 Red. masses --      2.8709                 1.4549                 2.3532
 Frc consts  --      0.1015                 0.0544                 0.1265
 IR Inten    --      0.3860                 0.1984                 1.7855

                     13                     14                     15
                      A                      A                      A
 Frequencies --    323.1532               376.6400               399.6672
 Red. masses --      3.4012                 3.2825                 2.5091
 Frc consts  --      0.2093                 0.2744                 0.2361
 IR Inten    --      1.1755                 4.0926                 1.6576

                     16                     17                     18
                      A                      A                      A
 Frequencies --    424.2316               433.8215               453.4910
 Red. masses --      3.1632                 2.3902                 4.0667
 Frc consts  --      0.3354                 0.2650                 0.4928
 IR Inten    --      1.7948                 3.8484                 4.1180

                     19                     20                     21
                      A                      A                      A
 Frequencies --    470.9153               485.0717               530.7294
 Red. masses --      3.4324                 3.2506                 1.3405
 Frc consts  --      0.4485                 0.4506                 0.2225
 IR Inten    --      3.6992                 4.5862                60.6762

                     22                     23                     24
                      A                      A                      A
 Frequencies --    660.4162               697.0544               712.1396
 Red. masses --      2.7549                 3.2081                 2.9140
 Frc consts  --      0.7079                 0.9184                 0.8707
 IR Inten    --      5.5059                 0.7600                12.8785

                     25                     26                     27
                      A                      A                      A
 Frequencies --    755.0752               775.6751               781.7800
 Red. masses --      3.6698                 4.1512                 1.5538
 Frc consts  --      1.2327                 1.4716                 0.5595
 IR Inten    --      4.2273                 4.2013                 0.5715

                     28                     29                     30
                      A                      A                      A
 Frequencies --    805.6031               835.3128               845.7913
 Red. masses --      1.0873                 1.7062                 2.5742
 Frc consts  --      0.4157                 0.7014                 1.0850
 IR Inten    --      0.5675                 9.8997                 1.0461

                     31                     32                     33
                      A                      A                      A
 Frequencies --    868.9230               914.1363               923.0308
 Red. masses --      3.1982                 2.6788                 2.5558
 Frc consts  --      1.4227                 1.3189                 1.2829
 IR Inten    --      2.5130                 7.1819                12.6756

                     34                     35                     36
                      A                      A                      A
 Frequencies --    925.8259               928.6069               950.8639
 Red. masses --      2.8984                 3.3969                 1.3808
 Frc consts  --      1.4637                 1.7258                 0.7356
 IR Inten    --      0.4471                12.8735                 5.1403

                     37                     38                     39
                      A                      A                      A
 Frequencies --   1010.8854              1023.5512              1054.9990
 Red. masses --      2.6923                 5.1172                 1.8742
 Frc consts  --      1.6210                 3.1587                 1.2291
 IR Inten    --     16.8003                 9.7332                 9.6055

                     40                     41                     42
                      A                      A                      A
 Frequencies --   1070.3887              1077.7088              1091.1374
 Red. masses --      1.5341                 2.3558                 1.3508
 Frc consts  --      1.0356                 1.6121                 0.9476
 IR Inten    --     24.1286                 3.0708                 2.5790

                     43                     44                     45
                      A                      A                      A
 Frequencies --   1092.1368              1096.8984              1109.8584
 Red. masses --      1.7500                 2.3145                 2.4209
 Frc consts  --      1.2299                 1.6407                 1.7569
 IR Inten    --      5.0895                32.4341                38.7835

                     46                     47                     48
                      A                      A                      A
 Frequencies --   1116.7141              1139.2662              1149.8228
 Red. masses --      1.4473                 1.0966                 3.9460
 Frc consts  --      1.0634                 0.8386                 3.0738
 IR Inten    --      1.0254                 1.5873                25.6448

                     49                     50                     51
                      A                      A                      A
 Frequencies --   1172.3069              1177.8500              1188.2433
 Red. masses --      1.7303                 1.9646                 1.5567
 Frc consts  --      1.4010                 1.6058                 1.2950
 IR Inten    --     13.5088                34.2277                25.0922

                     52                     53                     54
                      A                      A                      A
 Frequencies --   1218.1840              1218.7854              1232.1262
 Red. masses --      1.4303                 1.3721                 2.1194
 Frc consts  --      1.2505                 1.2008                 1.8957
 IR Inten    --      6.1687                 0.3844                 2.9741

                     55                     56                     57
                      A                      A                      A
 Frequencies --   1237.2926              1274.5091              1288.5881
 Red. masses --      1.4813                 1.4750                 2.3019
 Frc consts  --      1.3361                 1.4116                 2.2520
 IR Inten    --     14.5513                29.5168                11.6418

                     58                     59                     60
                      A                      A                      A
 Frequencies --   1306.0924              1340.1454              1345.0472
 Red. masses --      1.3020                 1.3229                 1.3583
 Frc consts  --      1.3086                 1.3999                 1.4478
 IR Inten    --      4.5891                 7.7223                17.0237

                     61                     62                     63
                      A                      A                      A
 Frequencies --   1364.0928              1373.4463              1382.7250
 Red. masses --      1.7511                 1.5351                 1.3891
 Frc consts  --      1.9198                 1.7061                 1.5648
 IR Inten    --     33.8263                 1.2501                 3.0766

                     64                     65                     66
                      A                      A                      A
 Frequencies --   1399.5753              1401.9322              1409.5113
 Red. masses --      1.3998                 2.2724                 1.5981
 Frc consts  --      1.6155                 2.6314                 1.8706
 IR Inten    --      2.1090                25.7142                 0.2804

                     67                     68                     69
                      A                      A                      A
 Frequencies --   1417.6096              1437.3367              1470.9161
 Red. masses --      1.7099                 1.2401                 4.7464
 Frc consts  --      2.0246                 1.5094                 6.0505
 IR Inten    --      6.1399                12.4428                37.5891

                     70                     71                     72
                      A                      A                      A
 Frequencies --   1484.3667              1499.7397              1508.1722
 Red. masses --      1.0888                 1.1005                 1.1217
 Frc consts  --      1.4134                 1.4583                 1.5033
 IR Inten    --      1.5399                 4.8943                 2.8999

                     73                     74                     75
                      A                      A                      A
 Frequencies --   1509.5159              1520.3277              1520.9187
 Red. masses --      1.0905                 1.2886                 1.1059
 Frc consts  --      1.4640                 1.7548                 1.5073
 IR Inten    --      3.6162                10.9364                 2.1791

                     76                     77                     78
                      A                      A                      A
 Frequencies --   1528.4465              1542.9808              1544.4946
 Red. masses --      1.0745                 1.0592                 1.0899
 Frc consts  --      1.4790                 1.4858                 1.5319
 IR Inten    --      8.2423                12.1954                 3.1618

                     79                     80                     81
                      A                      A                      A
 Frequencies --   1569.6377              1592.9151              3012.8862
 Red. masses --      6.0244                 4.9404                 1.0508
 Frc consts  --      8.7451                 7.3858                 5.6202
 IR Inten    --     30.5204               100.8637                42.0358

                     82                     83                     84
                      A                      A                      A
 Frequencies --   3014.7337              3029.9379              3034.8144
 Red. masses --      1.0663                 1.0700                 1.0610
 Frc consts  --      5.7098                 5.7878                 5.7576
 IR Inten    --      6.2055                 9.6514                34.4337

                     85                     86                     87
                      A                      A                      A
 Frequencies --   3036.2276              3062.6579              3065.2395
 Red. masses --      1.0674                 1.1025                 1.0859
 Frc consts  --      5.7977                 6.0928                 6.0114
 IR Inten    --      4.0754                76.3159                46.5748

                     88                     89                     90
                      A                      A                      A
 Frequencies --   3072.9828              3078.6336              3090.2359
 Red. masses --      1.0690                 1.0957                 1.0922
 Frc consts  --      5.9478                 6.1189                 6.1453
 IR Inten    --      6.5506                51.7035                44.6167

                     91                     92                     93
                      A                      A                      A
 Frequencies --   3100.5642              3117.1797              3126.2611
 Red. masses --      1.0966                 1.1031                 1.0990
 Frc consts  --      6.2110                 6.3153                 6.3285
 IR Inten    --     34.0554                40.2115                31.7695

                     94                     95                     96
                      A                      A                      A
 Frequencies --   3152.6202              3155.2862              3196.8149
 Red. masses --      1.0505                 1.0581                 1.0904
 Frc consts  --      6.1515                 6.2068                 6.5653
 IR Inten    --     19.7753                14.1996                 5.7907

                     97                     98                     99
                      A                      A                      A
 Frequencies --   3234.4708              3247.9248              3668.2072
 Red. masses --      1.1198                 1.1163                 1.0812
 Frc consts  --      6.9025                 6.9378                 8.5716
 IR Inten    --      0.3150                18.4366                54.6058

 - Thermochemistry -
 -------------------
 Temperature   298.150 Kelvin.  Pressure   1.00000 Atm.
 Atom     1 has atomic number  6 and mass  12.00000

 Molecular mass:   221.15281 amu.
 Principal axes and moments of inertia in atomic units:
                           1         2         3
     Eigenvalues --  1385.622737738.411928102.11967
           X            0.99997  -0.00807  -0.00120
           Y            0.00804   0.99968  -0.02404
           Z            0.00140   0.02403   0.99971
 This molecule is an asymmetric top.
 Rotational symmetry number  1.
 Warning -- assumption of classical behavior for rotation
           may cause significant error
 Rotational temperatures (Kelvin)      0.06251     0.01119     0.01069
 Rotational constants (GHZ):           1.30248     0.23322     0.22275
 Zero-point vibrational energy     807896.2 (Joules/Mol)
                                  193.09184 (Kcal/Mol)
 Warning -- explicit consideration of  21 degrees of freedom as
           vibrations may cause significant error
 Vibrational temperatures:     17.46    55.40    97.71   107.20   122.22
          (Kelvin)            172.89   249.78   283.96   309.04   352.46
                              362.42   434.62   464.95   541.90   575.03
                              610.37   624.17   652.47   677.54   697.91
                              763.60   950.19  1002.91  1024.61  1086.38
                             1116.02  1124.81  1159.08  1201.83  1216.91
                             1250.19  1315.24  1328.04  1332.06  1336.06
                             1368.08  1454.44  1472.66  1517.91  1540.05
                             1550.58  1569.90  1571.34  1578.19  1596.84
                             1606.70  1639.15  1654.34  1686.69  1694.66
                             1709.62  1752.70  1753.56  1772.75  1780.19
                             1833.73  1853.99  1879.18  1928.17  1935.22
                             1962.63  1976.08  1989.43  2013.68  2017.07
                             2027.97  2039.62  2068.01  2116.32  2135.67
                             2157.79  2169.92  2171.86  2187.41  2188.26
                             2199.09  2220.01  2222.18  2258.36  2291.85
                             4334.87  4337.53  4359.40  4366.42  4368.45
                             4406.48  4410.20  4421.34  4429.47  4446.16
                             4461.02  4484.93  4497.99  4535.92  4539.75
                             4599.50  4653.68  4673.04  5277.73

 Zero-point correction=                           0.307711 (Hartree/Particle)
 Thermal correction to Energy=                    0.322739
 Thermal correction to Enthalpy=                  0.323683
 Thermal correction to Gibbs Free Energy=         0.263457
 Sum of electronic and zero-point Energies=           -707.907394
 Sum of electronic and thermal Energies=              -707.892366
 Sum of electronic and thermal Enthalpies=            -707.891422
 Sum of electronic and thermal Free Energies=         -707.951649

                     E (Thermal)             CV                S
                      KCal/Mol        Cal/Mol-Kelvin    Cal/Mol-Kelvin
 Total                  202.522             57.720            126.757
 Electronic               0.000              0.000              0.000
 Translational            0.889              2.981             42.084
 Rotational               0.889              2.981             32.829
 Vibrational            200.744             51.758             51.844
 Vibration     1          0.593              1.987              7.627
 Vibration     2          0.594              1.981              5.335
 Vibration     3          0.598              1.970              4.213
 Vibration     4          0.599              1.966              4.031
 Vibration     5          0.601              1.960              3.773
 Vibration     6          0.609              1.932              3.098
 Vibration     7          0.627              1.875              2.396
 Vibration     8          0.637              1.844              2.158
 Vibration     9          0.645              1.818              2.003
 Vibration    10          0.660              1.771              1.766
 Vibration    11          0.664              1.760              1.717
 Vibration    12          0.694              1.670              1.405
 Vibration    13          0.708              1.629              1.294
 Vibration    14          0.747              1.520              1.053
 Vibration    15          0.766              1.471              0.964
 Vibration    16          0.786              1.418              0.878
 Vibration    17          0.795              1.397              0.846
 Vibration    18          0.812              1.353              0.785
 Vibration    19          0.828              1.315              0.735
 Vibration    20          0.841              1.283              0.697
 Vibration    21          0.886              1.182              0.586

                           ! Non-Optimized Parameters !
 Normal termination of Gaussian 16 at Thu Dec 10 22:36:20 2020.

 ----------------------------------------------------------------------
 # B3LYP/6-311++G(d,p) empiricaldispersion=gd3bj scf=xqc pop=npa geom=c
 heck
 ----------------------------------------------------------------------

 --------------------------------------
 CID_50972198_JID_6542_Energie_neutraal
 --------------------------------------
 Structure from the checkpoint file:  "JID_6542.chk"
 Charge =  0 Multiplicity = 1

 SCF Done:  E(RB3LYP) =  -708.408657045     A.U. after   14 cycles
 Normal termination of Gaussian 16 at Thu Dec 10 22:41:58 2020.

 ----------------------------------------------------------------------
 # B3LYP/6-311++G(d,p) empiricaldispersion=gd3bj scf=xqc pop=npa geom=c
 heck
 ----------------------------------------------------------------------

 ------------------------------------
 CID_50972198_JID_6542_Energie_kation
 ------------------------------------
 Structure from the checkpoint file:  "JID_6542.chk"
 Charge =  1 Multiplicity = 2

 SCF Done:  E(UB3LYP) =  -708.101565937     A.U. after   26 cycles
 Normal termination of Gaussian 16 at Thu Dec 10 22:56:12 2020.
 Gaussian 16:  ES64L-G16RevA.03 25-Dec-2016

 ----------------------------------------------------------------------
 # B3LYP/6-311++G(d,p) empiricaldispersion=gd3bj scf=xqc pop=npa geom=c
 heck
 ----------------------------------------------------------------------

 -----------------------------------
 CID_50972198_JID_6542_Energie_anion
 -----------------------------------
 Structure from the checkpoint file:  "JID_6542.chk"
 Charge = -1 Multiplicity = 2

                         Standard orientation:
 ---------------------------------------------------------------------
 Center     Atomic      Atomic             Coordinates (Angstroms)
 Number     Number       Type             X           Y           Z
 ---------------------------------------------------------------------
      1          6           0       -3.588937   -0.388719    1.878362
      2          8           0       -4.296185   -0.338271    0.658073
      3          6           0       -3.582627   -0.433945   -0.579226
      4          6           0       -3.040499    0.926529   -1.059082
      5          6           0       -1.661683    1.313530   -0.507426
      6          6           0       -0.637964    0.194955   -0.754525
      7          6           0       -1.117946   -1.124527   -0.116315
      8          6           0       -2.503728   -1.531513   -0.638308
      9          6           0        0.740170    0.533342   -0.272124
     10          7           0        1.809877   -0.245114   -0.362721
     11          6           0        2.803395    0.491536    0.229365
     12          7           0        2.413400    1.678725    0.682099
     13          7           0        1.089376    1.682683    0.351822
     14          6           0        4.188930    0.011235    0.357286
     15          6           0        4.438135   -1.467324    0.585698
     16          6           0        4.773876   -0.854959   -0.741542
     17          1           0       -4.341447   -0.289701    2.665813
     18          1           0       -2.861819    0.427366    1.993872
     19          1           0       -3.065389   -1.343800    2.023401
     20          1           0       -4.379439   -0.720816   -1.274623
     21          1           0       -2.968153    0.884663   -2.155211
     22          1           0       -3.782819    1.695152   -0.819646
     23          1           0       -1.727345    1.516159    0.569275
     24          1           0       -1.330783    2.243984   -0.987721
     25          1           0       -0.567822    0.032758   -1.840710
     26          1           0       -1.123906   -0.999336    0.971821
     27          1           0       -0.387801   -1.909975   -0.333631
     28          1           0       -2.868126   -2.424225   -0.116856
     29          1           0       -2.398621   -1.815281   -1.694493
     30          1           0        0.521500    2.485428    0.576370
     31          1           0        4.851264    0.715647    0.849953
     32          1           0        5.247767   -1.742323    1.255621
     33          1           0        3.559156   -2.102174    0.637547
     34          1           0        4.119832   -1.080084   -1.578103
     35          1           0        5.818129   -0.702170   -0.998650
 ---------------------------------------------------------------------

 SCF Done:  E(UB3LYP) =  -708.397426917     A.U. after   33 cycles
 SCF Done:  E(UB3LYP) =  -708.397426917     a.u. after    1 cycles

 The electronic state is 2-A.
 Alpha  occ. eigenvalues --  -19.02155 -14.29223 -14.23766 -14.20380 -10.14730
 Alpha  occ. eigenvalues --  -10.13000 -10.12130 -10.11204 -10.10222 -10.09410
 Alpha  occ. eigenvalues --  -10.09300 -10.09271 -10.07393 -10.07318 -10.07293
 Alpha  occ. eigenvalues --  -10.06610  -0.97633  -0.93146  -0.80397  -0.78114
 Alpha  occ. eigenvalues --   -0.75308  -0.72139  -0.65967  -0.65276  -0.59511
 Alpha  occ. eigenvalues --   -0.57110  -0.54203  -0.52495  -0.52145  -0.50583
 Alpha  occ. eigenvalues --   -0.47418  -0.45892  -0.44030  -0.41324  -0.39621
 Alpha  occ. eigenvalues --   -0.38583  -0.37764  -0.37149  -0.36743  -0.35753
 Alpha  occ. eigenvalues --   -0.33126  -0.32564  -0.30846  -0.29957  -0.29716
 Alpha  occ. eigenvalues --   -0.28873  -0.28635  -0.28230  -0.25740  -0.25137
 Alpha  occ. eigenvalues --   -0.24322  -0.24273  -0.22718  -0.22487  -0.21928
 Alpha  occ. eigenvalues --   -0.19930  -0.18920  -0.18553  -0.15517  -0.15219
 Alpha  occ. eigenvalues --    0.04267
 Alpha virt. eigenvalues --    0.06017   0.06680   0.06999   0.08149   0.08286
 Alpha virt. eigenvalues --    0.08937   0.09290   0.09691   0.10241   0.10391
 Alpha virt. eigenvalues --    0.10708   0.10849   0.11911   0.12708   0.12761

  Beta  occ. eigenvalues --  -19.02152 -14.29184 -14.23760 -14.20375 -10.14725
  Beta  occ. eigenvalues --  -10.13002 -10.12125 -10.11173 -10.10221 -10.09399
  Beta  occ. eigenvalues --  -10.09296 -10.09267 -10.07383 -10.07274 -10.07270
  Beta  occ. eigenvalues --  -10.06583  -0.97611  -0.93138  -0.80374  -0.78105
  Beta  occ. eigenvalues --   -0.75274  -0.72103  -0.65928  -0.65225  -0.59462
  Beta  occ. eigenvalues --   -0.57083  -0.54154  -0.52414  -0.52130  -0.50540
  Beta  occ. eigenvalues --   -0.47399  -0.45837  -0.43988  -0.41303  -0.39566
  Beta  occ. eigenvalues --   -0.38550  -0.37745  -0.37117  -0.36711  -0.35725
  Beta  occ. eigenvalues --   -0.33089  -0.32532  -0.30805  -0.29933  -0.29683
  Beta  occ. eigenvalues --   -0.28865  -0.28588  -0.28201  -0.25689  -0.25108
  Beta  occ. eigenvalues --   -0.24295  -0.24249  -0.22676  -0.22471  -0.21894
  Beta  occ. eigenvalues --   -0.19903  -0.18901  -0.18545  -0.15498  -0.15200
  Beta virt. eigenvalues --    0.05967   0.06720   0.07518   0.07944   0.08253
  Beta virt. eigenvalues --    0.08440   0.09079   0.09722   0.10252   0.10604
  Beta virt. eigenvalues --    0.10739   0.10904   0.11217   0.12097   0.12712

 Mulliken charges and spin densities:
               1          2
     1  C    0.575891  -0.942986
     2  O   -0.122589   0.019793
     3  C   -1.225976   1.032058
     4  C    1.765735  -2.506429
     5  C    0.337182  -0.475340
     6  C   -0.946671   0.823287
     7  C   -0.277211   0.268473
     8  C    1.094433  -1.697963
     9  C    0.333908  -0.545760
    10  N   -0.027014   0.000458
    11  C    0.600451  -0.509575
    12  N   -0.084571   0.133574
    13  N   -0.142187  -0.111645
    14  C   -0.587216   0.679811
    15  C   -0.250998  -0.207693
    16  C   -0.271252  -0.200676
    17  H   -0.095120   0.247981
    18  H   -0.168331   0.318947
    19  H   -0.077512   0.204951
    20  H   -0.325718   0.556847
    21  H   -0.127377   0.264187
    22  H   -0.190709   0.417196
    23  H   -0.130932   0.258224
    24  H   -0.598051   0.792507
    25  H   -0.125119   0.347292
    26  H   -0.110058   0.279110
    27  H    0.342405  -0.143299
    28  H   -0.124029   0.328144
    29  H   -0.234991   0.379957
    30  H   -0.235377   0.583387
    31  H    0.121159   0.134633
    32  H    0.081356   0.050187
    33  H    0.055180   0.095832
    34  H    0.094068   0.070512
    35  H    0.077244   0.054018
 Sum of Mulliken charges =  -1.00000   1.00000

 Dipole moment (field-independent basis, Debye):
    X=              5.8256    Y=             -3.6052    Z=              0.8033  Tot=              6.8979
 Quadrupole moment (field-independent basis, Debye-Ang):
   XX=           -171.8244   YY=           -146.3243   ZZ=           -134.6390
   XY=             -0.6378   XZ=             -2.7323   YZ=             -1.7408

 Summary of Natural Population Analysis:

                                       Natural Population
                Natural  -----------------------------------------------
    Atom  No    Charge         Core      Valence    Rydberg      Total
 -----------------------------------------------------------------------
      C    1   -0.09606      0.99960     2.08786    0.00860     3.09606
      O    2   -0.30506      0.99988     3.29446    0.01071     4.30506
      C    3    0.07144      0.99952     1.91352    0.01551     2.92856
      C    4   -0.20013      0.99960     2.19054    0.00999     3.20013
      C    5   -0.19457      0.99962     2.18437    0.01058     3.19457
      C    6   -0.13142      0.99955     2.12087    0.01100     3.13142
      C    7   -0.18542      0.99961     2.17816    0.00766     3.18542
      C    8   -0.20776      0.99960     2.19907    0.00908     3.20776
      C    9    0.21026      0.99960     1.77263    0.01752     2.78974
      N   10   -0.27904      0.99968     2.77112    0.00824     3.77904
      C   11    0.17154      0.99961     1.80998    0.01887     2.82846
      N   12   -0.16840      0.99970     2.65644    0.01226     3.66840
      N   13   -0.17708      0.99964     2.66599    0.01145     3.67708
      C   14   -0.13054      0.99955     2.12074    0.01024     3.13054
      C   15   -0.19250      0.99963     2.18635    0.00651     3.19250
      C   16   -0.19264      0.99963     2.18648    0.00652     3.19264
      H   17    0.08868      0.00000     0.41008    0.00123     0.41132
      H   18    0.07851      0.00000     0.41974    0.00175     0.42149
      H   19    0.07653      0.00000     0.42184    0.00164     0.42347
      H   20    0.09298      0.00000     0.40529    0.00174     0.40702
      H   21    0.09992      0.00000     0.39838    0.00170     0.40008
      H   22    0.10764      0.00000     0.39089    0.00148     0.39236
      H   23    0.09577      0.00000     0.40160    0.00263     0.40423
      H   24    0.10610      0.00000     0.39064    0.00326     0.39390
      H   25    0.10848      0.00000     0.38961    0.00192     0.39152
      H   26    0.09641      0.00000     0.40185    0.00174     0.40359
      H   27    0.10808      0.00000     0.39073    0.00119     0.39192
      H   28    0.10461      0.00000     0.39437    0.00102     0.39539
      H   29    0.10396      0.00000     0.39466    0.00138     0.39604
      H   30    0.21009      0.00000     0.28462    0.00530     0.28991
      H   31    0.11204      0.00000     0.38695    0.00101     0.38796
      H   32    0.09841      0.00000     0.40056    0.00103     0.40159
      H   33    0.11039      0.00000     0.38844    0.00118     0.38961
      H   34    0.11042      0.00000     0.38842    0.00116     0.38958
      H   35    0.09836      0.00000     0.40063    0.00102     0.40164
 =======================================================================
   * Total *   -0.00000     15.99403    43.79786    0.20811    60.00000

 Normal termination of Gaussian 16 at Thu Dec 10 23:14:31 2020.
