 Gaussian 16, Revision A.03,

 -----------------------------------------------------------
 # opt freq B3LYP/6-31G(d) empiricaldispersion=gd3bj scf=xqc
 -----------------------------------------------------------

 ------------------------------
 CID_62845283_JID_8016_neutraal
 ------------------------------
 Symbolic Z-matrix:
 Charge =  0 Multiplicity = 1

 SCF Done:  E(RB3LYP) =  -1127.29340108     A.U. after   16 cycles
 SCF Done:  E(RB3LYP) =  -1127.31922317     A.U. after   14 cycles
 SCF Done:  E(RB3LYP) =  -1127.32082083     A.U. after   13 cycles
 SCF Done:  E(RB3LYP) =  -1127.32159484     A.U. after   13 cycles
 SCF Done:  E(RB3LYP) =  -1127.32145924     A.U. after   13 cycles
 SCF Done:  E(RB3LYP) =  -1127.32182813     A.U. after   13 cycles
 SCF Done:  E(RB3LYP) =  -1127.32194117     A.U. after   11 cycles
 SCF Done:  E(RB3LYP) =  -1127.32199803     A.U. after   10 cycles
 SCF Done:  E(RB3LYP) =  -1127.32203806     A.U. after   11 cycles
 SCF Done:  E(RB3LYP) =  -1127.32205512     A.U. after   10 cycles
 SCF Done:  E(RB3LYP) =  -1127.32208333     A.U. after   11 cycles
 SCF Done:  E(RB3LYP) =  -1127.32210196     A.U. after   11 cycles
 SCF Done:  E(RB3LYP) =  -1127.32210567     A.U. after    9 cycles
 SCF Done:  E(RB3LYP) =  -1127.32210655     A.U. after    8 cycles
 SCF Done:  E(RB3LYP) =  -1127.32210670     A.U. after    8 cycles
 Optimization completed.
    -- Stationary point found.
 Normal termination of Gaussian 16 at Fri Dec 11 18:41:05 2020.

 --------------------------------------------------------------------
 #N Geom=AllCheck Guess=TCheck SCRF=Check GenChk RB3LYP/6-31G(d) Freq
 --------------------------------------------------------------------

 Structure from the checkpoint file:  "JID_8016.chk"
 ------------------------------
 CID_62845283_JID_8016_neutraal
 ------------------------------
 Charge =  0 Multiplicity = 1

 SCF Done:  E(RB3LYP) =  -1127.32210670     A.U. after    1 cycles

  Exact polarizability: 199.771  -1.310 170.164  13.095 -10.669 131.557
 Approx polarizability: 277.783  -5.344 269.826  33.894 -30.679 214.362

                      1                      2                      3
                      A                      A                      A
 Frequencies --     26.9482                34.3988                38.9370
 Red. masses --      4.9281                 3.7588                 5.9310
 Frc consts  --      0.0021                 0.0026                 0.0053
 IR Inten    --      0.5469                 0.2122                 0.4906

                      4                      5                      6
                      A                      A                      A
 Frequencies --     58.4205                64.6894               109.3452
 Red. masses --      3.4775                 6.3439                 3.7995
 Frc consts  --      0.0070                 0.0156                 0.0268
 IR Inten    --      0.6182                 2.8802                 3.7787

                      7                      8                      9
                      A                      A                      A
 Frequencies --    125.6160               137.9334               148.7010
 Red. masses --      2.6541                 3.8718                 5.0360
 Frc consts  --      0.0247                 0.0434                 0.0656
 IR Inten    --      1.3939                 1.9085                 1.9466

                     10                     11                     12
                      A                      A                      A
 Frequencies --    159.2080               199.4275               232.0760
 Red. masses --      4.0734                 3.2825                 1.5425
 Frc consts  --      0.0608                 0.0769                 0.0489
 IR Inten    --      2.5653                 0.7018                 2.9938

                     13                     14                     15
                      A                      A                      A
 Frequencies --    259.8566               281.5329               295.6093
 Red. masses --      4.5721                 4.7262                 1.9248
 Frc consts  --      0.1819                 0.2207                 0.0991
 IR Inten    --      0.3906                 3.5488                 0.9255

                     16                     17                     18
                      A                      A                      A
 Frequencies --    305.9914               338.2206               362.0530
 Red. masses --      2.0138                 4.7944                 6.2489
 Frc consts  --      0.1111                 0.3231                 0.4826
 IR Inten    --      2.0919                 4.9538                 4.8908

                     19                     20                     21
                      A                      A                      A
 Frequencies --    429.0710               431.7039               464.6132
 Red. masses --      5.2087                 2.5349                 3.4376
 Frc consts  --      0.5650                 0.2783                 0.4372
 IR Inten    --      1.8500                 2.3994                 2.9791

                     22                     23                     24
                      A                      A                      A
 Frequencies --    472.6523               484.5221               503.7558
 Red. masses --      3.9691                 5.1639                 5.0091
 Frc consts  --      0.5224                 0.7143                 0.7489
 IR Inten    --      2.5807                 1.0930                 4.1142

                     25                     26                     27
                      A                      A                      A
 Frequencies --    563.7034               578.0110               608.6249
 Red. masses --      4.1384                 3.7854                 3.2825
 Frc consts  --      0.7748                 0.7451                 0.7164
 IR Inten    --      0.8546                10.1750                 7.3422

                     28                     29                     30
                      A                      A                      A
 Frequencies --    617.0957               669.5000               702.6758
 Red. masses --      1.3622                 2.7013                 2.0717
 Frc consts  --      0.3056                 0.7134                 0.6027
 IR Inten    --     71.9506                25.9958                28.9988

                     31                     32                     33
                      A                      A                      A
 Frequencies --    723.3417               730.8311               739.0855
 Red. masses --      3.3550                 4.9120                 1.9996
 Frc consts  --      1.0343                 1.5458                 0.6435
 IR Inten    --      4.3402                32.9033                 2.8637

                     34                     35                     36
                      A                      A                      A
 Frequencies --    760.7474               827.4746               847.7845
 Red. masses --      1.7427                 4.3326                 1.6808
 Frc consts  --      0.5942                 1.7479                 0.7118
 IR Inten    --     17.0909                 8.2544                 3.9605

                     37                     38                     39
                      A                      A                      A
 Frequencies --    873.4764               888.0116               889.7252
 Red. masses --      1.6230                 1.9179                 3.0917
 Frc consts  --      0.7296                 0.8911                 1.4420
 IR Inten    --      2.6964                 1.2714                12.9140

                     40                     41                     42
                      A                      A                      A
 Frequencies --    893.3223               911.7851               920.4968
 Red. masses --      1.6652                 2.3146                 1.9469
 Frc consts  --      0.7830                 1.1337                 0.9719
 IR Inten    --      1.7866                 1.7848                 7.2296

                     43                     44                     45
                      A                      A                      A
 Frequencies --    957.5571               976.2127              1018.4577
 Red. masses --      2.1117                 2.0257                 2.2013
 Frc consts  --      1.1408                 1.1374                 1.3453
 IR Inten    --      1.4670                 3.4972                 0.5437

                     46                     47                     48
                      A                      A                      A
 Frequencies --   1044.8588              1084.9497              1092.6395
 Red. masses --      2.5804                 2.5889                 1.9178
 Frc consts  --      1.6598                 1.7955                 1.3490
 IR Inten    --      0.5720                 0.7996                 0.8154

                     49                     50                     51
                      A                      A                      A
 Frequencies --   1105.4919              1111.2905              1121.9094
 Red. masses --      2.4625                 1.4119                 1.9999
 Frc consts  --      1.7731                 1.0273                 1.4831
 IR Inten    --      5.0409                 5.9133                 2.8421

                     52                     53                     54
                      A                      A                      A
 Frequencies --   1139.4137              1156.4783              1177.3078
 Red. masses --      2.2837                 1.7196                 1.9908
 Frc consts  --      1.7469                 1.3551                 1.6257
 IR Inten    --      6.5392                 1.6117                16.2366

                     55                     56                     57
                      A                      A                      A
 Frequencies --   1191.0941              1228.0415              1245.8153
 Red. masses --      1.6625                 1.5129                 1.3567
 Frc consts  --      1.3896                 1.3443                 1.2406
 IR Inten    --      0.2288                 6.9073                23.7616

                     58                     59                     60
                      A                      A                      A
 Frequencies --   1261.8958              1281.0495              1289.1175
 Red. masses --      1.5328                 1.2799                 1.2753
 Frc consts  --      1.4381                 1.2375                 1.2486
 IR Inten    --      8.3310                17.9860                11.6242

                     61                     62                     63
                      A                      A                      A
 Frequencies --   1323.1725              1342.0696              1355.5284
 Red. masses --      1.2338                 1.3581                 1.2362
 Frc consts  --      1.2727                 1.4412                 1.3383
 IR Inten    --      2.2431                11.4724                 2.8744

                     64                     65                     66
                      A                      A                      A
 Frequencies --   1368.9912              1382.7206              1383.5429
 Red. masses --      1.3209                 1.9416                 1.5057
 Frc consts  --      1.4585                 2.1872                 1.6982
 IR Inten    --     10.8067               150.1500                 1.1317

                     67                     68                     69
                      A                      A                      A
 Frequencies --   1392.0099              1397.9959              1402.1425
 Red. masses --      1.4417                 1.4563                 1.6878
 Frc consts  --      1.6459                 1.6769                 1.9550
 IR Inten    --      3.8073                39.4694                20.7610

                     70                     71                     72
                      A                      A                      A
 Frequencies --   1406.9100              1427.0513              1447.8869
 Red. masses --      1.4218                 3.2177                 1.2596
 Frc consts  --      1.6581                 3.8607                 1.5558
 IR Inten    --     14.9910                 3.6678                 4.3558

                     73                     74                     75
                      A                      A                      A
 Frequencies --   1501.7481              1505.8747              1512.8598
 Red. masses --      2.0818                 1.9407                 1.3133
 Frc consts  --      2.7662                 2.5929                 1.7709
 IR Inten    --     48.1785                32.8065                12.8680

                     76                     77                     78
                      A                      A                      A
 Frequencies --   1518.1616              1518.9966              1520.1100
 Red. masses --      1.0783                 1.2058                 1.0823
 Frc consts  --      1.4643                 1.6393                 1.4735
 IR Inten    --      0.9768                 7.1596                 1.0313

                     79                     80                     81
                      A                      A                      A
 Frequencies --   1527.4759              1533.1831              1539.6488
 Red. masses --      1.1125                 1.0658                 1.0517
 Frc consts  --      1.5293                 1.4761                 1.4688
 IR Inten    --      8.1585                 5.0782                 7.2715

                     82                     83                     84
                      A                      A                      A
 Frequencies --   1613.9990              1789.7152              2354.0860
 Red. masses --      6.4676                 8.2488                12.6459
 Frc consts  --      9.9266                15.5671                41.2900
 IR Inten    --      3.2449               480.3904                 9.7277

                     85                     86                     87
                      A                      A                      A
 Frequencies --   3024.3718              3039.5773              3047.5945
 Red. masses --      1.0687                 1.0697                 1.0520
 Frc consts  --      5.7592                 5.8227                 5.7567
 IR Inten    --     28.6915                12.8756                10.2534

                     88                     89                     90
                      A                      A                      A
 Frequencies --   3050.5023              3051.6205              3059.9862
 Red. masses --      1.0455                 1.0638                 1.0641
 Frc consts  --      5.7324                 5.8370                 5.8703
 IR Inten    --     28.2767                23.6832                11.2883

                     91                     92                     93
                      A                      A                      A
 Frequencies --   3075.1585              3082.1078              3098.1951
 Red. masses --      1.0919                 1.0989                 1.0927
 Frc consts  --      6.0836                 6.1501                 6.1799
 IR Inten    --     32.1583                11.1505                 6.1093

                     94                     95                     96
                      A                      A                      A
 Frequencies --   3099.6397              3109.4706              3114.2227
 Red. masses --      1.1018                 1.0841                 1.0935
 Frc consts  --      6.2369                 6.1760                 6.2482
 IR Inten    --     38.2335                15.6853                14.8435

                     97                     98                     99
                      A                      A                      A
 Frequencies --   3116.9075              3122.0180              3123.5032
 Red. masses --      1.1019                 1.0955                 1.1010
 Frc consts  --      6.3074                 6.2912                 6.3289
 IR Inten    --     40.8701                20.6456                35.8221

                    100                    101                    102
                      A                      A                      A
 Frequencies --   3224.4263              3272.8652              3573.2151
 Red. masses --      1.0905                 1.0970                 1.0754
 Frc consts  --      6.6799                 6.9232                 8.0895
 IR Inten    --      4.7440                 0.6562                21.1029

 - Thermochemistry -
 -------------------
 Temperature   298.150 Kelvin.  Pressure   1.00000 Atm.
 Atom     1 has atomic number  6 and mass  12.00000

 Molecular mass:   262.11399 amu.
 Principal axes and moments of inertia in atomic units:
                           1         2         3
     Eigenvalues --  3005.087607934.067368714.80620
           X            0.99929  -0.03447  -0.01540
           Y            0.03474   0.99923   0.01798
           Z            0.01477  -0.01851   0.99972
 This molecule is an asymmetric top.
 Rotational symmetry number  1.
 Warning -- assumption of classical behavior for rotation
           may cause significant error
 Rotational temperatures (Kelvin)      0.02882     0.01092     0.00994
 Rotational constants (GHZ):           0.60056     0.22747     0.20709
 Zero-point vibrational energy     792800.1 (Joules/Mol)
                                  189.48376 (Kcal/Mol)
 Warning -- explicit consideration of  28 degrees of freedom as
           vibrations may cause significant error
 Vibrational temperatures:     38.77    49.49    56.02    84.05    93.07
          (Kelvin)            157.32   180.73   198.46   213.95   229.06
                              286.93   333.91   373.88   405.06   425.32
                              440.25   486.62   520.91   617.34   621.13
                              668.47   680.04   697.12   724.79   811.04
                              831.63   875.68   887.86   963.26  1010.99
                             1040.73  1051.50  1063.38  1094.55  1190.55
                             1219.77  1256.74  1277.65  1280.12  1285.29
                             1311.86  1324.39  1377.71  1404.55  1465.33
                             1503.32  1561.00  1572.06  1590.56  1598.90
                             1614.18  1639.36  1663.91  1693.88  1713.72
                             1766.88  1792.45  1815.59  1843.14  1854.75
                             1903.75  1930.94  1950.30  1969.67  1989.43
                             1990.61  2002.79  2011.40  2017.37  2024.23
                             2053.21  2083.19  2160.68  2166.62  2176.67
                             2184.30  2185.50  2187.10  2197.70  2205.91
                             2215.21  2322.18  2575.00  3387.00  4351.40
                             4373.27  4384.81  4388.99  4390.60  4402.64
                             4424.47  4434.47  4457.61  4459.69  4473.83
                             4480.67  4484.53  4491.89  4494.02  4639.23
                             4708.92  5141.06

 Zero-point correction=                           0.301962 (Hartree/Particle)
 Thermal correction to Energy=                    0.319746
 Thermal correction to Enthalpy=                  0.320690
 Thermal correction to Gibbs Free Energy=         0.254440
 Sum of electronic and zero-point Energies=          -1127.020145
 Sum of electronic and thermal Energies=             -1127.002361
 Sum of electronic and thermal Enthalpies=           -1127.001416
 Sum of electronic and thermal Free Energies=        -1127.067667

                     E (Thermal)             CV                S
                      KCal/Mol        Cal/Mol-Kelvin    Cal/Mol-Kelvin
 Total                  200.644             66.861            139.436
 Electronic               0.000              0.000              0.000
 Translational            0.889              2.981             42.590
 Rotational               0.889              2.981             33.696
 Vibrational            198.866             60.899             63.150
 Vibration     1          0.593              1.984              6.042
 Vibration     2          0.594              1.983              5.558
 Vibration     3          0.594              1.981              5.312
 Vibration     4          0.596              1.974              4.510
 Vibration     5          0.597              1.971              4.309
 Vibration     6          0.606              1.942              3.281
 Vibration     7          0.611              1.927              3.012
 Vibration     8          0.614              1.915              2.832
 Vibration     9          0.618              1.904              2.689
 Vibration    10          0.621              1.892              2.559
 Vibration    11          0.638              1.841              2.138
 Vibration    12          0.653              1.792              1.863
 Vibration    13          0.668              1.746              1.663
 Vibration    14          0.681              1.708              1.524
 Vibration    15          0.690              1.682              1.442
 Vibration    16          0.696              1.662              1.384
 Vibration    17          0.719              1.599              1.221
 Vibration    18          0.736              1.550              1.113
 Vibration    19          0.790              1.407              0.862
 Vibration    20          0.793              1.401              0.853
 Vibration    21          0.822              1.329              0.753
 Vibration    22          0.830              1.311              0.730
 Vibration    23          0.841              1.284              0.698
 Vibration    24          0.859              1.242              0.649
 Vibration    25          0.919              1.110              0.516
 Vibration    26          0.935              1.079              0.489
 Vibration    27          0.968              1.014              0.435
 Vibration    28          0.977              0.996              0.421

                           ! Non-Optimized Parameters !
 Normal termination of Gaussian 16 at Fri Dec 11 18:57:42 2020.

 ----------------------------------------------------------------------
 # B3LYP/6-311++G(d,p) empiricaldispersion=gd3bj scf=xqc pop=npa geom=c
 heck
 ----------------------------------------------------------------------

 --------------------------------------
 CID_62845283_JID_8016_Energie_neutraal
 --------------------------------------
 Structure from the checkpoint file:  "JID_8016.chk"
 Charge =  0 Multiplicity = 1

 SCF Done:  E(RB3LYP) =  -1127.54996410     A.U. after   16 cycles
 Normal termination of Gaussian 16 at Fri Dec 11 19:04:35 2020.

 ----------------------------------------------------------------------
 # B3LYP/6-311++G(d,p) empiricaldispersion=gd3bj scf=xqc pop=npa geom=c
 heck
 ----------------------------------------------------------------------

 ------------------------------------
 CID_62845283_JID_8016_Energie_kation
 ------------------------------------
 Structure from the checkpoint file:  "JID_8016.chk"
 Charge =  1 Multiplicity = 2

 SCF Done:  E(UB3LYP) =  -1127.24374569     A.U. after   31 cycles
 Normal termination of Gaussian 16 at Fri Dec 11 19:22:40 2020.
 Gaussian 16:  ES64L-G16RevA.03 25-Dec-2016

 ----------------------------------------------------------------------
 # B3LYP/6-311++G(d,p) empiricaldispersion=gd3bj scf=xqc pop=npa geom=c
 heck
 ----------------------------------------------------------------------

 -----------------------------------
 CID_62845283_JID_8016_Energie_anion
 -----------------------------------
 Structure from the checkpoint file:  "JID_8016.chk"
 Charge = -1 Multiplicity = 2

                         Standard orientation:
 ---------------------------------------------------------------------
 Center     Atomic      Atomic             Coordinates (Angstroms)
 Number     Number       Type             X           Y           Z
 ---------------------------------------------------------------------
      1          6           0        4.884345   -1.121865   -1.225765
      2          6           0        3.404448   -1.178229   -1.614293
      3          6           0        2.442737   -1.124590   -0.421182
      4          6           0        2.580435    0.157906    0.443311
      5          6           0        2.438243    1.381470   -0.349644
      6          7           0        2.327677    2.350120   -0.981311
      7          6           0        1.649914    0.090784    1.676769
      8          8           0        2.120381   -0.254204    2.751681
      9          7           0        0.324869    0.362976    1.520823
     10          6           0       -0.453983    0.686305    0.324763
     11          6           0       -0.991785    2.125467    0.375372
     12          6           0       -1.985292    2.378810   -0.764009
     13          6           0       -3.230760    1.484929   -0.632026
     14          6           0       -2.815753    0.076280   -0.313725
     15          6           0       -1.577744   -0.309650    0.135845
     16          6           0       -1.480915   -1.721836    0.365529
     17          6           0       -2.642604   -2.383321    0.089861
     18         16           0       -3.883295   -1.295244   -0.461423
     19          1           0        5.152311   -0.157364   -0.780254
     20          1           0        5.521978   -1.259631   -2.105007
     21          1           0        5.135011   -1.907424   -0.502546
     22          1           0        3.171169   -0.357027   -2.303778
     23          1           0        3.204830   -2.107615   -2.161919
     24          1           0        1.410708   -1.217331   -0.776044
     25          1           0        2.627231   -1.969188    0.253424
     26          1           0        3.581122    0.173447    0.883729
     27          1           0       -0.201006    0.248442    2.380795
     28          1           0        0.221545    0.613587   -0.530327
     29          1           0       -0.147483    2.818422    0.319874
     30          1           0       -1.488076    2.283434    1.342852
     31          1           0       -2.285108    3.432136   -0.776515
     32          1           0       -1.490747    2.177654   -1.723160
     33          1           0       -3.880382    1.870827    0.167035
     34          1           0       -3.823790    1.518693   -1.553763
     35          1           0       -0.585306   -2.209160    0.734291
     36          1           0       -2.849863   -3.440803    0.179223
 ---------------------------------------------------------------------

 SCF Done:  E(UB3LYP) =  -1127.54050113     A.U. after   33 cycles
 SCF Done:  E(UB3LYP) =  -1127.54050113     a.u. after    1 cycles

 The electronic state is 2-A.
 Alpha  occ. eigenvalues --  -88.77378 -19.01064 -14.25746 -14.23427 -10.20219
 Alpha  occ. eigenvalues --  -10.14383 -10.13553 -10.13421 -10.10550 -10.09839
 Alpha  occ. eigenvalues --  -10.09624 -10.08778 -10.08767 -10.08299 -10.08084
 Alpha  occ. eigenvalues --  -10.08065 -10.07880 -10.07562  -7.86007  -5.82296
 Alpha  occ. eigenvalues --   -5.81933  -5.81610  -0.96389  -0.85109  -0.83141
 Alpha  occ. eigenvalues --   -0.78707  -0.74643  -0.72477  -0.68022  -0.66980
 Alpha  occ. eigenvalues --   -0.63329  -0.61771  -0.59654  -0.55276  -0.52235
 Alpha  occ. eigenvalues --   -0.51225  -0.50852  -0.47357  -0.46045  -0.42986
 Alpha  occ. eigenvalues --   -0.41491  -0.40043  -0.38896  -0.38297  -0.36301
 Alpha  occ. eigenvalues --   -0.35538  -0.35279  -0.34294  -0.33161  -0.32552
 Alpha  occ. eigenvalues --   -0.31830  -0.31647  -0.30973  -0.30378  -0.28976
 Alpha  occ. eigenvalues --   -0.28365  -0.27143  -0.26884  -0.26617  -0.25959
 Alpha  occ. eigenvalues --   -0.25633  -0.25562  -0.25211  -0.24884  -0.24048
 Alpha  occ. eigenvalues --   -0.23403  -0.18320  -0.17722  -0.15325  -0.13516
 Alpha  occ. eigenvalues --    0.04095
 Alpha virt. eigenvalues --    0.05432   0.06630   0.06924   0.07616   0.07989
 Alpha virt. eigenvalues --    0.08362   0.08589   0.08772   0.08878   0.09691
 Alpha virt. eigenvalues --    0.10351   0.10550   0.10995   0.11247   0.11553

  Beta  occ. eigenvalues --  -88.77361 -19.01058 -14.25729 -14.23417 -10.20208
  Beta  occ. eigenvalues --  -10.14373 -10.13552 -10.13419 -10.10542 -10.09685
  Beta  occ. eigenvalues --  -10.09514 -10.08761 -10.08757 -10.08284 -10.08069
  Beta  occ. eigenvalues --  -10.08055 -10.07877 -10.07526  -7.85991  -5.82291
  Beta  occ. eigenvalues --   -5.81927  -5.81552  -0.96375  -0.85082  -0.83126
  Beta  occ. eigenvalues --   -0.78569  -0.74617  -0.72422  -0.67973  -0.66900
  Beta  occ. eigenvalues --   -0.63176  -0.61699  -0.59603  -0.55211  -0.52189
  Beta  occ. eigenvalues --   -0.51153  -0.50762  -0.47230  -0.46017  -0.42883
  Beta  occ. eigenvalues --   -0.41417  -0.39997  -0.38859  -0.38259  -0.36250
  Beta  occ. eigenvalues --   -0.35503  -0.35198  -0.34262  -0.33113  -0.32504
  Beta  occ. eigenvalues --   -0.31778  -0.31609  -0.30815  -0.30323  -0.28949
  Beta  occ. eigenvalues --   -0.28313  -0.27048  -0.26765  -0.26583  -0.25881
  Beta  occ. eigenvalues --   -0.25582  -0.25446  -0.25173  -0.24817  -0.24012
  Beta  occ. eigenvalues --   -0.23352  -0.18286  -0.17678  -0.15081  -0.12872
  Beta virt. eigenvalues --    0.06246   0.06699   0.07068   0.07253   0.07763
  Beta virt. eigenvalues --    0.08267   0.08675   0.08931   0.09029   0.09116
  Beta virt. eigenvalues --    0.09909   0.10616   0.10680   0.11144   0.11399

 Mulliken charges and spin densities:
               1          2
     1  C    0.690498  -1.306580
     2  C   -0.407872   0.274156
     3  C   -0.276123  -0.138868
     4  C    0.701762   0.249564
     5  C   -0.164656  -0.377626
     6  N   -0.285109   0.040725
     7  C    0.183147  -0.518321
     8  O   -0.308353   0.015886
     9  N   -0.041641   0.048888
    10  C    0.268708  -0.630426
    11  C    0.007847  -0.505896
    12  C   -0.374137   0.164980
    13  C    1.275988  -1.711970
    14  C   -0.472266   0.964159
    15  C   -0.781440   1.305275
    16  C    0.807695  -1.428434
    17  C   -0.835635   0.985240
    18  S   -0.449262  -0.199811
    19  H   -0.081072   0.221989
    20  H   -0.399211   0.554091
    21  H   -0.072659   0.218013
    22  H    0.046593   0.113003
    23  H   -0.436336   0.607813
    24  H    0.196663  -0.058948
    25  H   -0.148090   0.357559
    26  H    0.289808   0.020279
    27  H    0.228412   0.085559
    28  H    0.026214   0.057666
    29  H    0.125430   0.085382
    30  H   -0.137053   0.286110
    31  H   -0.147177   0.331920
    32  H    0.114733   0.025740
    33  H   -0.378408   0.568668
    34  H    0.093254   0.063631
    35  H    0.127267   0.004135
    36  H    0.012481   0.226451
 Sum of Mulliken charges =  -1.00000   1.00000

 Dipole moment (field-independent basis, Debye):
    X=             -2.8834    Y=             -0.1474    Z=              0.0245  Tot=              2.8873
 Quadrupole moment (field-independent basis, Debye-Ang):
   XX=           -205.9438   YY=           -164.7715   ZZ=           -157.6728
   XY=             16.5030   XZ=             13.0185   YZ=             -4.7374

 Summary of Natural Population Analysis:

                                       Natural Population
                Natural  -----------------------------------------------
    Atom  No    Charge         Core      Valence    Rydberg      Total
 -----------------------------------------------------------------------
      C    1   -0.28864      0.99967     2.28340    0.00557     3.28864
      C    2   -0.19487      0.99964     2.18622    0.00901     3.19487
      C    3   -0.17986      0.99961     2.17088    0.00938     3.17986
      C    4   -0.20447      0.99946     2.19504    0.00997     3.20447
      C    5    0.15774      0.99964     1.82428    0.01833     2.84226
      N    6   -0.17818      0.99979     2.66723    0.01116     3.67818
      C    7    0.35419      0.99964     1.62373    0.02244     2.64581
      O    8   -0.31933      0.99988     3.31361    0.00584     4.31933
      N    9   -0.30906      0.99965     2.79935    0.01005     3.80906
      C   10   -0.01559      0.99952     2.00336    0.01271     3.01559
      C   11   -0.18959      0.99961     2.18054    0.00945     3.18959
      C   12   -0.18465      0.99963     2.17628    0.00874     3.18465
      C   13   -0.20341      0.99958     2.19429    0.00954     3.20341
      C   14   -0.06567      0.99941     2.05307    0.01320     3.06567
      C   15   -0.05965      0.99939     2.04941    0.01085     3.05965
      C   16   -0.12551      0.99949     2.11718    0.00884     3.12551
      C   17   -0.17524      0.99954     2.16455    0.01116     3.17524
      S   18    0.20383      4.99941     2.77658    0.02018     7.79617
      H   19    0.09451      0.00000     0.40413    0.00136     0.40549
      H   20    0.10399      0.00000     0.39480    0.00121     0.39601
      H   21    0.09844      0.00000     0.40040    0.00116     0.40156
      H   22    0.09884      0.00000     0.39995    0.00121     0.40116
      H   23    0.10341      0.00000     0.39511    0.00148     0.39659
      H   24    0.10323      0.00000     0.39470    0.00208     0.39677
      H   25    0.10567      0.00000     0.39303    0.00130     0.39433
      H   26    0.13505      0.00000     0.36325    0.00170     0.36495
      H   27    0.19875      0.00000     0.29910    0.00215     0.30125
      H   28    0.10619      0.00000     0.39132    0.00249     0.39381
      H   29    0.10757      0.00000     0.39103    0.00141     0.39243
      H   30    0.09817      0.00000     0.40025    0.00158     0.40183
      H   31    0.10261      0.00000     0.39639    0.00100     0.39739
      H   32    0.09619      0.00000     0.40254    0.00127     0.40381
      H   33    0.10894      0.00000     0.38731    0.00374     0.39106
      H   34    0.10255      0.00000     0.39646    0.00099     0.39745
      H   35    0.10794      0.00000     0.39089    0.00117     0.39206
      H   36    0.10591      0.00000     0.39332    0.00077     0.39409
 =======================================================================
   * Total *   -0.00000     21.99255    47.77298    0.23447    70.00000

 Normal termination of Gaussian 16 at Fri Dec 11 19:42:17 2020.
