 Gaussian 16, Revision A.03,

 -----------------------------------------------------------
 # opt freq B3LYP/6-31G(d) empiricaldispersion=gd3bj scf=xqc
 -----------------------------------------------------------

 ------------------------------
 CID_90382122_JID_6221_neutraal
 ------------------------------
 Symbolic Z-matrix:
 Charge =  0 Multiplicity = 1

 SCF Done:  E(RB3LYP) =  -739.295861587     A.U. after   18 cycles
 SCF Done:  E(RB3LYP) =  -739.300283074     A.U. after   15 cycles
 SCF Done:  E(RB3LYP) =  -739.301583483     A.U. after   14 cycles
 SCF Done:  E(RB3LYP) =  -739.302153488     A.U. after   12 cycles
 SCF Done:  E(RB3LYP) =  -739.302159544     A.U. after   12 cycles
 SCF Done:  E(RB3LYP) =  -739.302167593     A.U. after   12 cycles
 SCF Done:  E(RB3LYP) =  -739.302200813     A.U. after   11 cycles
 SCF Done:  E(RB3LYP) =  -739.302201716     A.U. after    9 cycles
 SCF Done:  E(RB3LYP) =  -739.302202359     A.U. after    8 cycles
 SCF Done:  E(RB3LYP) =  -739.302202750     A.U. after    8 cycles
 SCF Done:  E(RB3LYP) =  -739.302202967     A.U. after    8 cycles
 SCF Done:  E(RB3LYP) =  -739.302203179     A.U. after    8 cycles
 SCF Done:  E(RB3LYP) =  -739.302203360     A.U. after    8 cycles
 SCF Done:  E(RB3LYP) =  -739.302203434     A.U. after    7 cycles
 SCF Done:  E(RB3LYP) =  -739.302203502     A.U. after    7 cycles
 Optimization completed.
    -- Stationary point found.
 Normal termination of Gaussian 16 at Thu Dec 10 21:17:37 2020.

 --------------------------------------------------------------------
 #N Geom=AllCheck Guess=TCheck SCRF=Check GenChk RB3LYP/6-31G(d) Freq
 --------------------------------------------------------------------

 Structure from the checkpoint file:  "JID_6221.chk"
 ------------------------------
 CID_90382122_JID_6221_neutraal
 ------------------------------
 Charge =  0 Multiplicity = 1

 SCF Done:  E(RB3LYP) =  -739.302203502     A.U. after    1 cycles

  Exact polarizability: 269.469  18.542 138.300   0.000   0.006  58.426
 Approx polarizability: 434.287  73.679 258.816   0.005   0.014  91.325

                      1                      2                      3
                      A                      A                      A
 Frequencies --     45.9303                76.0605                83.5165
 Red. masses --      7.8532                 1.9812                 2.0882
 Frc consts  --      0.0098                 0.0068                 0.0086
 IR Inten    --      0.1102                 0.8137                 0.3720

                      4                      5                      6
                      A                      A                      A
 Frequencies --    102.4685               111.9884               140.9515
 Red. masses --      3.8997                 8.7719                 2.6774
 Frc consts  --      0.0241                 0.0648                 0.0313
 IR Inten    --      0.0000                 1.0578                 0.9715

                      7                      8                      9
                      A                      A                      A
 Frequencies --    150.0686               232.6504               251.7238
 Red. masses --      1.0893                 7.2491                 4.7963
 Frc consts  --      0.0145                 0.2312                 0.1791
 IR Inten    --      0.3284                 0.6196                 0.3915

                     10                     11                     12
                      A                      A                      A
 Frequencies --    267.6396               309.7249               343.7125
 Red. masses --      5.9239                 4.9625                 2.7373
 Frc consts  --      0.2500                 0.2805                 0.1905
 IR Inten    --      0.0301                 1.0789                 0.8787

                     13                     14                     15
                      A                      A                      A
 Frequencies --    361.1090               381.0089               424.7985
 Red. masses --      4.8066                 5.9011                 7.4427
 Frc consts  --      0.3693                 0.5047                 0.7913
 IR Inten    --      0.6305                 6.5329                 1.1089

                     16                     17                     18
                      A                      A                      A
 Frequencies --    463.6943               473.8684               506.6170
 Red. masses --      3.1388                 6.6744                 6.5173
 Frc consts  --      0.3976                 0.8830                 0.9855
 IR Inten    --      2.2869                10.5738                 1.0378

                     19                     20                     21
                      A                      A                      A
 Frequencies --    537.7430               554.1840               580.5479
 Red. masses --     12.7081                 4.0406                 5.7713
 Frc consts  --      2.1651                 0.7312                 1.1460
 IR Inten    --      6.9798                 2.6590                 1.0768

                     22                     23                     24
                      A                      A                      A
 Frequencies --    630.8259               632.7786               695.7616
 Red. masses --      4.0748                 5.8398                 6.9368
 Frc consts  --      0.9554                 1.3777                 1.9785
 IR Inten    --      1.8216                 0.7742                 2.4030

                     25                     26                     27
                      A                      A                      A
 Frequencies --    719.4739               723.3539               750.7818
 Red. masses --      7.4383                 4.9198                 6.3059
 Frc consts  --      2.2686                 1.5167                 2.0942
 IR Inten    --     15.8112                 1.3525                18.0845

                     28                     29                     30
                      A                      A                      A
 Frequencies --    794.1348               822.1848               861.9426
 Red. masses --      5.9840                 1.4813                 4.0785
 Frc consts  --      2.2235                 0.5900                 1.7853
 IR Inten    --      7.1136                21.0184                 6.0057

                     31                     32                     33
                      A                      A                      A
 Frequencies --    884.1928               946.0946               949.7026
 Red. masses --      1.4138                 1.2865                 2.6957
 Frc consts  --      0.6512                 0.6785                 1.4325
 IR Inten    --     26.0690                 0.3646                 0.5262

                     34                     35                     36
                      A                      A                      A
 Frequencies --   1009.0235              1052.2760              1080.9096
 Red. masses --      2.7520                 1.4335                 1.5468
 Frc consts  --      1.6508                 0.9352                 1.0648
 IR Inten    --     16.1998                 0.4638                 0.0091

                     37                     38                     39
                      A                      A                      A
 Frequencies --   1085.6281              1092.4077              1121.6885
 Red. masses --      3.2910                 2.9046                 2.2747
 Frc consts  --      2.2853                 2.0423                 1.6862
 IR Inten    --    140.1527                43.7885                 6.2595

                     40                     41                     42
                      A                      A                      A
 Frequencies --   1142.3201              1195.2678              1245.9380
 Red. masses --      2.1220                 1.5002                 4.8313
 Frc consts  --      1.6315                 1.2628                 4.4189
 IR Inten    --     34.6461                15.2280                12.2838

                     43                     44                     45
                      A                      A                      A
 Frequencies --   1292.1764              1299.5112              1377.0839
 Red. masses --      3.6835                 1.8562                 4.9042
 Frc consts  --      3.6238                 1.8468                 5.4795
 IR Inten    --     28.5203                35.7540               163.2901

                     46                     47                     48
                      A                      A                      A
 Frequencies --   1380.8613              1399.9752              1435.2018
 Red. masses --      4.9959                 4.9691                 1.3483
 Frc consts  --      5.6126                 5.7381                 1.6362
 IR Inten    --     79.6610                58.3406                 1.2563

                     49                     50                     51
                      A                      A                      A
 Frequencies --   1441.9300              1480.1942              1506.0219
 Red. masses --      1.3118                 4.3064                 1.1058
 Frc consts  --      1.6070                 5.5591                 1.4777
 IR Inten    --     11.7416                17.8607                 6.7160

                     52                     53                     54
                      A                      A                      A
 Frequencies --   1514.9130              1527.7579              1539.6408
 Red. masses --      1.0445                 1.0687                 1.0446
 Frc consts  --      1.4123                 1.4696                 1.4589
 IR Inten    --     13.9204                13.2977                 2.3812

                     55                     56                     57
                      A                      A                      A
 Frequencies --   1551.8731              1605.9633              1668.4545
 Red. masses --      2.9182                 7.8616                 6.8605
 Frc consts  --      4.1408                11.9463                11.2520
 IR Inten    --     60.4165                23.6663               316.4126

                     58                     59                     60
                      A                      A                      A
 Frequencies --   1677.1593              1820.3027              2267.8652
 Red. masses --      7.0900                12.6129                13.9831
 Frc consts  --     11.7501                24.6236                42.3728
 IR Inten    --     41.4700               569.1320               980.3331

                     61                     62                     63
                      A                      A                      A
 Frequencies --   3051.5944              3052.5851              3100.0636
 Red. masses --      1.0415                 1.0417                 1.1000
 Frc consts  --      5.7142                 5.7191                 6.2285
 IR Inten    --     13.3793                22.8793                20.1909

                     64                     65                     66
                      A                      A                      A
 Frequencies --   3102.9286              3173.6870              3176.7201
 Red. masses --      1.1014                 1.0964                 1.0959
 Frc consts  --      6.2478                 6.5068                 6.5157
 IR Inten    --      7.4299                 7.2027                 8.8436

                     67                     68                     69
                      A                      A                      A
 Frequencies --   3204.5089              3225.3742              3242.9304
 Red. masses --      1.0884                 1.0929                 1.0924
 Frc consts  --      6.5848                 6.6989                 6.7685
 IR Inten    --      3.6615                 6.0681                 0.2512

 - Thermochemistry -
 -------------------
 Temperature   298.150 Kelvin.  Pressure   1.00000 Atm.
 Atom     1 has atomic number  6 and mass  12.00000

 Molecular mass:   215.06948 amu.
 Principal axes and moments of inertia in atomic units:
                           1         2         3
     Eigenvalues --  1313.916166335.864207627.32653
           X            0.99986  -0.01669   0.00000
           Y            0.01669   0.99986   0.00001
           Z           -0.00000  -0.00001   1.00000
 This molecule is an asymmetric top.
 Rotational symmetry number  1.
 Warning -- assumption of classical behavior for rotation
           may cause significant error
 Rotational temperatures (Kelvin)      0.06592     0.01367     0.01136
 Rotational constants (GHZ):           1.37356     0.28485     0.23662
 Zero-point vibrational energy     490193.6 (Joules/Mol)
                                  117.15908 (Kcal/Mol)
 Warning -- explicit consideration of  21 degrees of freedom as
           vibrations may cause significant error
 Vibrational temperatures:     66.08   109.43   120.16   147.43   161.13
          (Kelvin)            202.80   215.92   334.73   362.17   385.07
                              445.63   494.53   519.56   548.19   611.19
                              667.15   681.79   728.91   773.69   797.35
                              835.28   907.62   910.43  1001.05  1035.16
                             1040.74  1080.21  1142.58  1182.94  1240.14
                             1272.16  1361.22  1366.41  1451.76  1513.99
                             1555.19  1561.98  1571.73  1613.86  1643.54
                             1719.72  1792.63  1859.15  1869.71  1981.32
                             1986.75  2014.25  2064.94  2074.62  2129.67
                             2166.83  2179.62  2198.10  2215.20  2232.80
                             2310.62  2400.53  2413.06  2619.01  3262.95
                             4390.56  4391.99  4460.30  4464.42  4566.23
                             4570.59  4610.57  4640.59  4665.85

 Zero-point correction=                           0.186705 (Hartree/Particle)
 Thermal correction to Energy=                    0.200523
 Thermal correction to Enthalpy=                  0.201467
 Thermal correction to Gibbs Free Energy=         0.145620
 Sum of electronic and zero-point Energies=           -739.115499
 Sum of electronic and thermal Energies=              -739.101681
 Sum of electronic and thermal Enthalpies=            -739.100736
 Sum of electronic and thermal Free Energies=         -739.156583

                     E (Thermal)             CV                S
                      KCal/Mol        Cal/Mol-Kelvin    Cal/Mol-Kelvin
 Total                  125.830             51.985            117.539
 Electronic               0.000              0.000              0.000
 Translational            0.889              2.981             42.001
 Rotational               0.889              2.981             32.518
 Vibrational            124.053             46.023             43.021
 Vibration     1          0.595              1.979              4.985
 Vibration     2          0.599              1.965              3.990
 Vibration     3          0.600              1.961              3.806
 Vibration     4          0.605              1.947              3.407
 Vibration     5          0.607              1.940              3.234
 Vibration     6          0.615              1.912              2.791
 Vibration     7          0.618              1.903              2.671
 Vibration     8          0.653              1.791              1.858
 Vibration     9          0.664              1.760              1.718
 Vibration    10          0.673              1.733              1.611
 Vibration    11          0.699              1.655              1.364
 Vibration    12          0.722              1.588              1.195
 Vibration    13          0.735              1.552              1.117
 Vibration    14          0.751              1.511              1.035
 Vibration    15          0.787              1.416              0.876
 Vibration    16          0.821              1.331              0.755
 Vibration    17          0.831              1.308              0.727
 Vibration    18          0.862              1.235              0.642
 Vibration    19          0.893              1.167              0.570
 Vibration    20          0.910              1.131              0.536
 Vibration    21          0.937              1.073              0.484

                           ! Non-Optimized Parameters !
 Normal termination of Gaussian 16 at Thu Dec 10 21:25:41 2020.

 ----------------------------------------------------------------------
 # B3LYP/6-311++G(d,p) empiricaldispersion=gd3bj scf=xqc pop=npa geom=c
 heck
 ----------------------------------------------------------------------

 --------------------------------------
 CID_90382122_JID_6221_Energie_neutraal
 --------------------------------------
 Structure from the checkpoint file:  "JID_6221.chk"
 Charge =  0 Multiplicity = 1

 SCF Done:  E(RB3LYP) =  -739.496969017     A.U. after   17 cycles
 Normal termination of Gaussian 16 at Thu Dec 10 21:29:51 2020.

 ----------------------------------------------------------------------
 # B3LYP/6-311++G(d,p) empiricaldispersion=gd3bj scf=xqc pop=npa geom=c
 heck
 ----------------------------------------------------------------------

 ------------------------------------
 CID_90382122_JID_6221_Energie_kation
 ------------------------------------
 Structure from the checkpoint file:  "JID_6221.chk"
 Charge =  1 Multiplicity = 2

 SCF Done:  E(UB3LYP) =  -739.200939610     A.U. after   27 cycles
 Normal termination of Gaussian 16 at Thu Dec 10 21:38:42 2020.
 Gaussian 16:  ES64L-G16RevA.03 25-Dec-2016

 ----------------------------------------------------------------------
 # B3LYP/6-311++G(d,p) empiricaldispersion=gd3bj scf=xqc pop=npa geom=c
 heck
 ----------------------------------------------------------------------

 -----------------------------------
 CID_90382122_JID_6221_Energie_anion
 -----------------------------------
 Structure from the checkpoint file:  "JID_6221.chk"
 Charge = -1 Multiplicity = 2

                         Standard orientation:
 ---------------------------------------------------------------------
 Center     Atomic      Atomic             Coordinates (Angstroms)
 Number     Number       Type             X           Y           Z
 ---------------------------------------------------------------------
      1          6           0       -2.034071    2.560273   -0.000043
      2          6           0       -1.754319    1.081252   -0.000126
      3          6           0       -2.757504    0.157001   -0.000117
      4          6           0       -2.453556   -1.280672    0.000162
      5          8           0       -3.268971   -2.174839    0.000721
      6          8           0       -1.114211   -1.651424   -0.000382
      7          6           0       -0.105517   -0.739868   -0.000247
      8          6           0       -0.370739    0.641742   -0.000064
      9          6           0        0.737342    1.510383    0.000175
     10          6           0        2.036305    1.030442    0.000138
     11          6           0        2.264100   -0.357953   -0.000134
     12          6           0        1.190431   -1.246163   -0.000323
     13          7           0        3.552443   -0.942391   -0.000219
     14          7           0        4.532599   -0.185254    0.000124
     15          7           0        5.516262    0.391239    0.000309
     16          6           0       -4.225950    0.503210   -0.000127
     17          1           0       -1.592612    3.039153    0.882408
     18          1           0       -3.102395    2.774846   -0.000940
     19          1           0       -1.590984    3.039656   -0.881384
     20          1           0        0.574944    2.582342    0.000420
     21          1           0        2.872476    1.722458    0.000329
     22          1           0        1.354960   -2.316802   -0.000487
     23          1           0       -4.501793    1.088613    0.884661
     24          1           0       -4.501376    1.090279   -0.883924
     25          1           0       -4.816030   -0.413475   -0.001055
 ---------------------------------------------------------------------

 SCF Done:  E(UB3LYP) =  -739.524846131     A.U. after   26 cycles

 The electronic state is 2-A.
 Alpha  occ. eigenvalues --  -19.03430 -18.95116 -14.36220 -14.26726 -14.25448
 Alpha  occ. eigenvalues --  -10.14555 -10.10796 -10.08975 -10.05567 -10.05398
 Alpha  occ. eigenvalues --  -10.04981 -10.04739 -10.04701 -10.04220 -10.04064
 Alpha  occ. eigenvalues --  -10.03266  -1.03019  -0.97083  -0.88347  -0.87467
 Alpha  occ. eigenvalues --   -0.73884  -0.70059  -0.64301  -0.62958  -0.60826
 Alpha  occ. eigenvalues --   -0.57215  -0.52061  -0.51054  -0.47464  -0.45309
 Alpha  occ. eigenvalues --   -0.40580  -0.40414  -0.38979  -0.38665  -0.35761
 Alpha  occ. eigenvalues --   -0.33719  -0.33653  -0.31863  -0.30778  -0.30615
 Alpha  occ. eigenvalues --   -0.29909  -0.29087  -0.29074  -0.27907  -0.26924
 Alpha  occ. eigenvalues --   -0.26105  -0.25542  -0.23119  -0.21882  -0.20544
 Alpha  occ. eigenvalues --   -0.19498  -0.19361  -0.14646  -0.13554  -0.11995
 Alpha  occ. eigenvalues --   -0.08965   0.02798
 Alpha virt. eigenvalues --    0.07159   0.07861   0.08970   0.09259   0.10383
 Alpha virt. eigenvalues --    0.11058   0.11623   0.11703   0.12161   0.13342
 Alpha virt. eigenvalues --    0.13620   0.14255   0.14476   0.15324   0.16602

  Beta  occ. eigenvalues --  -19.03297 -18.94921 -14.36003 -14.26475 -14.25589
  Beta  occ. eigenvalues --  -10.14475 -10.10741 -10.08689 -10.05590 -10.05496
  Beta  occ. eigenvalues --  -10.04815 -10.04681 -10.04447 -10.04244 -10.04002
  Beta  occ. eigenvalues --  -10.02999  -1.02658  -0.96835  -0.88019  -0.87342
  Beta  occ. eigenvalues --   -0.73593  -0.69554  -0.63904  -0.62742  -0.60584
  Beta  occ. eigenvalues --   -0.56999  -0.51893  -0.50859  -0.47277  -0.44823
  Beta  occ. eigenvalues --   -0.40415  -0.39442  -0.38769  -0.38535  -0.35359
  Beta  occ. eigenvalues --   -0.33329  -0.32978  -0.31749  -0.30421  -0.30413
  Beta  occ. eigenvalues --   -0.29741  -0.28926  -0.28778  -0.27750  -0.26839
  Beta  occ. eigenvalues --   -0.25444  -0.25272  -0.22950  -0.20939  -0.20454
  Beta  occ. eigenvalues --   -0.19464  -0.18488  -0.13528  -0.13318  -0.11101
  Beta  occ. eigenvalues --   -0.07615
  Beta virt. eigenvalues --    0.07414   0.07816   0.08023   0.09221   0.10121
  Beta virt. eigenvalues --    0.10355   0.11122   0.11613   0.12127   0.12724
  Beta virt. eigenvalues --    0.13574   0.13596   0.14231   0.15163   0.15306

 Mulliken charges and spin densities:
               1          2
     1  C   -0.354381  -0.017362
     2  C    0.935772   0.122228
     3  C    0.027176   0.218760
     4  C    0.242838   0.045959
     5  O   -0.390027   0.066641
     6  O   -0.163014   0.030962
     7  C   -0.408669   0.070914
     8  C    0.899139  -0.019912
     9  C   -0.696514   0.163871
    10  C    0.265226  -0.070815
    11  C   -1.406852   0.173848
    12  C   -0.562974   0.035937
    13  N    0.191255  -0.074400
    14  N    0.211764   0.067758
    15  N   -0.361866   0.141288
    16  C   -0.698257  -0.014337
    17  H    0.122779   0.019100
    18  H    0.158443   0.000256
    19  H    0.122702   0.019013
    20  H    0.108560  -0.008449
    21  H    0.154501   0.005296
    22  H    0.191009  -0.004441
    23  H    0.117010   0.014414
    24  H    0.116857   0.014361
    25  H    0.177523  -0.000891
 Sum of Mulliken charges =  -1.00000   1.00000

 Dipole moment (field-independent basis, Debye):
    X=              0.3740    Y=              4.1730    Z=             -0.0010  Tot=              4.1897
 Quadrupole moment (field-independent basis, Debye-Ang):
   XX=           -159.5489   YY=           -112.2317   ZZ=            -99.1293
   XY=            -14.4991   XZ=              0.0044   YZ=              0.0023

 Summary of Natural Population Analysis:

                                       Natural Population
                Natural  -----------------------------------------------
    Atom  No    Charge         Core      Valence    Rydberg      Total
 -----------------------------------------------------------------------
      C    1   -0.30103      0.99965     2.29665    0.00473     3.30103
      C    2    0.05523      0.99946     1.93693    0.00839     2.94477
      C    3   -0.05343      0.99946     2.03548    0.01849     3.05343
      C    4    0.48364      0.99959     1.49245    0.02432     2.51636
      O    5   -0.32883      0.99989     3.30494    0.02400     4.32883
      O    6   -0.28347      0.99985     3.25685    0.02678     4.28347
      C    7    0.25079      0.99937     1.73381    0.01603     2.74921
      C    8   -0.08318      0.99951     2.06942    0.01425     3.08318
      C    9   -0.05868      0.99959     2.04980    0.00929     3.05868
      C   10   -0.15187      0.99944     2.14353    0.00890     3.15187
      C   11    0.10333      0.99947     1.88498    0.01222     2.89667
      C   12   -0.13480      0.99944     2.11711    0.01825     3.13480
      N   13   -0.19390      0.99965     2.68073    0.01351     3.69390
      N   14    0.13806      0.99971     2.34542    0.01681     3.36194
      N   15   -0.02482      0.99982     2.51156    0.01344     3.52482
      C   16   -0.30185      0.99965     2.29627    0.00592     3.30185
      H   17    0.10226      0.00000     0.39650    0.00125     0.39774
      H   18    0.10063      0.00000     0.39855    0.00082     0.39937
      H   19    0.10224      0.00000     0.39651    0.00125     0.39776
      H   20    0.09383      0.00000     0.40452    0.00166     0.40617
      H   21    0.09669      0.00000     0.40103    0.00228     0.40331
      H   22    0.10445      0.00000     0.39292    0.00263     0.39555
      H   23    0.09610      0.00000     0.40287    0.00103     0.40390
      H   24    0.09608      0.00000     0.40289    0.00103     0.40392
      H   25    0.11425      0.00000     0.38449    0.00127     0.38575
 =======================================================================
   * Total *    0.02171     15.99353    39.73620    0.24857    55.97829

 Normal termination of Gaussian 16 at Thu Dec 10 21:47:23 2020.
