 Gaussian 16, Revision A.03,

 -----------------------------------------------------------
 # opt freq B3LYP/6-31G(d) empiricaldispersion=gd3bj scf=xqc
 -----------------------------------------------------------

 ------------------------------
 CID_53661424_JID_1750_neutraal
 ------------------------------
 Symbolic Z-matrix:
 Charge =  0 Multiplicity = 1

 SCF Done:  E(RB3LYP) =  -462.300023150     A.U. after   14 cycles
 SCF Done:  E(RB3LYP) =  -462.303077214     A.U. after   12 cycles
 SCF Done:  E(RB3LYP) =  -462.305030194     A.U. after   13 cycles
 SCF Done:  E(RB3LYP) =  -462.306778642     A.U. after   14 cycles
 SCF Done:  E(RB3LYP) =  -462.307084804     A.U. after   12 cycles
 SCF Done:  E(RB3LYP) =  -462.307148078     A.U. after   11 cycles
 SCF Done:  E(RB3LYP) =  -462.307157636     A.U. after   10 cycles
 SCF Done:  E(RB3LYP) =  -462.307160014     A.U. after    8 cycles
 SCF Done:  E(RB3LYP) =  -462.307160776     A.U. after    8 cycles
 Optimization completed.
    -- Stationary point found.
 Normal termination of Gaussian 16 at Tue Dec  8 21:07:26 2020.

 --------------------------------------------------------------------
 #N Geom=AllCheck Guess=TCheck SCRF=Check GenChk RB3LYP/6-31G(d) Freq
 --------------------------------------------------------------------

 Structure from the checkpoint file:  "JID_1750.chk"
 ------------------------------
 CID_53661424_JID_1750_neutraal
 ------------------------------
 Charge =  0 Multiplicity = 1

 SCF Done:  E(RB3LYP) =  -462.307160776     A.U. after    1 cycles

  Exact polarizability: 226.367  11.806 112.269  -0.003  -0.017  36.018
 Approx polarizability: 351.528  36.126 191.651  -0.003  -0.028  54.888

                      1                      2                      3
                      A                      A                      A
 Frequencies --     54.2061               115.3751               124.5480
 Red. masses --      3.4564                 3.8854                 1.8842
 Frc consts  --      0.0060                 0.0305                 0.0172
 IR Inten    --      0.2960                 1.0329                 2.1116

                      4                      5                      6
                      A                      A                      A
 Frequencies --    161.4577               231.4199               284.8897
 Red. masses --      3.5614                 3.6282                 4.2131
 Frc consts  --      0.0547                 0.1145                 0.2015
 IR Inten    --      0.1626                 1.2726                 2.7066

                      7                      8                      9
                      A                      A                      A
 Frequencies --    328.1985               329.9101               378.3324
 Red. masses --      5.5016                 2.5399                 1.1987
 Frc consts  --      0.3491                 0.1629                 0.1011
 IR Inten    --      0.3725                 8.1797               103.7997

                     10                     11                     12
                      A                      A                      A
 Frequencies --    419.8238               477.2429               523.4622
 Red. masses --      3.7358                 2.8688                 3.5499
 Frc consts  --      0.3879                 0.3850                 0.5731
 IR Inten    --      8.8811                 0.0091                 3.1328

                     13                     14                     15
                      A                      A                      A
 Frequencies --    559.9129               578.3162               640.6395
 Red. masses --      3.2550                 5.6960                 6.1380
 Frc consts  --      0.6012                 1.1224                 1.4842
 IR Inten    --      2.2700                 1.5689                 8.6353

                     16                     17                     18
                      A                      A                      A
 Frequencies --    660.0280               741.7581               758.2434
 Red. masses --      1.5325                 3.7549                 1.2639
 Frc consts  --      0.3933                 1.2172                 0.4281
 IR Inten    --      6.4809                 0.8064                53.7488

                     19                     20                     21
                      A                      A                      A
 Frequencies --    787.7982               844.1131               893.5992
 Red. masses --      4.6812                 1.4235                 1.7409
 Frc consts  --      1.7118                 0.5976                 0.8190
 IR Inten    --      1.9324                 1.0810                 6.5220

                     22                     23                     24
                      A                      A                      A
 Frequencies --    894.9620               915.1392               931.6510
 Red. masses --      5.6712                 1.4022                 1.4524
 Frc consts  --      2.6763                 0.6919                 0.7428
 IR Inten    --     10.4700                33.7984                 0.1375

                     25                     26                     27
                      A                      A                      A
 Frequencies --    964.4140               972.7843               992.3141
 Red. masses --      1.2507                 1.5353                 1.1473
 Frc consts  --      0.6854                 0.8560                 0.6656
 IR Inten    --      0.1061                 1.8792                 6.7445

                     28                     29                     30
                      A                      A                      A
 Frequencies --   1056.3366              1081.7278              1131.2918
 Red. masses --      1.0926                 2.2400                 1.9557
 Frc consts  --      0.7183                 1.5443                 1.4747
 IR Inten    --     35.6539                 1.4189                40.2209

                     31                     32                     33
                      A                      A                      A
 Frequencies --   1194.5946              1202.9426              1211.6950
 Red. masses --      1.0957                 1.9177                 1.3945
 Frc consts  --      0.9213                 1.6350                 1.2063
 IR Inten    --      1.7480                39.3137                19.5642

                     34                     35                     36
                      A                      A                      A
 Frequencies --   1257.6530              1301.4870              1305.8281
 Red. masses --      1.9296                 3.1895                 1.8296
 Frc consts  --      1.7982                 3.1832                 1.8382
 IR Inten    --      3.9621                28.7582                14.4792

                     37                     38                     39
                      A                      A                      A
 Frequencies --   1334.6524              1348.5624              1387.4427
 Red. masses --      1.4034                 1.6738                 1.6443
 Frc consts  --      1.4728                 1.7934                 1.8649
 IR Inten    --     12.1604                23.6456                28.7158

                     40                     41                     42
                      A                      A                      A
 Frequencies --   1391.3448              1471.7625              1502.0533
 Red. masses --      1.8745                 1.3587                 2.1900
 Frc consts  --      2.1380                 1.7340                 2.9112
 IR Inten    --      8.2142                 4.8404                38.7674

                     43                     44                     45
                      A                      A                      A
 Frequencies --   1554.7431              1640.7482              1662.1639
 Red. masses --      2.4654                 5.5149                 5.7489
 Frc consts  --      3.5112                 8.7472                 9.3579
 IR Inten    --     14.9626                 9.4954                14.6022

                     46                     47                     48
                      A                      A                      A
 Frequencies --   1680.6223              1710.4818              3134.5308
 Red. masses --      4.4548                 4.5102                 1.0871
 Frc consts  --      7.4135                 7.7747                 6.2933
 IR Inten    --      3.1183                 8.4622                11.0000

                     49                     50                     51
                      A                      A                      A
 Frequencies --   3144.6432              3161.1450              3164.7110
 Red. masses --      1.0847                 1.0887                 1.0639
 Frc consts  --      6.3196                 6.4100                 6.2779
 IR Inten    --     31.4937                18.9233                 8.0570

                     52                     53                     54
                      A                      A                      A
 Frequencies --   3183.7005              3198.9253              3215.1941
 Red. masses --      1.0874                 1.0904                 1.0971
 Frc consts  --      6.4937                 6.5745                 6.6822
 IR Inten    --      6.7929                17.4346                28.1565

                     55                     56                     57
                      A                      A                      A
 Frequencies --   3237.9493              3247.5302              3746.0811
 Red. masses --      1.0893                 1.1153                 1.0658
 Frc consts  --      6.7291                 6.9304                 8.8121
 IR Inten    --      0.4883                18.2504                40.4757

 - Thermochemistry -
 -------------------
 Temperature   298.150 Kelvin.  Pressure   1.00000 Atm.
 Atom     1 has atomic number  6 and mass  12.00000

 Molecular mass:   146.07317 amu.
 Principal axes and moments of inertia in atomic units:
                           1         2         3
     Eigenvalues --   624.285743124.474903748.76042
           X            1.00000  -0.00038  -0.00000
           Y            0.00038   1.00000  -0.00004
           Z            0.00000   0.00004   1.00000
 This molecule is an asymmetric top.
 Rotational symmetry number  1.
 Warning -- assumption of classical behavior for rotation
           may cause significant error
 Rotational temperatures (Kelvin)      0.13874     0.02772     0.02310
 Rotational constants (GHZ):           2.89089     0.57761     0.48142
 Zero-point vibrational energy     451154.2 (Joules/Mol)
                                  107.82843 (Kcal/Mol)
 Warning -- explicit consideration of  14 degrees of freedom as
           vibrations may cause significant error
 Vibrational temperatures:     77.99   166.00   179.20   232.30   332.96
          (Kelvin)            409.89   472.20   474.67   544.34   604.03
                              686.65   753.15   805.59   832.07   921.74
                              949.63  1067.22  1090.94  1133.47  1214.49
                             1285.69  1287.65  1316.68  1340.44  1387.58
                             1399.62  1427.72  1519.83  1556.37  1627.68
                             1718.76  1730.77  1743.36  1809.48  1872.55
                             1878.80  1920.27  1940.28  1996.22  2001.83
                             2117.54  2161.12  2236.93  2360.67  2391.48
                             2418.04  2461.00  4509.89  4524.44  4548.18
                             4553.31  4580.63  4602.54  4625.95  4658.69
                             4672.47  5389.78

 Zero-point correction=                           0.171836 (Hartree/Particle)
 Thermal correction to Energy=                    0.181819
 Thermal correction to Enthalpy=                  0.182763
 Thermal correction to Gibbs Free Energy=         0.136286
 Sum of electronic and zero-point Energies=           -462.135325
 Sum of electronic and thermal Energies=              -462.125342
 Sum of electronic and thermal Enthalpies=            -462.124398
 Sum of electronic and thermal Free Energies=         -462.170874

                     E (Thermal)             CV                S
                      KCal/Mol        Cal/Mol-Kelvin    Cal/Mol-Kelvin
 Total                  114.093             38.605             97.818
 Electronic               0.000              0.000              0.000
 Translational            0.889              2.981             40.848
 Rotational               0.889              2.981             30.370
 Vibrational            112.315             32.644             26.600
 Vibration     1          0.596              1.976              4.658
 Vibration     2          0.608              1.937              3.176
 Vibration     3          0.610              1.928              3.029
 Vibration     4          0.622              1.890              2.533
 Vibration     5          0.653              1.793              1.868
 Vibration     6          0.683              1.702              1.504
 Vibration     7          0.711              1.619              1.269
 Vibration     8          0.713              1.616              1.261
 Vibration     9          0.749              1.516              1.046
 Vibration    10          0.783              1.427              0.893
 Vibration    11          0.834              1.301              0.718
 Vibration    12          0.878              1.198              0.602
 Vibration    13          0.916              1.118              0.524
 Vibration    14          0.935              1.078              0.488

                           ! Non-Optimized Parameters !
 Normal termination of Gaussian 16 at Tue Dec  8 21:11:33 2020.

 ----------------------------------------------------------------------
 # B3LYP/6-311++G(d,p) empiricaldispersion=gd3bj scf=xqc pop=npa geom=c
 heck
 ----------------------------------------------------------------------

 --------------------------------------
 CID_53661424_JID_1750_Energie_neutraal
 --------------------------------------
 Structure from the checkpoint file:  "JID_1750.chk"
 Charge =  0 Multiplicity = 1

 SCF Done:  E(RB3LYP) =  -462.441124912     A.U. after   15 cycles
 Normal termination of Gaussian 16 at Tue Dec  8 21:13:27 2020.

 ----------------------------------------------------------------------
 # B3LYP/6-311++G(d,p) empiricaldispersion=gd3bj scf=xqc pop=npa geom=c
 heck
 ----------------------------------------------------------------------

 ------------------------------------
 CID_53661424_JID_1750_Energie_kation
 ------------------------------------
 Structure from the checkpoint file:  "JID_1750.chk"
 Charge =  1 Multiplicity = 2

 SCF Done:  E(UB3LYP) =  -462.168736560     A.U. after   21 cycles
 Normal termination of Gaussian 16 at Tue Dec  8 21:17:14 2020.
 Gaussian 16:  ES64L-G16RevA.03 25-Dec-2016

 ----------------------------------------------------------------------
 # B3LYP/6-311++G(d,p) empiricaldispersion=gd3bj scf=xqc pop=npa geom=c
 heck
 ----------------------------------------------------------------------

 -----------------------------------
 CID_53661424_JID_1750_Energie_anion
 -----------------------------------
 Structure from the checkpoint file:  "JID_1750.chk"
 Charge = -1 Multiplicity = 2

                         Standard orientation:
 ---------------------------------------------------------------------
 Center     Atomic      Atomic             Coordinates (Angstroms)
 Number     Number       Type             X           Y           Z
 ---------------------------------------------------------------------
      1          6           0        4.487259    0.176793   -0.000782
      2          6           0        3.369494   -0.567228    0.000168
      3          6           0        2.025831   -0.022508    0.000263
      4          6           0        0.926987   -0.810841    0.000386
      5          6           0       -0.486131   -0.449931    0.000223
      6          6           0       -1.435036   -1.490833    0.000081
      7          6           0       -2.806038   -1.259191   -0.000280
      8          6           0       -3.276374    0.053849   -0.000469
      9          6           0       -2.368607    1.110787   -0.000189
     10          6           0       -0.993337    0.871409    0.000131
     11          8           0       -0.103380    1.910802    0.000733
     12          1           0        4.444020    1.263478   -0.001563
     13          1           0        5.474963   -0.273604   -0.000751
     14          1           0        3.453998   -1.654816    0.000957
     15          1           0        1.928873    1.056861   -0.000072
     16          1           0        1.095940   -1.888628    0.000692
     17          1           0       -1.064996   -2.512938    0.000179
     18          1           0       -3.500110   -2.093803   -0.000443
     19          1           0       -4.342424    0.260752   -0.000750
     20          1           0       -2.726385    2.139261   -0.000079
     21          1           0       -0.601129    2.743185   -0.001213
 ---------------------------------------------------------------------

 SCF Done:  E(UB3LYP) =  -462.440001684     A.U. after   31 cycles

 The electronic state is 2-A.
 Alpha  occ. eigenvalues --  -19.02085 -10.08517 -10.02950 -10.02383 -10.02080
 Alpha  occ. eigenvalues --  -10.01799 -10.01777 -10.00914  -9.99738  -9.99204
 Alpha  occ. eigenvalues --   -9.98817  -0.93130  -0.70632  -0.64553  -0.61302
 Alpha  occ. eigenvalues --   -0.59507  -0.55547  -0.48685  -0.47422  -0.42376
 Alpha  occ. eigenvalues --   -0.40235  -0.39229  -0.34720  -0.33186  -0.30358
 Alpha  occ. eigenvalues --   -0.28710  -0.28363  -0.27694  -0.26563  -0.23974
 Alpha  occ. eigenvalues --   -0.22177  -0.20884  -0.20495  -0.20395  -0.17471
 Alpha  occ. eigenvalues --   -0.17199  -0.12896  -0.09656  -0.05671   0.05848
 Alpha virt. eigenvalues --    0.08372   0.09449   0.10135   0.10839   0.11692
 Alpha virt. eigenvalues --    0.13013   0.13037   0.13418   0.14929   0.15259
 Alpha virt. eigenvalues --    0.16370   0.16967   0.17418   0.17873   0.18623

  Beta  occ. eigenvalues --  -19.02045 -10.08412 -10.02966 -10.02455 -10.01974
  Beta  occ. eigenvalues --  -10.01601 -10.01476 -10.00911  -9.99579  -9.98848
  Beta  occ. eigenvalues --   -9.98546  -0.93034  -0.70321  -0.64016  -0.60822
  Beta  occ. eigenvalues --   -0.59271  -0.55041  -0.48589  -0.46673  -0.42005
  Beta  occ. eigenvalues --   -0.40015  -0.38942  -0.34570  -0.33013  -0.30107
  Beta  occ. eigenvalues --   -0.28613  -0.28175  -0.27192  -0.26429  -0.23769
  Beta  occ. eigenvalues --   -0.22021  -0.20723  -0.20347  -0.19632  -0.17276
  Beta  occ. eigenvalues --   -0.15732  -0.11418  -0.08956  -0.03833
  Beta virt. eigenvalues --    0.08342   0.09418   0.10109   0.10818   0.11254
  Beta virt. eigenvalues --    0.11652   0.12985   0.13376   0.13474   0.15207
  Beta virt. eigenvalues --    0.15916   0.16353   0.17154   0.17380   0.18215

 Mulliken charges and spin densities:
               1          2
     1  C   -0.686452   0.369912
     2  C    0.115611  -0.066622
     3  C   -0.214425   0.196826
     4  C    0.190672   0.091253
     5  C    1.702457   0.075284
     6  C   -0.036106   0.169952
     7  C   -0.351554  -0.046114
     8  C   -0.329724   0.271115
     9  C   -0.531931  -0.028717
    10  C   -1.562613   0.045401
    11  O   -0.206739   0.010004
    12  H    0.075577  -0.017944
    13  H    0.082022  -0.016273
    14  H    0.073146  -0.001982
    15  H    0.099435  -0.015351
    16  H   -0.001902  -0.010775
    17  H    0.101179  -0.007644
    18  H    0.095611   0.003229
    19  H    0.094020  -0.020880
    20  H    0.058509  -0.000332
    21  H    0.233206  -0.000341
 Sum of Mulliken charges =  -1.00000   1.00000

 Dipole moment (field-independent basis, Debye):
    X=             -4.3602    Y=              1.5802    Z=             -0.0022  Tot=              4.6378
 Quadrupole moment (field-independent basis, Debye-Ang):
   XX=           -118.1317   YY=            -65.7101   ZZ=            -79.2723
   XY=             -4.4166   XZ=              0.0024   YZ=             -0.0114

 Summary of Natural Population Analysis:

                                       Natural Population
                Natural  -----------------------------------------------
    Atom  No    Charge         Core      Valence    Rydberg      Total
 -----------------------------------------------------------------------
      C    1   -0.13771      0.99960     2.12865    0.00946     3.13771
      C    2   -0.10981      0.99957     2.10053    0.00971     3.10981
      C    3   -0.05595      0.99952     2.04679    0.00964     3.05595
      C    4   -0.07724      0.99954     2.06828    0.00942     3.07724
      C    5   -0.03973      0.99947     2.03116    0.00910     3.03973
      C    6   -0.05408      0.99956     2.04572    0.00881     3.05408
      C    7   -0.14247      0.99957     2.13331    0.00959     3.14247
      C    8   -0.05042      0.99958     2.04049    0.01034     3.05042
      C    9   -0.15786      0.99954     2.14883    0.00949     3.15786
      C   10    0.18195      0.99936     1.80708    0.01160     2.81805
      O   11   -0.33960      0.99988     3.33282    0.00691     4.33960
      H   12    0.07826      0.00000     0.42054    0.00119     0.42174
      H   13    0.07745      0.00000     0.42147    0.00109     0.42255
      H   14    0.08018      0.00000     0.41801    0.00182     0.41982
      H   15    0.09586      0.00000     0.40229    0.00184     0.40414
      H   16    0.07909      0.00000     0.41916    0.00175     0.42091
      H   17    0.08759      0.00000     0.41090    0.00151     0.41241
      H   18    0.08981      0.00000     0.40907    0.00112     0.41019
      H   19    0.08477      0.00000     0.41359    0.00164     0.41523
      H   20    0.08503      0.00000     0.41361    0.00136     0.41497
      H   21    0.22487      0.00000     0.27270    0.00243     0.27513
 =======================================================================
   * Total *   -0.00000     10.99518    27.88500    0.11982    39.00000

 Normal termination of Gaussian 16 at Tue Dec  8 21:28:23 2020.
