 Gaussian 16, Revision A.03,

 -----------------------------------------------------------
 # opt freq B3LYP/6-31G(d) empiricaldispersion=gd3bj scf=xqc
 -----------------------------------------------------------

 ------------------------------
 CID_54149983_JID_4583_neutraal
 ------------------------------
 Symbolic Z-matrix:
 Charge =  0 Multiplicity = 1

 SCF Done:  E(RB3LYP) =  -702.678036338     A.U. after   14 cycles
 SCF Done:  E(RB3LYP) =  -702.683386961     A.U. after   12 cycles
 SCF Done:  E(RB3LYP) =  -702.683837903     A.U. after   11 cycles
 SCF Done:  E(RB3LYP) =  -702.683957542     A.U. after   12 cycles
 SCF Done:  E(RB3LYP) =  -702.684124996     A.U. after   11 cycles
 SCF Done:  E(RB3LYP) =  -702.684205738     A.U. after   11 cycles
 SCF Done:  E(RB3LYP) =  -702.684277401     A.U. after   10 cycles
 SCF Done:  E(RB3LYP) =  -702.684372943     A.U. after   11 cycles
 SCF Done:  E(RB3LYP) =  -702.684430586     A.U. after   12 cycles
 SCF Done:  E(RB3LYP) =  -702.684454138     A.U. after   11 cycles
 SCF Done:  E(RB3LYP) =  -702.684467489     A.U. after    8 cycles
 SCF Done:  E(RB3LYP) =  -702.684467832     A.U. after    9 cycles
 SCF Done:  E(RB3LYP) =  -702.684467999     A.U. after    8 cycles
 SCF Done:  E(RB3LYP) =  -702.684468129     A.U. after    7 cycles
 SCF Done:  E(RB3LYP) =  -702.684468177     A.U. after    7 cycles
 SCF Done:  E(RB3LYP) =  -702.684468212     A.U. after    7 cycles
 Optimization completed.
    -- Stationary point found.
 Normal termination of Gaussian 16 at Thu Dec 10 10:11:46 2020.

 --------------------------------------------------------------------
 #N Geom=AllCheck Guess=TCheck SCRF=Check GenChk RB3LYP/6-31G(d) Freq
 --------------------------------------------------------------------

 Structure from the checkpoint file:  "JID_4583.chk"
 ------------------------------
 CID_54149983_JID_4583_neutraal
 ------------------------------
 Charge =  0 Multiplicity = 1

 SCF Done:  E(RB3LYP) =  -702.684468212     A.U. after    1 cycles

  Exact polarizability: 133.358  10.068  95.303   5.567  -0.135  88.370
 Approx polarizability: 165.505  15.887 151.079  13.873   4.381 139.340

                      1                      2                      3
                      A                      A                      A
 Frequencies --     14.1152                52.1905                97.1959
 Red. masses --      6.4667                 3.5305                 8.9203
 Frc consts  --      0.0008                 0.0057                 0.0497
 IR Inten    --      0.2299                 4.4048                 2.4674

                      4                      5                      6
                      A                      A                      A
 Frequencies --    114.4809               119.1813               164.7397
 Red. masses --      3.7724                 4.4870                 3.5230
 Frc consts  --      0.0291                 0.0376                 0.0563
 IR Inten    --      4.6661                 2.2114                 2.0297

                      7                      8                      9
                      A                      A                      A
 Frequencies --    174.7402               253.6874               313.1070
 Red. masses --      3.5780                 8.6337                 2.8689
 Frc consts  --      0.0644                 0.3274                 0.1657
 IR Inten    --      1.0738                 0.8968                10.3896

                     10                     11                     12
                      A                      A                      A
 Frequencies --    328.2073               396.6633               405.4282
 Red. masses --      2.8899                 2.0072                 1.9746
 Frc consts  --      0.1834                 0.1861                 0.1912
 IR Inten    --      0.3650                 6.4461                11.9655

                     13                     14                     15
                      A                      A                      A
 Frequencies --    466.3732               472.8333               478.7587
 Red. masses --      1.6723                 1.6855                 3.5477
 Frc consts  --      0.2143                 0.2220                 0.4791
 IR Inten    --     50.4031                54.0927                29.2190

                     16                     17                     18
                      A                      A                      A
 Frequencies --    540.4454               556.7229               582.0459
 Red. masses --      1.1236                 4.1325                 5.0838
 Frc consts  --      0.1934                 0.7546                 1.0147
 IR Inten    --     92.1582                18.1041                 1.1664

                     19                     20                     21
                      A                      A                      A
 Frequencies --    595.8273               633.2364               691.7491
 Red. masses --      5.0407                 2.5682                 2.6151
 Frc consts  --      1.0543                 0.6068                 0.7373
 IR Inten    --      5.9121                15.6971                47.3229

                     22                     23                     24
                      A                      A                      A
 Frequencies --    727.4565               732.9317               755.3327
 Red. masses --      5.3645                 7.9564                 9.2094
 Frc consts  --      1.6726                 2.5182                 3.0957
 IR Inten    --      6.4005                14.4126                33.5566

                     25                     26                     27
                      A                      A                      A
 Frequencies --    758.6057               821.7782               827.9161
 Red. masses --      3.3465                 1.5756                 2.2415
 Frc consts  --      1.1347                 0.6269                 0.9053
 IR Inten    --     10.4222                 1.4901                39.3736

                     28                     29                     30
                      A                      A                      A
 Frequencies --    948.6600               975.9005               983.0139
 Red. masses --      2.8415                 2.3664                 1.9686
 Frc consts  --      1.5067                 1.3278                 1.1208
 IR Inten    --      4.2914                 5.8756                31.9942

                     31                     32                     33
                      A                      A                      A
 Frequencies --   1006.1495              1032.5987              1035.2339
 Red. masses --      2.6044                 2.0961                 1.8843
 Frc consts  --      1.5534                 1.3168                 1.1898
 IR Inten    --      4.4770                 0.5750                 9.6140

                     34                     35                     36
                      A                      A                      A
 Frequencies --   1091.7691              1097.2581              1099.0617
 Red. masses --      2.4401                 2.7246                 1.9659
 Frc consts  --      1.7136                 1.9327                 1.3991
 IR Inten    --     14.0737                24.5242                51.4535

                     37                     38                     39
                      A                      A                      A
 Frequencies --   1145.8897              1160.5118              1178.8540
 Red. masses --      2.8150                 1.9929                 2.2737
 Frc consts  --      2.1778                 1.5814                 1.8617
 IR Inten    --     74.9365                77.4228                86.1605

                     40                     41                     42
                      A                      A                      A
 Frequencies --   1210.0665              1212.9090              1224.5224
 Red. masses --      1.8320                 1.1138                 1.3655
 Frc consts  --      1.5805                 0.9654                 1.2064
 IR Inten    --     63.6326                 3.1252                55.1484

                     43                     44                     45
                      A                      A                      A
 Frequencies --   1253.8514              1301.2262              1316.8876
 Red. masses --      1.6575                 1.7139                 2.0428
 Frc consts  --      1.5353                 1.7098                 2.0873
 IR Inten    --     78.1106                 9.8355                69.8145

                     46                     47                     48
                      A                      A                      A
 Frequencies --   1330.5457              1348.1736              1357.1579
 Red. masses --      2.1052                 1.4747                 1.3933
 Frc consts  --      2.1959                 1.5793                 1.5121
 IR Inten    --    120.6450                12.3815                 8.3823

                     49                     50                     51
                      A                      A                      A
 Frequencies --   1370.3995              1389.6937              1409.5941
 Red. masses --      1.4602                 1.2690                 1.7142
 Frc consts  --      1.6156                 1.4439                 2.0068
 IR Inten    --      4.4944                 2.0086                 1.8689

                     52                     53                     54
                      A                      A                      A
 Frequencies --   1430.9081              1464.9355              1488.0413
 Red. masses --      1.4476                 1.6091                 1.7475
 Frc consts  --      1.7463                 2.0346                 2.2798
 IR Inten    --     11.2242               105.8817                39.0456

                     55                     56                     57
                      A                      A                      A
 Frequencies --   1498.5440              1506.3490              1513.6734
 Red. masses --      1.0980                 2.2718                 1.1001
 Frc consts  --      1.4527                 3.0371                 1.4851
 IR Inten    --      5.0458               175.9115                 9.5974

                     58                     59                     60
                      A                      A                      A
 Frequencies --   1525.1601              1539.3992              1585.8519
 Red. masses --      1.1137                 1.3122                 1.0918
 Frc consts  --      1.5263                 1.8321                 1.6178
 IR Inten    --     14.7316                52.5885                 9.2538

                     61                     62                     63
                      A                      A                      A
 Frequencies --   1821.7005              1839.7111              2952.1058
 Red. masses --      8.3798                10.3449                 1.0750
 Frc consts  --     16.3846                20.6290                 5.5199
 IR Inten    --    501.5274               346.7107               110.0959

                     64                     65                     66
                      A                      A                      A
 Frequencies --   2995.5188              3025.6771              3043.6124
 Red. masses --      1.0742                 1.0741                 1.0895
 Frc consts  --      5.6790                 5.7936                 5.9462
 IR Inten    --     51.0192                41.7795                75.3959

                     67                     68                     69
                      A                      A                      A
 Frequencies --   3051.6826              3073.0391              3106.1810
 Red. masses --      1.0630                 1.0595                 1.1013
 Frc consts  --      5.8328                 5.8952                 6.2604
 IR Inten    --     28.4453                11.7432                19.4949

                     70                     71                     72
                      A                      A                      A
 Frequencies --   3123.5905              3165.1819              3183.5225
 Red. masses --      1.1057                 1.0897                 1.0909
 Frc consts  --      6.3564                 6.4318                 6.5138
 IR Inten    --     21.9803                 2.2834                 3.4987

                     73                     74                     75
                      A                      A                      A
 Frequencies --   3541.5102              3646.5561              3741.7513
 Red. masses --      1.0750                 1.0784                 1.0646
 Frc consts  --      7.9437                 8.4487                 8.7821
 IR Inten    --      0.8382                41.0155                92.5047

 - Thermochemistry -
 -------------------
 Temperature   298.150 Kelvin.  Pressure   1.00000 Atm.
 Atom     1 has atomic number  6 and mass  12.00000

 Molecular mass:   199.09569 amu.
 Principal axes and moments of inertia in atomic units:
                           1         2         3
     Eigenvalues --  1115.455744613.987594729.29749
           X            0.99990   0.01387  -0.00281
           Y           -0.01413   0.99061  -0.13598
           Z            0.00090   0.13600   0.99071
 This molecule is an asymmetric top.
 Rotational symmetry number  1.
 Warning -- assumption of classical behavior for rotation
           may cause significant error
 Rotational temperatures (Kelvin)      0.07765     0.01877     0.01831
 Rotational constants (GHZ):           1.61794     0.39115     0.38161
 Zero-point vibrational energy     594663.0 (Joules/Mol)
                                  142.12786 (Kcal/Mol)
 Warning -- explicit consideration of  19 degrees of freedom as
           vibrations may cause significant error
 Vibrational temperatures:     20.31    75.09   139.84   164.71   171.48
          (Kelvin)            237.02   251.41   365.00   450.49   472.22
                              570.71   583.32   671.01   680.30   688.83
                              777.58   801.00   837.43   857.26   911.09
                              995.27  1046.65  1054.53  1086.76  1091.46
                             1182.36  1191.19  1364.91  1404.10  1414.34
                             1447.62  1485.68  1489.47  1570.81  1578.71
                             1581.30  1648.68  1669.72  1696.11  1741.02
                             1745.11  1761.81  1804.01  1872.17  1894.71
                             1914.36  1939.72  1952.65  1971.70  1999.46
                             2028.09  2058.76  2107.72  2140.96  2156.07
                             2167.30  2177.84  2194.37  2214.85  2281.69
                             2621.02  2646.93  4247.42  4309.88  4353.27
                             4379.08  4390.69  4421.42  4469.10  4494.15
                             4553.99  4580.38  5095.44  5246.58  5383.55

 Zero-point correction=                           0.226495 (Hartree/Particle)
 Thermal correction to Energy=                    0.239100
 Thermal correction to Enthalpy=                  0.240044
 Thermal correction to Gibbs Free Energy=         0.185871
 Sum of electronic and zero-point Energies=           -702.457973
 Sum of electronic and thermal Energies=              -702.445368
 Sum of electronic and thermal Enthalpies=            -702.444424
 Sum of electronic and thermal Free Energies=         -702.498598

                     E (Thermal)             CV                S
                      KCal/Mol        Cal/Mol-Kelvin    Cal/Mol-Kelvin
 Total                  150.038             48.121            114.018
 Electronic               0.000              0.000              0.000
 Translational            0.889              2.981             41.771
 Rotational               0.889              2.981             31.565
 Vibrational            148.260             42.160             40.682
 Vibration     1          0.593              1.986              7.326
 Vibration     2          0.596              1.977              4.733
 Vibration     3          0.603              1.951              3.510
 Vibration     4          0.607              1.937              3.191
 Vibration     5          0.609              1.933              3.114
 Vibration     6          0.623              1.886              2.495
 Vibration     7          0.627              1.874              2.384
 Vibration     8          0.665              1.757              1.705
 Vibration     9          0.701              1.649              1.346
 Vibration    10          0.711              1.619              1.269
 Vibration    11          0.763              1.477              0.975
 Vibration    12          0.770              1.458              0.943
 Vibration    13          0.824              1.325              0.748
 Vibration    14          0.830              1.310              0.730
 Vibration    15          0.835              1.297              0.713
 Vibration    16          0.896              1.161              0.564
 Vibration    17          0.912              1.125              0.530
 Vibration    18          0.939              1.070              0.482
 Vibration    19          0.954              1.041              0.457

                           ! Non-Optimized Parameters !
 Normal termination of Gaussian 16 at Thu Dec 10 10:20:24 2020.

 ----------------------------------------------------------------------
 # B3LYP/6-311++G(d,p) empiricaldispersion=gd3bj scf=xqc pop=npa geom=c
 heck
 ----------------------------------------------------------------------

 --------------------------------------
 CID_54149983_JID_4583_Energie_neutraal
 --------------------------------------
 Structure from the checkpoint file:  "JID_4583.chk"
 Charge =  0 Multiplicity = 1

 SCF Done:  E(RB3LYP) =  -702.902549182     A.U. after   14 cycles
 Normal termination of Gaussian 16 at Thu Dec 10 10:23:59 2020.

 ----------------------------------------------------------------------
 # B3LYP/6-311++G(d,p) empiricaldispersion=gd3bj scf=xqc pop=npa geom=c
 heck
 ----------------------------------------------------------------------

 ------------------------------------
 CID_54149983_JID_4583_Energie_kation
 ------------------------------------
 Structure from the checkpoint file:  "JID_4583.chk"
 Charge =  1 Multiplicity = 2

 SCF Done:  E(UB3LYP) =  -702.589339380     A.U. after   25 cycles
 Normal termination of Gaussian 16 at Thu Dec 10 10:33:08 2020.
 Gaussian 16:  ES64L-G16RevA.03 25-Dec-2016

 ----------------------------------------------------------------------
 # B3LYP/6-311++G(d,p) empiricaldispersion=gd3bj scf=xqc pop=npa geom=c
 heck
 ----------------------------------------------------------------------

 -----------------------------------
 CID_54149983_JID_4583_Energie_anion
 -----------------------------------
 Structure from the checkpoint file:  "JID_4583.chk"
 Charge = -1 Multiplicity = 2

                         Standard orientation:
 ---------------------------------------------------------------------
 Center     Atomic      Atomic             Coordinates (Angstroms)
 Number     Number       Type             X           Y           Z
 ---------------------------------------------------------------------
      1          6           0       -0.179657    0.931080   -0.948565
      2          6           0        1.081595    0.175947   -1.374361
      3          7           0        1.774688   -0.366839   -0.207029
      4          6           0        0.978402   -1.230410    0.653863
      5          6           0       -0.296032   -0.513064    1.110533
      6          6           0       -1.096297    0.046211   -0.090302
      7          6           0       -2.281169    0.859282    0.445226
      8          8           0       -2.221025    1.938304    1.007972
      9          7           0       -3.401066    0.125537    0.189113
     10          6           0       -3.142600   -1.145356   -0.453352
     11          7           0       -1.753923   -0.994424   -0.909098
     12          6           0        3.028197   -0.015004    0.187276
     13          8           0        3.594135   -0.410041    1.195116
     14          8           0        3.625258    0.849187   -0.686795
     15          1           0        0.092758    1.817157   -0.364998
     16          1           0       -0.731423    1.258185   -1.835464
     17          1           0        1.763639    0.824519   -1.920132
     18          1           0        0.805590   -0.657077   -2.037278
     19          1           0        0.726253   -2.148323    0.098861
     20          1           0        1.597311   -1.518195    1.503274
     21          1           0       -0.026908    0.322099    1.766293
     22          1           0       -0.923608   -1.200991    1.691546
     23          1           0       -4.316002    0.433569    0.484957
     24          1           0       -3.817194   -1.303333   -1.305055
     25          1           0       -3.286264   -1.982533    0.253237
     26          1           0       -1.263514   -1.881937   -0.862260
     27          1           0        4.499890    1.015218   -0.296139
 ---------------------------------------------------------------------

 SCF Done:  E(UB3LYP) =  -702.895760320     A.U. after   31 cycles

 The electronic state is 2-A.
 Alpha  occ. eigenvalues --  -19.07925 -19.00558 -18.99579 -14.25563 -14.24249
 Alpha  occ. eigenvalues --  -14.20874 -10.23113 -10.17433 -10.13364 -10.12182
 Alpha  occ. eigenvalues --  -10.11629 -10.11281 -10.08086 -10.07750  -1.02259
 Alpha  occ. eigenvalues --   -0.94769  -0.92431  -0.87343  -0.86041  -0.78068
 Alpha  occ. eigenvalues --   -0.70080  -0.67841  -0.62336  -0.57330  -0.55674
 Alpha  occ. eigenvalues --   -0.53785  -0.49843  -0.46801  -0.44197  -0.41429
 Alpha  occ. eigenvalues --   -0.40392  -0.39103  -0.38177  -0.37679  -0.36726
 Alpha  occ. eigenvalues --   -0.35101  -0.34392  -0.33897  -0.32862  -0.32240
 Alpha  occ. eigenvalues --   -0.31616  -0.30558  -0.29074  -0.28404  -0.26762
 Alpha  occ. eigenvalues --   -0.25458  -0.24419  -0.23478  -0.19413  -0.17069
 Alpha  occ. eigenvalues --   -0.16826  -0.15498  -0.13505   0.04044
 Alpha virt. eigenvalues --    0.05685   0.07099   0.08178   0.08943   0.09569
 Alpha virt. eigenvalues --    0.10251   0.11117   0.11229   0.11586   0.11712
 Alpha virt. eigenvalues --    0.12965   0.13214   0.13776   0.14532   0.15031

  Beta  occ. eigenvalues --  -19.07904 -19.00549 -18.99576 -14.25563 -14.24224
  Beta  occ. eigenvalues --  -14.20847 -10.23108 -10.17435 -10.13303 -10.12181
  Beta  occ. eigenvalues --  -10.11616 -10.11254 -10.08070 -10.07746  -1.02228
  Beta  occ. eigenvalues --   -0.94759  -0.92404  -0.87310  -0.86025  -0.78018
  Beta  occ. eigenvalues --   -0.70045  -0.67810  -0.62289  -0.57250  -0.55641
  Beta  occ. eigenvalues --   -0.53715  -0.49786  -0.46765  -0.44161  -0.41338
  Beta  occ. eigenvalues --   -0.40367  -0.39061  -0.38135  -0.37639  -0.36685
  Beta  occ. eigenvalues --   -0.35064  -0.34327  -0.33861  -0.32839  -0.32212
  Beta  occ. eigenvalues --   -0.31570  -0.30520  -0.29055  -0.28384  -0.26732
  Beta  occ. eigenvalues --   -0.25434  -0.24396  -0.23445  -0.19396  -0.17044
  Beta  occ. eigenvalues --   -0.16806  -0.15481  -0.13462
  Beta virt. eigenvalues --    0.06090   0.07245   0.08327   0.08696   0.09350
  Beta virt. eigenvalues --    0.10367   0.10678   0.11304   0.11371   0.11718
  Beta virt. eigenvalues --    0.11921   0.13204   0.13532   0.14091   0.14579

 Mulliken charges and spin densities:
               1          2
     1  C   -0.632607   0.432266
     2  C    0.113753  -0.808705
     3  N   -0.168898   0.139943
     4  C    0.459746  -1.061259
     5  C   -0.177274  -0.154590
     6  C    0.550260  -0.513811
     7  C   -0.566790   0.774133
     8  O   -0.368593   0.003975
     9  N   -0.509153   0.271015
    10  C    2.372306  -2.605940
    11  N   -0.232276   0.232214
    12  C    0.225266   0.002400
    13  O   -0.367707  -0.003012
    14  O   -0.263492   0.029624
    15  H    0.154097   0.032758
    16  H    0.067652   0.107210
    17  H    0.186391   0.049872
    18  H   -0.081844   0.265237
    19  H   -0.478371   0.661452
    20  H    0.189084   0.037074
    21  H    0.190883   0.002612
    22  H   -0.073174   0.261852
    23  H   -0.187372   0.519706
    24  H   -0.613021   0.795778
    25  H   -0.987366   1.199450
    26  H    0.150488   0.071736
    27  H    0.048015   0.257011
 Sum of Mulliken charges =  -1.00000   1.00000

 Dipole moment (field-independent basis, Debye):
    X=              5.9963    Y=              4.0094    Z=             -1.1956  Tot=              7.3117
 Quadrupole moment (field-independent basis, Debye-Ang):
   XX=           -162.5815   YY=           -128.2648   ZZ=           -113.3295
   XY=             -8.2994   XZ=             -3.6775   YZ=             -2.6702

 Summary of Natural Population Analysis:

                                       Natural Population
                Natural  -----------------------------------------------
    Atom  No    Charge         Core      Valence    Rydberg      Total
 -----------------------------------------------------------------------
      C    1   -0.19451      0.99958     2.18605    0.00889     3.19451
      C    2   -0.08558      0.99960     2.07576    0.01021     3.08558
      N    3   -0.26101      0.99963     2.75068    0.01070     3.76101
      C    4   -0.08575      0.99961     2.07510    0.01104     3.08575
      C    5   -0.20050      0.99958     2.19156    0.00936     3.20050
      C    6    0.02798      0.99952     1.95685    0.01566     2.97202
      C    7    0.34718      0.99959     1.62831    0.02493     2.65282
      O    8   -0.32321      0.99987     3.31799    0.00535     4.32321
      N    9   -0.31458      0.99966     2.80467    0.01024     3.81458
      C   10    0.02142      0.99965     1.96553    0.01340     2.97858
      N   11   -0.35091      0.99972     2.83830    0.01288     3.85091
      C   12    0.46083      0.99968     1.51524    0.02425     2.53917
      O   13   -0.34255      0.99987     3.33713    0.00555     4.34255
      O   14   -0.35606      0.99988     3.35053    0.00565     4.35606
      H   15    0.10714      0.00000     0.39171    0.00115     0.39286
      H   16    0.10772      0.00000     0.39115    0.00113     0.39228
      H   17    0.11242      0.00000     0.38632    0.00126     0.38758
      H   18    0.09605      0.00000     0.40266    0.00129     0.40395
      H   19    0.09297      0.00000     0.40519    0.00184     0.40703
      H   20    0.11831      0.00000     0.38065    0.00104     0.38169
      H   21    0.10754      0.00000     0.39122    0.00124     0.39246
      H   22    0.10864      0.00000     0.39020    0.00116     0.39136
      H   23    0.20296      0.00000     0.29341    0.00363     0.29704
      H   24    0.09057      0.00000     0.40611    0.00333     0.40943
      H   25    0.08463      0.00000     0.40665    0.00872     0.41537
      H   26    0.18540      0.00000     0.30944    0.00516     0.31460
      H   27    0.24290      0.00000     0.25330    0.00380     0.25710
 =======================================================================
   * Total *   -0.00000     13.99543    38.80169    0.20288    53.00000

 Normal termination of Gaussian 16 at Thu Dec 10 10:44:48 2020.
