 Gaussian 16, Revision A.03,

 -----------------------------------------------------------
 # opt freq B3LYP/6-31G(d) empiricaldispersion=gd3bj scf=xqc
 -----------------------------------------------------------

 -------------------------------
 CID_115674826_JID_4983_neutraal
 -------------------------------
 Symbolic Z-matrix:
 Charge =  0 Multiplicity = 1

 SCF Done:  E(RB3LYP) =  -603.570161264     A.U. after   12 cycles
 SCF Done:  E(RB3LYP) =  -603.574201703     A.U. after   10 cycles
 SCF Done:  E(RB3LYP) =  -603.575021159     A.U. after   10 cycles
 SCF Done:  E(RB3LYP) =  -603.575267987     A.U. after   11 cycles
 SCF Done:  E(RB3LYP) =  -603.575448225     A.U. after   10 cycles
 SCF Done:  E(RB3LYP) =  -603.575570845     A.U. after   10 cycles
 SCF Done:  E(RB3LYP) =  -603.576145729     A.U. after   11 cycles
 SCF Done:  E(RB3LYP) =  -603.560595653     A.U. after   11 cycles
 SCF Done:  E(RB3LYP) =  -603.576844513     A.U. after   12 cycles
 SCF Done:  E(RB3LYP) =  -603.575333400     A.U. after   11 cycles
 SCF Done:  E(RB3LYP) =  -603.578991208     A.U. after    9 cycles
 SCF Done:  E(RB3LYP) =  -603.578994595     A.U. after    9 cycles
 SCF Done:  E(RB3LYP) =  -603.578995080     A.U. after    7 cycles
 SCF Done:  E(RB3LYP) =  -603.578994983     A.U. after    7 cycles
 SCF Done:  E(RB3LYP) =  -603.578995171     A.U. after    7 cycles
 SCF Done:  E(RB3LYP) =  -603.578995214     A.U. after    6 cycles
 Optimization completed.
    -- Stationary point found.
 Normal termination of Gaussian 16 at Thu Dec 10 11:18:52 2020.

 --------------------------------------------------------------------
 #N Geom=AllCheck Guess=TCheck SCRF=Check GenChk RB3LYP/6-31G(d) Freq
 --------------------------------------------------------------------

 Structure from the checkpoint file:  "JID_4983.chk"
 -------------------------------
 CID_115674826_JID_4983_neutraal
 -------------------------------
 Charge =  0 Multiplicity = 1

 SCF Done:  E(RB3LYP) =  -603.578995214     A.U. after    1 cycles

  Exact polarizability: 151.436   1.023 145.159   0.068  -0.536 119.302
 Approx polarizability: 188.682  -1.064 191.048  -0.985  -0.152 180.173

                      1                      2                      3
                      A                      A                      A
 Frequencies --     28.0920                44.4567                46.1973
 Red. masses --      3.0210                 2.9413                 3.3755
 Frc consts  --      0.0014                 0.0034                 0.0042
 IR Inten    --      0.1400                 0.1487                 1.2441

                      4                      5                      6
                      A                      A                      A
 Frequencies --     63.4032                90.1299               100.6703
 Red. masses --      3.0735                 3.3502                 2.6651
 Frc consts  --      0.0073                 0.0160                 0.0159
 IR Inten    --      0.0543                 0.3672                 0.2786

                      7                      8                      9
                      A                      A                      A
 Frequencies --    130.3455               169.9423               189.4084
 Red. masses --      2.6156                 1.9338                 2.7981
 Frc consts  --      0.0262                 0.0329                 0.0591
 IR Inten    --      0.3522                 0.4602                 0.9837

                     10                     11                     12
                      A                      A                      A
 Frequencies --    203.0016               237.0969               238.8783
 Red. masses --      2.2638                 1.2698                 1.0708
 Frc consts  --      0.0550                 0.0421                 0.0360
 IR Inten    --      0.4687                 0.3851                 0.5132

                     13                     14                     15
                      A                      A                      A
 Frequencies --    258.0278               273.4860               277.6994
 Red. masses --      2.1428                 1.1547                 1.3312
 Frc consts  --      0.0841                 0.0509                 0.0605
 IR Inten    --      4.6526                 7.6828                 5.3351

                     16                     17                     18
                      A                      A                      A
 Frequencies --    296.6951               311.8211               320.4272
 Red. masses --      1.1259                 2.6523                 1.8997
 Frc consts  --      0.0584                 0.1519                 0.1149
 IR Inten    --     68.7251                 0.8712                 1.0784

                     19                     20                     21
                      A                      A                      A
 Frequencies --    347.8621               365.9532               396.0859
 Red. masses --      2.1787                 2.0437                 2.7303
 Frc consts  --      0.1553                 0.1613                 0.2524
 IR Inten    --      4.4425                 8.3680                 6.6693

                     22                     23                     24
                      A                      A                      A
 Frequencies --    409.6457               422.9967               444.9412
 Red. masses --      1.8246                 2.2210                 2.2535
 Frc consts  --      0.1804                 0.2341                 0.2629
 IR Inten    --      0.7074                 3.4347                 4.0532

                     25                     26                     27
                      A                      A                      A
 Frequencies --    451.6107               517.7311               558.1869
 Red. masses --      2.6491                 2.3314                 2.6307
 Frc consts  --      0.3183                 0.3682                 0.4829
 IR Inten    --      8.3258                12.3366                 1.6169

                     28                     29                     30
                      A                      A                      A
 Frequencies --    622.7372               708.1924               724.2477
 Red. masses --      2.1982                 1.8287                 1.5795
 Frc consts  --      0.5023                 0.5404                 0.4881
 IR Inten    --      0.9864                56.9721                17.6922

                     31                     32                     33
                      A                      A                      A
 Frequencies --    781.7777               784.5407               804.3567
 Red. masses --      2.6784                 1.4806                 1.4136
 Frc consts  --      0.9645                 0.5369                 0.5388
 IR Inten    --     49.3227                 4.8597                16.2776

                     34                     35                     36
                      A                      A                      A
 Frequencies --    827.8817               862.0122               881.1379
 Red. masses --      2.2563                 1.7034                 1.9919
 Frc consts  --      0.9112                 0.7458                 0.9112
 IR Inten    --      5.5357                 6.1762                 2.4383

                     37                     38                     39
                      A                      A                      A
 Frequencies --    903.0304               922.2332               931.6997
 Red. masses --      1.5949                 2.0126                 1.8837
 Frc consts  --      0.7663                 1.0086                 0.9634
 IR Inten    --      3.6896                 6.0743                11.1974

                     40                     41                     42
                      A                      A                      A
 Frequencies --    938.8536               972.9855               985.2093
 Red. masses --      1.5588                 1.9664                 1.8406
 Frc consts  --      0.8095                 1.0968                 1.0526
 IR Inten    --      4.4177                 7.6343                 7.1187

                     43                     44                     45
                      A                      A                      A
 Frequencies --   1012.9778              1014.6814              1029.2460
 Red. masses --      1.5727                 1.4550                 1.6350
 Frc consts  --      0.9508                 0.8826                 1.0205
 IR Inten    --      2.8525                 1.0976                 1.2296

                     46                     47                     48
                      A                      A                      A
 Frequencies --   1051.3881              1080.4564              1094.2153
 Red. masses --      1.6424                 1.7981                 1.3324
 Frc consts  --      1.0697                 1.2367                 0.9399
 IR Inten    --      7.2658                 1.2333                 0.8295

                     49                     50                     51
                      A                      A                      A
 Frequencies --   1115.0835              1138.6309              1151.6978
 Red. masses --      2.1441                 1.8765                 2.6713
 Frc consts  --      1.5708                 1.4334                 2.0876
 IR Inten    --      0.1622                26.2250                33.0351

                     52                     53                     54
                      A                      A                      A
 Frequencies --   1161.8703              1179.2051              1189.8198
 Red. masses --      1.5790                 1.9040                 2.7719
 Frc consts  --      1.2558                 1.5599                 2.3120
 IR Inten    --     24.0974                 3.1758                57.5722

                     55                     56                     57
                      A                      A                      A
 Frequencies --   1218.2092              1221.5485              1240.0347
 Red. masses --      1.9640                 2.8774                 1.4210
 Frc consts  --      1.7172                 2.5297                 1.2874
 IR Inten    --     32.7327                 5.0604                 0.7999

                     58                     59                     60
                      A                      A                      A
 Frequencies --   1278.3317              1292.4838              1320.6722
 Red. masses --      1.3661                 1.2485                 1.2447
 Frc consts  --      1.3153                 1.2288                 1.2791
 IR Inten    --      0.6221                 2.4715                 1.6038

                     61                     62                     63
                      A                      A                      A
 Frequencies --   1330.0551              1346.3847              1366.9598
 Red. masses --      1.1793                 1.2485                 1.3311
 Frc consts  --      1.2292                 1.3335                 1.4655
 IR Inten    --      1.2787                 5.1903                11.5911

                     64                     65                     66
                      A                      A                      A
 Frequencies --   1376.9981              1385.9516              1401.0078
 Red. masses --      1.4868                 1.3803                 1.3243
 Frc consts  --      1.6610                 1.5621                 1.5315
 IR Inten    --     21.4764                 6.1471                 0.4702

                     67                     68                     69
                      A                      A                      A
 Frequencies --   1402.5168              1408.4357              1412.7559
 Red. masses --      1.3940                 1.4349                 1.3717
 Frc consts  --      1.6156                 1.6770                 1.6130
 IR Inten    --      7.6297                 6.7285                 4.1308

                     70                     71                     72
                      A                      A                      A
 Frequencies --   1421.2210              1426.5870              1439.1850
 Red. masses --      1.3734                 1.2985                 1.3476
 Frc consts  --      1.6345                 1.5570                 1.6445
 IR Inten    --      3.9519                 8.1938                 5.0654

                     73                     74                     75
                      A                      A                      A
 Frequencies --   1442.6569              1446.9849              1447.9412
 Red. masses --      1.2993                 1.2647                 1.2617
 Frc consts  --      1.5933                 1.5602                 1.5585
 IR Inten    --      8.2428                17.4849                 3.9132

                     76                     77                     78
                      A                      A                      A
 Frequencies --   1499.6594              1504.6789              1513.2368
 Red. masses --      1.0850                 1.1039                 1.0505
 Frc consts  --      1.4377                 1.4725                 1.4173
 IR Inten    --      2.7957                 5.3118                 1.0975

                     79                     80                     81
                      A                      A                      A
 Frequencies --   1515.8423              1516.8608              1521.6125
 Red. masses --      1.0788                 1.0554                 1.0800
 Frc consts  --      1.4605                 1.4307                 1.4732
 IR Inten    --      3.5391                 2.8513                 2.5153

                     82                     83                     84
                      A                      A                      A
 Frequencies --   1523.6687              1525.8992              1530.5692
 Red. masses --      1.0796                 1.0587                 1.0618
 Frc consts  --      1.4767                 1.4524                 1.4655
 IR Inten    --      4.8654                 5.7676                 3.5470

                     85                     86                     87
                      A                      A                      A
 Frequencies --   1534.4480              1536.8387              1539.7627
 Red. masses --      1.0753                 1.0719                 1.0701
 Frc consts  --      1.4917                 1.4916                 1.4948
 IR Inten    --      4.7622                 8.0245                 4.7070

                     88                     89                     90
                      A                      A                      A
 Frequencies --   1544.9323              1548.6349              1557.0809
 Red. masses --      1.1413                 1.0809                 1.0564
 Frc consts  --      1.6050                 1.5273                 1.5091
 IR Inten    --     11.1050                 3.3644                 1.5853

                     91                     92                     93
                      A                      A                      A
 Frequencies --   3001.5734              3017.4612              3026.5438
 Red. masses --      1.0714                 1.0807                 1.0641
 Frc consts  --      5.6874                 5.7976                 5.7430
 IR Inten    --     29.0328                31.5512                16.7240

                     94                     95                     96
                      A                      A                      A
 Frequencies --   3031.7823              3033.3479              3037.7283
 Red. masses --      1.0641                 1.0644                 1.0443
 Frc consts  --      5.7625                 5.7704                 5.6778
 IR Inten    --     40.2918                27.3550                38.0047

                     97                     98                     99
                      A                      A                      A
 Frequencies --   3039.7576              3040.3136              3044.0454
 Red. masses --      1.0378                 1.0415                 1.0437
 Frc consts  --      5.6501                 5.6719                 5.6983
 IR Inten    --     10.3834                37.1237                23.6581

                    100                    101                    102
                      A                      A                      A
 Frequencies --   3051.9140              3057.2453              3060.6231
 Red. masses --      1.0582                 1.0705                 1.0929
 Frc consts  --      5.8073                 5.8952                 6.0319
 IR Inten    --     44.8784                34.0799                25.0527

                    103                    104                    105
                      A                      A                      A
 Frequencies --   3066.8173              3071.1816              3074.5735
 Red. masses --      1.0949                 1.0916                 1.0934
 Frc consts  --      6.0676                 6.0662                 6.0897
 IR Inten    --     54.6082                74.9481                28.5064

                    106                    107                    108
                      A                      A                      A
 Frequencies --   3095.0021              3097.2983              3098.8734
 Red. masses --      1.1007                 1.1003                 1.1010
 Frc consts  --      6.2119                 6.2189                 6.2295
 IR Inten    --     11.1381               100.6475                42.6065

                    109                    110                    111
                      A                      A                      A
 Frequencies --   3101.3584              3106.7830              3109.5388
 Red. masses --      1.1004                 1.0975                 1.0995
 Frc consts  --      6.2359                 6.2411                 6.2638
 IR Inten    --      2.2195                22.8754                63.5741

                    112                    113                    114
                      A                      A                      A
 Frequencies --   3127.7483              3134.2338              3138.8520
 Red. masses --      1.1027                 1.1010                 1.0995
 Frc consts  --      6.3557                 6.3723                 6.3824
 IR Inten    --     30.2907                31.7323                10.8755

                    115                    116                    117
                      A                      A                      A
 Frequencies --   3149.6026              3507.9155              3726.6947
 Red. masses --      1.0986                 1.0738                 1.0660
 Frc consts  --      6.4209                 7.7851                 8.7231
 IR Inten    --     16.3399                 2.4732                 5.9055

 - Thermochemistry -
 -------------------
 Temperature   298.150 Kelvin.  Pressure   1.00000 Atm.
 Atom     1 has atomic number  6 and mass  12.00000

 Molecular mass:   201.20926 amu.
 Principal axes and moments of inertia in atomic units:
                           1         2         3
     Eigenvalues --  2648.420693724.875115574.52446
           X            1.00000  -0.00097  -0.00054
           Y            0.00097   1.00000   0.00154
           Z            0.00054  -0.00154   1.00000
 This molecule is an asymmetric top.
 Rotational symmetry number  1.
 Warning -- assumption of classical behavior for rotation
           may cause significant error
 Rotational temperatures (Kelvin)      0.03270     0.02325     0.01554
 Rotational constants (GHZ):           0.68144     0.48451     0.32375
 Zero-point vibrational energy    1008777.4 (Joules/Mol)
                                  241.10359 (Kcal/Mol)
 Warning -- explicit consideration of  27 degrees of freedom as
           vibrations may cause significant error
 Vibrational temperatures:     40.42    63.96    66.47    91.22   129.68
          (Kelvin)            144.84   187.54   244.51   272.52   292.07
                              341.13   343.69   371.24   393.49   399.55
                              426.88   448.64   461.02   500.50   526.53
                              569.88   589.39   608.60   640.17   649.77
                              744.90   803.11   895.98  1018.93  1042.03
                             1124.80  1128.78  1157.29  1191.14  1240.24
                             1267.76  1299.26  1326.89  1340.51  1350.80
                             1399.91  1417.50  1457.45  1459.90  1480.86
                             1512.71  1554.54  1574.33  1604.36  1638.24
                             1657.04  1671.67  1696.61  1711.89  1752.73
                             1757.54  1784.13  1839.23  1859.60  1900.15
                             1913.65  1937.15  1966.75  1981.19  1994.08
                             2015.74  2017.91  2026.42  2032.64  2044.82
                             2052.54  2070.67  2075.66  2081.89  2083.26
                             2157.68  2164.90  2177.21  2180.96  2182.42
                             2189.26  2192.22  2195.43  2202.15  2207.73
                             2211.17  2215.38  2222.81  2228.14  2240.29
                             4318.59  4341.45  4354.52  4362.06  4364.31
                             4370.61  4373.53  4374.33  4379.70  4391.02
                             4398.69  4403.55  4412.47  4418.75  4423.63
                             4453.02  4456.32  4458.59  4462.16  4469.97
                             4473.93  4500.13  4509.46  4516.11  4531.58
                             5047.11  5361.88

 Zero-point correction=                           0.384223 (Hartree/Particle)
 Thermal correction to Energy=                    0.402122
 Thermal correction to Enthalpy=                  0.403066
 Thermal correction to Gibbs Free Energy=         0.338502
 Sum of electronic and zero-point Energies=           -603.194772
 Sum of electronic and thermal Energies=              -603.176873
 Sum of electronic and thermal Enthalpies=            -603.175929
 Sum of electronic and thermal Free Energies=         -603.240494

                     E (Thermal)             CV                S
                      KCal/Mol        Cal/Mol-Kelvin    Cal/Mol-Kelvin
 Total                  252.336             67.476            135.888
 Electronic               0.000              0.000              0.000
 Translational            0.889              2.981             41.802
 Rotational               0.889              2.981             32.375
 Vibrational            250.558             61.514             61.711
 Vibration     1          0.593              1.984              5.960
 Vibration     2          0.595              1.980              5.050
 Vibration     3          0.595              1.979              4.974
 Vibration     4          0.597              1.972              4.348
 Vibration     5          0.602              1.956              3.657
 Vibration     6          0.604              1.949              3.441
 Vibration     7          0.612              1.923              2.941
 Vibration     8          0.625              1.879              2.436
 Vibration     9          0.633              1.854              2.234
 Vibration    10          0.639              1.836              2.106
 Vibration    11          0.656              1.784              1.825
 Vibration    12          0.657              1.781              1.811
 Vibration    13          0.667              1.749              1.675
 Vibration    14          0.676              1.722              1.574
 Vibration    15          0.679              1.715              1.548
 Vibration    16          0.690              1.680              1.435
 Vibration    17          0.700              1.651              1.353
 Vibration    18          0.706              1.634              1.308
 Vibration    19          0.725              1.580              1.176
 Vibration    20          0.739              1.542              1.097
 Vibration    21          0.763              1.479              0.977
 Vibration    22          0.774              1.449              0.928
 Vibration    23          0.785              1.420              0.882
 Vibration    24          0.804              1.372              0.811
 Vibration    25          0.810              1.357              0.791
 Vibration    26          0.873              1.211              0.615
 Vibration    27          0.914              1.122              0.527

 Optimization completed on the basis of negligible forces.
    -- Stationary point found.
 Normal termination of Gaussian 16 at Thu Dec 10 11:32:51 2020.

 ----------------------------------------------------------------------
 # B3LYP/6-311++G(d,p) empiricaldispersion=gd3bj scf=xqc pop=npa geom=c
 heck
 ----------------------------------------------------------------------

 ---------------------------------------
 CID_115674826_JID_4983_Energie_neutraal
 ---------------------------------------
 Structure from the checkpoint file:  "JID_4983.chk"
 Charge =  0 Multiplicity = 1

 SCF Done:  E(RB3LYP) =  -603.761838134     A.U. after   13 cycles
 Normal termination of Gaussian 16 at Thu Dec 10 11:39:44 2020.

 ----------------------------------------------------------------------
 # B3LYP/6-311++G(d,p) empiricaldispersion=gd3bj scf=xqc pop=npa geom=c
 heck
 ----------------------------------------------------------------------

 -------------------------------------
 CID_115674826_JID_4983_Energie_kation
 -------------------------------------
 Structure from the checkpoint file:  "JID_4983.chk"
 Charge =  1 Multiplicity = 2

 SCF Done:  E(UB3LYP) =  -603.475601842     A.U. after   18 cycles
 Normal termination of Gaussian 16 at Thu Dec 10 11:52:32 2020.
 Gaussian 16:  ES64L-G16RevA.03 25-Dec-2016

 ----------------------------------------------------------------------
 # B3LYP/6-311++G(d,p) empiricaldispersion=gd3bj scf=xqc pop=npa geom=c
 heck
 ----------------------------------------------------------------------

 ------------------------------------
 CID_115674826_JID_4983_Energie_anion
 ------------------------------------
 Structure from the checkpoint file:  "JID_4983.chk"
 Charge = -1 Multiplicity = 2

                         Standard orientation:
 ---------------------------------------------------------------------
 Center     Atomic      Atomic             Coordinates (Angstroms)
 Number     Number       Type             X           Y           Z
 ---------------------------------------------------------------------
      1          6           0        0.254809   -3.512375    0.022726
      2          6           0        1.523009   -2.794417    0.494721
      3          6           0        2.097577   -1.807693   -0.534360
      4          6           0        1.160903   -0.660633   -0.944778
      5          6           0        0.696252    0.247895    0.203909
      6          6           0        1.861087    0.857200    1.008654
      7          6           0        2.958664    1.608506    0.236881
      8          6           0        2.532891    2.951791   -0.364342
      9          7           0       -0.144387    1.335248   -0.335157
     10          6           0       -1.447688    1.005944   -0.892071
     11          6           0       -2.524690    0.377663    0.025249
     12          6           0       -2.626343    1.110391    1.365921
     13          6           0       -3.873022    0.379212   -0.705125
     14          8           0       -2.113926   -0.985239    0.245048
     15          1           0       -0.571400   -2.810571   -0.124044
     16          1           0       -0.066231   -4.262314    0.755541
     17          1           0        0.431949   -4.033071   -0.927288
     18          1           0        1.313990   -2.270621    1.436864
     19          1           0        2.297149   -3.537847    0.728288
     20          1           0        3.038607   -1.396742   -0.146566
     21          1           0        2.366164   -2.368091   -1.440980
     22          1           0        1.654218   -0.039623   -1.702299
     23          1           0        0.276088   -1.087276   -1.428813
     24          1           0        0.123904   -0.374183    0.906521
     25          1           0        1.436547    1.530232    1.770790
     26          1           0        2.329714    0.041014    1.571946
     27          1           0        3.795702    1.777364    0.928199
     28          1           0        3.355134    0.963911   -0.557464
     29          1           0        2.155524    3.625401    0.416741
     30          1           0        3.381442    3.450459   -0.847755
     31          1           0        1.734994    2.816995   -1.098109
     32          1           0       -0.250052    2.056162    0.373990
     33          1           0       -1.865165    1.937299   -1.295254
     34          1           0       -1.313834    0.329933   -1.742841
     35          1           0       -2.882469    2.166759    1.222951
     36          1           0       -3.409022    0.663812    1.992234
     37          1           0       -1.680866    1.051196    1.912695
     38          1           0       -3.783431   -0.135107   -1.667718
     39          1           0       -4.633830   -0.142546   -0.110599
     40          1           0       -4.232353    1.398487   -0.885542
     41          1           0       -2.761053   -1.396756    0.839915
 ---------------------------------------------------------------------

 SCF Done:  E(UB3LYP) =  -603.749694160     A.U. after   26 cycles

 The electronic state is 2-A.
 Alpha  occ. eigenvalues --  -19.01185 -14.18857 -10.12118 -10.08819 -10.08469
 Alpha  occ. eigenvalues --  -10.07053 -10.06914 -10.06780 -10.06629 -10.05879
 Alpha  occ. eigenvalues --  -10.05732 -10.05440 -10.05335 -10.05220  -0.91612
 Alpha  occ. eigenvalues --   -0.80070  -0.70995  -0.68809  -0.67286  -0.63808
 Alpha  occ. eigenvalues --   -0.60360  -0.58851  -0.56759  -0.55308  -0.51302
 Alpha  occ. eigenvalues --   -0.48135  -0.46839  -0.43263  -0.39807  -0.39012
 Alpha  occ. eigenvalues --   -0.37700  -0.37271  -0.35018  -0.34512  -0.33859
 Alpha  occ. eigenvalues --   -0.32885  -0.32327  -0.31012  -0.30526  -0.29615
 Alpha  occ. eigenvalues --   -0.29287  -0.28245  -0.27631  -0.27373  -0.26420
 Alpha  occ. eigenvalues --   -0.25755  -0.25221  -0.24664  -0.24231  -0.23485
 Alpha  occ. eigenvalues --   -0.23412  -0.22799  -0.22113  -0.21264  -0.20866
 Alpha  occ. eigenvalues --   -0.17128  -0.11476   0.04354
 Alpha virt. eigenvalues --    0.06363   0.06761   0.07627   0.08172   0.08556
 Alpha virt. eigenvalues --    0.09094   0.09325   0.09932   0.10277   0.10709
 Alpha virt. eigenvalues --    0.11247   0.11600   0.11802   0.12321   0.12617

  Beta  occ. eigenvalues --  -19.01146 -14.18847 -10.12117 -10.08815 -10.08453
  Beta  occ. eigenvalues --  -10.07047 -10.06911 -10.06772 -10.06617 -10.05875
  Beta  occ. eigenvalues --  -10.05719 -10.05400 -10.05320 -10.05167  -0.91529
  Beta  occ. eigenvalues --   -0.80051  -0.70978  -0.68789  -0.67245  -0.63788
  Beta  occ. eigenvalues --   -0.60335  -0.58766  -0.56715  -0.55274  -0.51266
  Beta  occ. eigenvalues --   -0.48104  -0.46767  -0.43234  -0.39755  -0.38989
  Beta  occ. eigenvalues --   -0.37674  -0.37227  -0.34990  -0.34496  -0.33817
  Beta  occ. eigenvalues --   -0.32858  -0.32304  -0.30967  -0.30497  -0.29589
  Beta  occ. eigenvalues --   -0.29260  -0.28208  -0.27603  -0.27348  -0.26393
  Beta  occ. eigenvalues --   -0.25717  -0.25183  -0.24639  -0.24209  -0.23466
  Beta  occ. eigenvalues --   -0.23392  -0.22757  -0.22094  -0.21246  -0.20848
  Beta  occ. eigenvalues --   -0.17087  -0.11457
  Beta virt. eigenvalues --    0.06249   0.07088   0.07212   0.07821   0.08709
  Beta virt. eigenvalues --    0.09012   0.09379   0.09678   0.10105   0.10587
  Beta virt. eigenvalues --    0.11210   0.11505   0.11743   0.11979   0.12523

 Mulliken charges and spin densities:
               1          2
     1  C    0.136887  -0.829202
     2  C   -0.665144   0.520311
     3  C   -0.028269  -0.416028
     4  C    0.561846  -0.385579
     5  C   -1.346960   0.599888
     6  C    0.028555  -0.343702
     7  C   -0.696335   0.483720
     8  C    0.176354  -0.795057
     9  N    0.208530  -0.005697
    10  C    0.997871  -1.535712
    11  C   -1.896461   2.024579
    12  C    1.294092  -1.879369
    13  C    0.934512  -1.393442
    14  O   -0.133577   0.011455
    15  H    0.270335  -0.040747
    16  H   -0.231374   0.354239
    17  H    0.037517   0.076430
    18  H   -0.024083   0.154023
    19  H    0.017352   0.124564
    20  H    0.081546   0.050331
    21  H    0.073037   0.072652
    22  H    0.164960   0.022961
    23  H    0.182253  -0.057475
    24  H    0.548871  -0.240630
    25  H   -0.078134   0.229460
    26  H    0.059954   0.084013
    27  H   -0.034653   0.185273
    28  H    0.101664  -0.003401
    29  H   -0.101547   0.224130
    30  H   -0.003247   0.123753
    31  H    0.149498   0.043049
    32  H    0.167041   0.081264
    33  H   -0.286094   0.450436
    34  H    0.212444  -0.029944
    35  H   -0.300022   0.466240
    36  H   -0.553467   0.708511
    37  H   -0.335737   0.477834
    38  H   -0.125523   0.274455
    39  H   -0.394319   0.541008
    40  H   -0.077014   0.221258
    41  H   -0.093158   0.350148
 Sum of Mulliken charges =  -1.00000   1.00000

 Dipole moment (field-independent basis, Debye):
    X=              6.8661    Y=             -1.1469    Z=             -3.1576  Tot=              7.6439
 Quadrupole moment (field-independent basis, Debye-Ang):
   XX=           -163.7631   YY=           -148.3875   ZZ=           -127.3757
   XY=             -2.1699   XZ=              6.9116   YZ=              1.3609

 Summary of Natural Population Analysis:

                                       Natural Population
                Natural  -----------------------------------------------
    Atom  No    Charge         Core      Valence    Rydberg      Total
 -----------------------------------------------------------------------
      C    1   -0.29392      0.99966     2.28849    0.00577     3.29392
      C    2   -0.19149      0.99964     2.18416    0.00769     3.19149
      C    3   -0.18725      0.99963     2.18039    0.00723     3.18725
      C    4   -0.19642      0.99960     2.18885    0.00797     3.19642
      C    5   -0.01384      0.99957     2.00173    0.01254     3.01384
      C    6   -0.19174      0.99961     2.18213    0.01000     3.19174
      C    7   -0.19255      0.99964     2.18446    0.00845     3.19255
      C    8   -0.28925      0.99966     2.28514    0.00445     3.28925
      N    9   -0.34640      0.99973     2.83469    0.01197     3.84640
      C   10   -0.08894      0.99955     2.07593    0.01345     3.08894
      C   11    0.11703      0.99955     1.86909    0.01434     2.88297
      C   12   -0.30150      0.99961     2.29403    0.00786     3.30150
      C   13   -0.29521      0.99961     2.28863    0.00697     3.29521
      O   14   -0.38522      0.99989     3.37797    0.00736     4.38522
      H   15    0.11338      0.00000     0.38517    0.00145     0.38662
      H   16    0.09689      0.00000     0.40223    0.00088     0.40311
      H   17    0.08969      0.00000     0.40944    0.00086     0.41031
      H   18    0.09508      0.00000     0.40365    0.00127     0.40492
      H   19    0.09032      0.00000     0.40876    0.00092     0.40968
      H   20    0.09348      0.00000     0.40534    0.00117     0.40652
      H   21    0.09228      0.00000     0.40670    0.00101     0.40772
      H   22    0.09763      0.00000     0.40124    0.00113     0.40237
      H   23    0.10334      0.00000     0.39530    0.00137     0.39666
      H   24    0.09463      0.00000     0.40228    0.00308     0.40537
      H   25    0.09572      0.00000     0.40309    0.00120     0.40428
      H   26    0.09949      0.00000     0.39947    0.00104     0.40051
      H   27    0.09195      0.00000     0.40711    0.00094     0.40805
      H   28    0.09257      0.00000     0.40628    0.00115     0.40743
      H   29    0.09360      0.00000     0.40525    0.00115     0.40640
      H   30    0.09151      0.00000     0.40761    0.00088     0.40849
      H   31    0.10960      0.00000     0.38901    0.00139     0.39040
      H   32    0.17448      0.00000     0.32261    0.00291     0.32552
      H   33    0.09723      0.00000     0.40180    0.00096     0.40277
      H   34    0.09608      0.00000     0.40264    0.00128     0.40392
      H   35    0.10325      0.00000     0.39495    0.00180     0.39675
      H   36    0.10379      0.00000     0.39396    0.00225     0.39621
      H   37    0.10260      0.00000     0.39579    0.00161     0.39740
      H   38    0.10084      0.00000     0.39811    0.00106     0.39916
      H   39    0.10217      0.00000     0.39626    0.00157     0.39783
      H   40    0.10169      0.00000     0.39705    0.00125     0.39831
      H   41    0.23339      0.00000     0.26075    0.00586     0.26661
 =======================================================================
   * Total *   -0.00000     13.99496    42.83754    0.16750    57.00000

 Normal termination of Gaussian 16 at Thu Dec 10 12:11:09 2020.
