 Gaussian 16, Revision A.03,

 -----------------------------------------------------------
 # opt freq B3LYP/6-31G(d) empiricaldispersion=gd3bj scf=xqc
 -----------------------------------------------------------

 ------------------------------
 CID_60695527_JID_1761_neutraal
 ------------------------------
 Symbolic Z-matrix:
 Charge =  0 Multiplicity = 1

 SCF Done:  E(RB3LYP) =  -499.212701200     A.U. after   14 cycles
 SCF Done:  E(RB3LYP) =  -499.215575062     A.U. after   12 cycles
 SCF Done:  E(RB3LYP) =  -499.215995594     A.U. after   12 cycles
 SCF Done:  E(RB3LYP) =  -499.216799470     A.U. after   10 cycles
 SCF Done:  E(RB3LYP) =  -499.217187780     A.U. after   12 cycles
 SCF Done:  E(RB3LYP) =  -499.217056138     A.U. after   12 cycles
 SCF Done:  E(RB3LYP) =  -499.217647397     A.U. after   11 cycles
 SCF Done:  E(RB3LYP) =  -499.217887621     A.U. after   11 cycles
 SCF Done:  E(RB3LYP) =  -499.218004240     A.U. after   11 cycles
 SCF Done:  E(RB3LYP) =  -499.218037906     A.U. after    9 cycles
 SCF Done:  E(RB3LYP) =  -499.218065514     A.U. after    9 cycles
 SCF Done:  E(RB3LYP) =  -499.218082129     A.U. after   10 cycles
 SCF Done:  E(RB3LYP) =  -499.218090073     A.U. after   10 cycles
 SCF Done:  E(RB3LYP) =  -499.218091885     A.U. after    9 cycles
 SCF Done:  E(RB3LYP) =  -499.218091989     A.U. after    7 cycles
 SCF Done:  E(RB3LYP) =  -499.218092043     A.U. after    7 cycles
 Optimization completed.
    -- Stationary point found.
 Normal termination of Gaussian 16 at Tue Dec  8 21:09:54 2020.

 --------------------------------------------------------------------
 #N Geom=AllCheck Guess=TCheck SCRF=Check GenChk RB3LYP/6-31G(d) Freq
 --------------------------------------------------------------------

 Structure from the checkpoint file:  "JID_1761.chk"
 ------------------------------
 CID_60695527_JID_1761_neutraal
 ------------------------------
 Charge =  0 Multiplicity = 1

 SCF Done:  E(RB3LYP) =  -499.218092043     A.U. after    1 cycles

  Exact polarizability: 116.317   3.176  97.051   6.164  -3.099  80.657
 Approx polarizability: 135.084   2.058 151.901   8.796  -9.404 122.862

                      1                      2                      3
                      A                      A                      A
 Frequencies --     25.0010                58.3752                65.2955
 Red. masses --      4.5876                 3.6258                 3.3367
 Frc consts  --      0.0017                 0.0073                 0.0084
 IR Inten    --      1.1676                 0.5932                 0.2354

                      4                      5                      6
                      A                      A                      A
 Frequencies --     88.7371               106.5082               132.6123
 Red. masses --      1.8349                 3.0853                 3.8545
 Frc consts  --      0.0085                 0.0206                 0.0399
 IR Inten    --      1.1707                 0.2662                 0.1615

                      7                      8                      9
                      A                      A                      A
 Frequencies --    215.4584               246.2460               278.6151
 Red. masses --      2.6932                 1.7617                 2.3127
 Frc consts  --      0.0737                 0.0629                 0.1058
 IR Inten    --      2.8464                 1.0510                 2.7986

                     10                     11                     12
                      A                      A                      A
 Frequencies --    285.7834               290.7832               359.3379
 Red. masses --      1.8816                 2.5230                 2.2128
 Frc consts  --      0.0905                 0.1257                 0.1683
 IR Inten    --      4.1532                 2.7813                 0.2953

                     13                     14                     15
                      A                      A                      A
 Frequencies --    437.6052               470.3685               545.1332
 Red. masses --      2.5208                 6.5204                 2.2218
 Frc consts  --      0.2844                 0.8500                 0.3890
 IR Inten    --      0.5276                15.0340                 9.6169

                     16                     17                     18
                      A                      A                      A
 Frequencies --    599.7817               668.6611               688.5434
 Red. masses --      2.3212                 2.5333                 1.5223
 Frc consts  --      0.4920                 0.6673                 0.4252
 IR Inten    --     33.6884                24.3646                61.0084

                     19                     20                     21
                      A                      A                      A
 Frequencies --    739.0247               763.8746               807.5694
 Red. masses --      2.4657                 1.6442                 1.1250
 Frc consts  --      0.7934                 0.5653                 0.4323
 IR Inten    --     94.4673                13.3890                 2.9885

                     22                     23                     24
                      A                      A                      A
 Frequencies --    827.1817               840.8653               846.8357
 Red. masses --      1.1213                 1.8123                 1.7149
 Frc consts  --      0.4520                 0.7550                 0.7246
 IR Inten    --      1.4840                23.9127                 6.8883

                     25                     26                     27
                      A                      A                      A
 Frequencies --    898.0812               927.8386               935.9827
 Red. masses --      2.6232                 2.4517                 1.8996
 Frc consts  --      1.2466                 1.2436                 0.9805
 IR Inten    --      5.6939                13.1887                 6.4275

                     28                     29                     30
                      A                      A                      A
 Frequencies --    955.0289              1045.7690              1055.9785
 Red. masses --      2.6510                 1.6149                 2.5055
 Frc consts  --      1.4246                 1.0405                 1.6461
 IR Inten    --     18.3048                18.0297                 0.6691

                     31                     32                     33
                      A                      A                      A
 Frequencies --   1067.3166              1084.1191              1102.8646
 Red. masses --      1.3153                 1.3255                 1.6338
 Frc consts  --      0.8828                 0.9178                 1.1708
 IR Inten    --      6.5050                 4.0748                44.4816

                     34                     35                     36
                      A                      A                      A
 Frequencies --   1143.3243              1153.7016              1164.1322
 Red. masses --      1.9277                 1.0946                 2.8143
 Frc consts  --      1.4846                 0.8584                 2.2471
 IR Inten    --     20.5256                 1.0879                22.5988

                     37                     38                     39
                      A                      A                      A
 Frequencies --   1186.6361              1192.1282              1216.3896
 Red. masses --      2.9327                 1.7170                 1.4105
 Frc consts  --      2.4331                 1.4377                 1.2296
 IR Inten    --     41.1371                 3.0483                 0.9399

                     40                     41                     42
                      A                      A                      A
 Frequencies --   1237.1367              1282.4242              1293.6621
 Red. masses --      2.1683                 1.3167                 1.2383
 Frc consts  --      1.9552                 1.2759                 1.2210
 IR Inten    --      4.7177                 6.5733                 2.2751

                     43                     44                     45
                      A                      A                      A
 Frequencies --   1340.1007              1366.8673              1397.0740
 Red. masses --      1.1930                 1.5710                 1.4406
 Frc consts  --      1.2623                 1.7294                 1.6567
 IR Inten    --      5.4612               115.4335                17.6567

                     46                     47                     48
                      A                      A                      A
 Frequencies --   1410.3363              1416.2077              1434.2600
 Red. masses --      1.2810                 1.3523                 2.1817
 Frc consts  --      1.5012                 1.5980                 2.6443
 IR Inten    --      8.0876                 9.2500                91.8357

                     49                     50                     51
                      A                      A                      A
 Frequencies --   1444.4664              1495.7034              1500.9400
 Red. masses --      1.3323                 1.3828                 1.1143
 Frc consts  --      1.6378                 1.8227                 1.4790
 IR Inten    --     18.7141                22.0752                 8.2049

                     52                     53                     54
                      A                      A                      A
 Frequencies --   1503.0436              1513.5074              1525.5168
 Red. masses --      1.1021                 1.1090                 1.2092
 Frc consts  --      1.4669                 1.4968                 1.6580
 IR Inten    --      7.0497                13.4197                13.9912

                     55                     56                     57
                      A                      A                      A
 Frequencies --   1528.2325              1534.4918              1546.9733
 Red. masses --      1.0572                 1.1577                 1.1829
 Frc consts  --      1.4548                 1.6060                 1.6678
 IR Inten    --     15.7796                10.3868                 6.3353

                     58                     59                     60
                      A                      A                      A
 Frequencies --   1553.4356              1763.4398              2920.3420
 Red. masses --      1.0944                 7.0255                 1.0741
 Frc consts  --      1.5559                12.8720                 5.3971
 IR Inten    --      4.4547               301.4135                88.3415

                     61                     62                     63
                      A                      A                      A
 Frequencies --   3036.9366              3048.3070              3053.0154
 Red. masses --      1.0631                 1.0562                 1.0655
 Frc consts  --      5.7770                 5.7825                 5.8513
 IR Inten    --     33.7215                13.1015                39.9085

                     64                     65                     66
                      A                      A                      A
 Frequencies --   3077.3375              3095.0793              3114.3542
 Red. masses --      1.0775                 1.0891                 1.0999
 Frc consts  --      6.0117                 6.1471                 6.2856
 IR Inten    --      6.8804                56.6037                42.3245

                     67                     68                     69
                      A                      A                      A
 Frequencies --   3133.0395              3136.7281              3158.3378
 Red. masses --      1.0995                 1.1032                 1.0541
 Frc consts  --      6.3591                 6.3950                 6.1952
 IR Inten    --     32.0952                27.2520                12.6081

                     70                     71                     72
                      A                      A                      A
 Frequencies --   3171.4074              3204.7135              3237.4755
 Red. masses --      1.0606                 1.0901                 1.1174
 Frc consts  --      6.2849                 6.5959                 6.9004
 IR Inten    --     13.0161                 2.2848                 6.1172

                     73                     74                     75
                      A                      A                      A
 Frequencies --   3263.0415              3492.1864              3568.5414
 Red. masses --      1.1106                 1.0738                 1.0747
 Frc consts  --      6.9673                 7.7156                 8.0634
 IR Inten    --     13.2260                 0.1193                10.9229

 - Thermochemistry -
 -------------------
 Temperature   298.150 Kelvin.  Pressure   1.00000 Atm.
 Atom     1 has atomic number  6 and mass  12.00000

 Molecular mass:   156.12626 amu.
 Principal axes and moments of inertia in atomic units:
                           1         2         3
     Eigenvalues --   873.828253305.050483742.22798
           X            0.99982   0.01850   0.00364
           Y           -0.01848   0.99981  -0.00596
           Z           -0.00375   0.00589   0.99998
 This molecule is an asymmetric top.
 Rotational symmetry number  1.
 Warning -- assumption of classical behavior for rotation
           may cause significant error
 Rotational temperatures (Kelvin)      0.09912     0.02621     0.02315
 Rotational constants (GHZ):           2.06533     0.54606     0.48226
 Zero-point vibrational energy     635911.8 (Joules/Mol)
                                  151.98657 (Kcal/Mol)
 Warning -- explicit consideration of  16 degrees of freedom as
           vibrations may cause significant error
 Vibrational temperatures:     35.97    83.99    93.95   127.67   153.24
          (Kelvin)            190.80   310.00   354.29   400.87   411.18
                              418.37   517.01   629.62   676.76   784.33
                              862.95   962.05   990.66  1063.29  1099.05
                             1161.91  1190.13  1209.82  1218.41  1292.14
                             1334.95  1346.67  1374.07  1504.63  1519.32
                             1535.63  1559.81  1586.78  1644.99  1659.92
                             1674.93  1707.30  1715.21  1750.11  1779.96
                             1845.12  1861.29  1928.11  1966.62  2010.08
                             2029.16  2037.61  2063.58  2078.27  2151.98
                             2159.52  2162.54  2177.60  2194.88  2198.79
                             2207.79  2225.75  2235.05  2537.20  4201.72
                             4369.47  4385.83  4392.61  4427.60  4453.13
                             4480.86  4507.75  4513.05  4544.14  4562.95
                             4610.87  4658.01  4694.79  5024.48  5134.34

 Zero-point correction=                           0.242206 (Hartree/Particle)
 Thermal correction to Energy=                    0.254561
 Thermal correction to Enthalpy=                  0.255505
 Thermal correction to Gibbs Free Energy=         0.202272
 Sum of electronic and zero-point Energies=           -498.975886
 Sum of electronic and thermal Energies=              -498.963531
 Sum of electronic and thermal Enthalpies=            -498.962587
 Sum of electronic and thermal Free Energies=         -499.015820

                     E (Thermal)             CV                S
                      KCal/Mol        Cal/Mol-Kelvin    Cal/Mol-Kelvin
 Total                  159.739             45.059            112.038
 Electronic               0.000              0.000              0.000
 Translational            0.889              2.981             41.046
 Rotational               0.889              2.981             30.759
 Vibrational            157.962             39.098             40.234
 Vibration     1          0.593              1.985              6.191
 Vibration     2          0.596              1.974              4.511
 Vibration     3          0.597              1.971              4.290
 Vibration     4          0.602              1.957              3.688
 Vibration     5          0.605              1.944              3.332
 Vibration     6          0.613              1.921              2.908
 Vibration     7          0.645              1.817              1.997
 Vibration     8          0.661              1.769              1.757
 Vibration     9          0.679              1.713              1.542
 Vibration    10          0.684              1.700              1.499
 Vibration    11          0.687              1.691              1.469
 Vibration    12          0.734              1.556              1.125
 Vibration    13          0.798              1.388              0.834
 Vibration    14          0.827              1.316              0.737
 Vibration    15          0.900              1.150              0.554
 Vibration    16          0.958              1.032              0.450

 Optimization completed.
    -- Stationary point found.
 Normal termination of Gaussian 16 at Tue Dec  8 21:15:36 2020.

 ----------------------------------------------------------------------
 # B3LYP/6-311++G(d,p) empiricaldispersion=gd3bj scf=xqc pop=npa geom=c
 heck
 ----------------------------------------------------------------------

 --------------------------------------
 CID_60695527_JID_1761_Energie_neutraal
 --------------------------------------
 Structure from the checkpoint file:  "JID_1761.chk"
 Charge =  0 Multiplicity = 1

 SCF Done:  E(RB3LYP) =  -499.370050666     A.U. after   14 cycles
 Normal termination of Gaussian 16 at Tue Dec  8 21:18:42 2020.

 ----------------------------------------------------------------------
 # B3LYP/6-311++G(d,p) empiricaldispersion=gd3bj scf=xqc pop=npa geom=c
 heck
 ----------------------------------------------------------------------

 ------------------------------------
 CID_60695527_JID_1761_Energie_kation
 ------------------------------------
 Structure from the checkpoint file:  "JID_1761.chk"
 Charge =  1 Multiplicity = 2

 SCF Done:  E(UB3LYP) =  -499.064226182     A.U. after   22 cycles
 Normal termination of Gaussian 16 at Tue Dec  8 21:24:45 2020.
 Gaussian 16:  ES64L-G16RevA.03 25-Dec-2016

 ----------------------------------------------------------------------
 # B3LYP/6-311++G(d,p) empiricaldispersion=gd3bj scf=xqc pop=npa geom=c
 heck
 ----------------------------------------------------------------------

 -----------------------------------
 CID_60695527_JID_1761_Energie_anion
 -----------------------------------
 Structure from the checkpoint file:  "JID_1761.chk"
 Charge = -1 Multiplicity = 2

                         Standard orientation:
 ---------------------------------------------------------------------
 Center     Atomic      Atomic             Coordinates (Angstroms)
 Number     Number       Type             X           Y           Z
 ---------------------------------------------------------------------
      1          6           0        4.187109    0.579008   -0.220591
      2          6           0        3.034567   -0.267514    0.311374
      3          7           0        2.012976   -0.443255   -0.715909
      4          6           0        0.903866   -1.314720   -0.358330
      5          6           0        0.086539   -0.900087    0.886549
      6          7           0       -0.348786    0.491859    0.849879
      7          6           0       -1.294613    1.106959    0.049769
      8          8           0       -1.169921    2.300327   -0.211542
      9          6           0       -2.535720    0.393739   -0.400577
     10          6           0       -2.698651   -1.068504   -0.780971
     11          6           0       -3.301171   -0.565042    0.494329
     12          1           0        4.615028    0.119482   -1.116721
     13          1           0        4.974082    0.687216    0.533444
     14          1           0        3.841649    1.585286   -0.488475
     15          1           0        3.400213   -1.266012    0.586068
     16          1           0        2.654715    0.187307    1.247506
     17          1           0        1.653277    0.464884   -1.005304
     18          1           0        0.235391   -1.360847   -1.225864
     19          1           0        1.294095   -2.329237   -0.196664
     20          1           0       -0.768979   -1.566038    1.019365
     21          1           0        0.696829   -1.010719    1.788649
     22          1           0        0.381007    1.161458    1.068528
     23          1           0       -3.139499    1.085938   -0.977074
     24          1           0       -3.361024   -1.264083   -1.619151
     25          1           0       -1.848047   -1.736378   -0.736808
     26          1           0       -2.832210   -0.844102    1.433027
     27          1           0       -4.378046   -0.440043    0.554710
 ---------------------------------------------------------------------

 SCF Done:  E(UB3LYP) =  -499.356168099     A.U. after   31 cycles

 The electronic state is 2-A.
 Alpha  occ. eigenvalues --  -18.99089 -14.23587 -14.20344 -10.17974 -10.10921
 Alpha  occ. eigenvalues --  -10.09953 -10.09612 -10.09547 -10.08980 -10.08785
 Alpha  occ. eigenvalues --  -10.06636  -0.94260  -0.83183  -0.80361  -0.77203
 Alpha  occ. eigenvalues --   -0.66595  -0.62357  -0.56806  -0.53954  -0.51737
 Alpha  occ. eigenvalues --   -0.50833  -0.47620  -0.40477  -0.40160  -0.39802
 Alpha  occ. eigenvalues --   -0.39046  -0.36969  -0.35167  -0.34239  -0.32482
 Alpha  occ. eigenvalues --   -0.31189  -0.30176  -0.28748  -0.28275  -0.27248
 Alpha  occ. eigenvalues --   -0.26717  -0.25429  -0.25307  -0.22756  -0.20580
 Alpha  occ. eigenvalues --   -0.17109  -0.15680  -0.13085   0.04402
 Alpha virt. eigenvalues --    0.06033   0.07208   0.07746   0.08427   0.08948
 Alpha virt. eigenvalues --    0.09422   0.09983   0.10736   0.11118   0.11453
 Alpha virt. eigenvalues --    0.12184   0.12490   0.13095   0.14219   0.14683

  Beta  occ. eigenvalues --  -18.99086 -14.23578 -14.20341 -10.17975 -10.10888
  Beta  occ. eigenvalues --  -10.09936 -10.09574 -10.09540 -10.08955 -10.08754
  Beta  occ. eigenvalues --  -10.06613  -0.94253  -0.83161  -0.80341  -0.77181
  Beta  occ. eigenvalues --   -0.66550  -0.62307  -0.56773  -0.53893  -0.51653
  Beta  occ. eigenvalues --   -0.50756  -0.47587  -0.40424  -0.40086  -0.39773
  Beta  occ. eigenvalues --   -0.39016  -0.36925  -0.35117  -0.34213  -0.32452
  Beta  occ. eigenvalues --   -0.31162  -0.30148  -0.28711  -0.28239  -0.27211
  Beta  occ. eigenvalues --   -0.26662  -0.25392  -0.25273  -0.22722  -0.20557
  Beta  occ. eigenvalues --   -0.17095  -0.15666  -0.13067
  Beta virt. eigenvalues --    0.06803   0.07204   0.08105   0.08307   0.08867
  Beta virt. eigenvalues --    0.09530   0.09763   0.10123   0.11323   0.11498
  Beta virt. eigenvalues --    0.11734   0.12639   0.12906   0.13488   0.14569

 Mulliken charges and spin densities:
               1          2
     1  C    0.685082  -1.206989
     2  C    0.147830  -0.396497
     3  N   -0.143712   0.087738
     4  C   -0.533958   0.000198
     5  C    0.910609  -1.044870
     6  N   -0.396158   0.167680
     7  C    0.574319  -0.671917
     8  O   -0.340052   0.012021
     9  C   -1.193469   1.225531
    10  C    1.017734  -1.319332
    11  C    0.562756  -0.968530
    12  H    0.023121   0.129099
    13  H   -0.314956   0.446952
    14  H    0.001613   0.120501
    15  H   -0.428145   0.596042
    16  H   -0.100223   0.192369
    17  H    0.258121  -0.020483
    18  H    0.161889   0.012885
    19  H   -0.347574   0.515127
    20  H    0.091039   0.047733
    21  H   -0.612551   0.836199
    22  H    0.287322   0.053420
    23  H    0.013584   0.241853
    24  H   -0.338825   0.527239
    25  H   -0.201431   0.302037
    26  H   -0.303162   0.457226
    27  H   -0.480803   0.656770
 Sum of Mulliken charges =  -1.00000   1.00000

 Dipole moment (field-independent basis, Debye):
    X=              0.4317    Y=              2.0515    Z=             -2.4521  Tot=              3.2261
 Quadrupole moment (field-independent basis, Debye-Ang):
   XX=           -151.7377   YY=           -113.4276   ZZ=           -103.5012
   XY=              1.5243   XZ=             -8.1727   YZ=              4.0135

 Summary of Natural Population Analysis:

                                       Natural Population
                Natural  -----------------------------------------------
    Atom  No    Charge         Core      Valence    Rydberg      Total
 -----------------------------------------------------------------------
      C    1   -0.28723      0.99967     2.28125    0.00631     3.28723
      C    2   -0.08899      0.99964     2.07868    0.01066     3.08899
      N    3   -0.34040      0.99975     2.82930    0.01135     3.84040
      C    4   -0.09135      0.99962     2.08028    0.01145     3.09135
      C    5   -0.10395      0.99961     2.09199    0.01235     3.10395
      N    6   -0.32521      0.99968     2.81428    0.01124     3.82521
      C    7    0.34093      0.99963     1.63673    0.02271     2.65907
      O    8   -0.32511      0.99988     3.31989    0.00534     4.32511
      C    9   -0.15747      0.99955     2.14657    0.01134     3.15747
      C   10   -0.19179      0.99962     2.18237    0.00980     3.19179
      C   11   -0.18721      0.99962     2.17807    0.00952     3.18721
      H   12    0.09910      0.00000     0.39975    0.00114     0.40090
      H   13    0.10099      0.00000     0.39797    0.00104     0.39901
      H   14    0.09351      0.00000     0.40545    0.00104     0.40649
      H   15    0.09350      0.00000     0.40430    0.00220     0.40650
      H   16    0.07653      0.00000     0.42114    0.00233     0.42347
      H   17    0.17114      0.00000     0.32558    0.00328     0.32886
      H   18    0.09207      0.00000     0.40659    0.00134     0.40793
      H   19    0.09586      0.00000     0.40270    0.00145     0.40414
      H   20    0.10016      0.00000     0.39755    0.00229     0.39984
      H   21    0.10354      0.00000     0.39418    0.00227     0.39646
      H   22    0.19202      0.00000     0.30551    0.00247     0.30798
      H   23    0.11481      0.00000     0.38421    0.00098     0.38519
      H   24    0.10703      0.00000     0.39153    0.00143     0.39297
      H   25    0.10413      0.00000     0.39444    0.00144     0.39587
      H   26    0.10636      0.00000     0.39235    0.00129     0.39364
      H   27    0.10702      0.00000     0.39132    0.00165     0.39298
 =======================================================================
   * Total *   -0.00000     10.99628    31.85399    0.14974    43.00000

 Normal termination of Gaussian 16 at Tue Dec  8 21:33:55 2020.
