 Gaussian 16, Revision A.03,

 -----------------------------------------------------------
 # opt freq B3LYP/6-31G(d) empiricaldispersion=gd3bj scf=xqc
 -----------------------------------------------------------

 ------------------------------
 CID_12333217_JID_3741_neutraal
 ------------------------------
 Symbolic Z-matrix:
 Charge =  0 Multiplicity = 1

 SCF Done:  E(RB3LYP) =  -632.494639892     A.U. after   14 cycles
 SCF Done:  E(RB3LYP) =  -632.498913299     A.U. after   12 cycles
 SCF Done:  E(RB3LYP) =  -632.497807114     A.U. after   13 cycles
 SCF Done:  E(RB3LYP) =  -632.499488984     A.U. after   12 cycles
 SCF Done:  E(RB3LYP) =  -632.499728949     A.U. after   11 cycles
 SCF Done:  E(RB3LYP) =  -632.499785261     A.U. after   11 cycles
 SCF Done:  E(RB3LYP) =  -632.499828483     A.U. after   11 cycles
 SCF Done:  E(RB3LYP) =  -632.499855749     A.U. after   11 cycles
 SCF Done:  E(RB3LYP) =  -632.499879665     A.U. after   10 cycles
 SCF Done:  E(RB3LYP) =  -632.499902196     A.U. after   11 cycles
 SCF Done:  E(RB3LYP) =  -632.499907067     A.U. after   10 cycles
 SCF Done:  E(RB3LYP) =  -632.499907749     A.U. after    8 cycles
 Optimization completed.
    -- Stationary point found.
 Normal termination of Gaussian 16 at Sun Dec 13 12:25:42 2020.

 --------------------------------------------------------------------
 #N Geom=AllCheck Guess=TCheck SCRF=Check GenChk RB3LYP/6-31G(d) Freq
 --------------------------------------------------------------------

 Structure from the checkpoint file:  "JID_3741.chk"
 ------------------------------
 CID_12333217_JID_3741_neutraal
 ------------------------------
 Charge =  0 Multiplicity = 1

 SCF Done:  E(RB3LYP) =  -632.499907749     A.U. after    1 cycles

  Exact polarizability: 129.047  -1.939 102.443   2.727  -2.281  83.129
 Approx polarizability: 166.034  -4.829 152.301   8.316  -7.995 126.152

                      1                      2                      3
                      A                      A                      A
 Frequencies --     33.3974                66.1360                77.5747
 Red. masses --      3.2379                 4.4738                 7.0836
 Frc consts  --      0.0021                 0.0115                 0.0251
 IR Inten    --      0.0309                 0.7597                 0.2455

                      4                      5                      6
                      A                      A                      A
 Frequencies --     89.7012                96.2776               156.4243
 Red. masses --      2.3931                 3.0224                 3.4575
 Frc consts  --      0.0113                 0.0165                 0.0498
 IR Inten    --      0.1629                 0.1461                 1.1496

                      7                      8                      9
                      A                      A                      A
 Frequencies --    206.7953               247.8035               249.7054
 Red. masses --      2.7540                 1.9342                 1.0831
 Frc consts  --      0.0694                 0.0700                 0.0398
 IR Inten    --      5.8033                 0.5527                 0.9541

                     10                     11                     12
                      A                      A                      A
 Frequencies --    269.1914               281.8066               297.6516
 Red. masses --      1.6067                 2.4910                 1.4278
 Frc consts  --      0.0686                 0.1166                 0.0745
 IR Inten    --      1.6931                 0.3612                 1.8580

                     13                     14                     15
                      A                      A                      A
 Frequencies --    322.2648               355.3664               381.2159
 Red. masses --      2.9599                 3.0657                 2.9836
 Frc consts  --      0.1811                 0.2281                 0.2555
 IR Inten    --      4.5424                 7.8454                17.4956

                     16                     17                     18
                      A                      A                      A
 Frequencies --    411.0600               419.2171               443.5799
 Red. masses --      2.6920                 3.9746                 1.2510
 Frc consts  --      0.2680                 0.4115                 0.1450
 IR Inten    --      4.7516                 3.9846                72.1274

                     19                     20                     21
                      A                      A                      A
 Frequencies --    542.0017               545.5109               614.2785
 Red. masses --      3.1123                 3.5475                 3.1955
 Frc consts  --      0.5387                 0.6220                 0.7104
 IR Inten    --      6.2035                13.2622                30.9123

                     22                     23                     24
                      A                      A                      A
 Frequencies --    647.7612               713.9093               793.9940
 Red. masses --      4.7373                 4.8858                 6.0729
 Frc consts  --      1.1712                 1.4671                 2.2557
 IR Inten    --      4.2601                12.4801                 3.8471

                     25                     26                     27
                      A                      A                      A
 Frequencies --    817.0160               825.9929               881.8154
 Red. masses --      1.3924                 2.1873                 3.1987
 Frc consts  --      0.5476                 0.8792                 1.4655
 IR Inten    --      3.8060                 3.1582                 5.3668

                     28                     29                     30
                      A                      A                      A
 Frequencies --    897.6699               913.5308               951.4391
 Red. masses --      2.7663                 2.2917                 1.9940
 Frc consts  --      1.3134                 1.1268                 1.0635
 IR Inten    --      8.0376                 1.6647                 2.4926

                     31                     32                     33
                      A                      A                      A
 Frequencies --    972.1686               998.2190              1003.4485
 Red. masses --      1.4241                 3.9836                 1.8665
 Frc consts  --      0.7930                 2.3387                 1.1073
 IR Inten    --      1.2256                 3.3726                 0.1230

                     34                     35                     36
                      A                      A                      A
 Frequencies --   1054.1644              1060.8267              1141.7224
 Red. masses --      1.4084                 3.0811                 1.5081
 Frc consts  --      0.9221                 2.0429                 1.1582
 IR Inten    --      0.0093                52.7563                 2.7161

                     37                     38                     39
                      A                      A                      A
 Frequencies --   1147.8791              1160.1833              1189.0893
 Red. masses --      2.1315                 2.3861                 2.0860
 Frc consts  --      1.6548                 1.8923                 1.7377
 IR Inten    --      9.4583                53.8927                25.3676

                     40                     41                     42
                      A                      A                      A
 Frequencies --   1193.3696              1245.0588              1252.0974
 Red. masses --      1.5370                 2.5129                 2.0402
 Frc consts  --      1.2896                 2.2951                 1.8845
 IR Inten    --      4.0471               335.4883               137.6210

                     43                     44                     45
                      A                      A                      A
 Frequencies --   1263.0177              1298.0355              1308.3402
 Red. masses --      1.9809                 2.0559                 1.1040
 Frc consts  --      1.8618                 2.0409                 1.1134
 IR Inten    --     35.5139                10.7187                 0.7267

                     46                     47                     48
                      A                      A                      A
 Frequencies --   1331.9195              1346.2276              1391.4987
 Red. masses --      2.7351                 1.7417                 1.5926
 Frc consts  --      2.8587                 1.8598                 1.8169
 IR Inten    --     58.8733                15.6472                70.2528

                     49                     50                     51
                      A                      A                      A
 Frequencies --   1418.0963              1431.5832              1442.5494
 Red. masses --      1.4411                 1.2576                 1.7033
 Frc consts  --      1.7075                 1.5185                 2.0884
 IR Inten    --     19.6978                 9.0568                 3.2385

                     52                     53                     54
                      A                      A                      A
 Frequencies --   1453.6354              1455.1259              1497.1670
 Red. masses --      1.4620                 1.4055                 1.0867
 Frc consts  --      1.8202                 1.7534                 1.4351
 IR Inten    --     17.7089                10.6010                 3.6379

                     55                     56                     57
                      A                      A                      A
 Frequencies --   1516.4395              1516.8894              1526.0777
 Red. masses --      1.0434                 1.0442                 1.0528
 Frc consts  --      1.4137                 1.4157                 1.4446
 IR Inten    --      2.7280                 4.8581                 1.5175

                     58                     59                     60
                      A                      A                      A
 Frequencies --   1528.1959              1536.6083              1543.2427
 Red. masses --      1.0525                 1.0587                 1.0534
 Frc consts  --      1.4483                 1.4728                 1.4782
 IR Inten    --      2.5911                 2.4355                 6.2354

                     61                     62                     63
                      A                      A                      A
 Frequencies --   1546.0182              1824.1765              1844.4260
 Red. masses --      1.0845                12.0133                10.5719
 Frc consts  --      1.5273                23.5531                21.1898
 IR Inten    --      5.3561               236.5546               457.7556

                     64                     65                     66
                      A                      A                      A
 Frequencies --   3002.3302              3048.9136              3054.3827
 Red. masses --      1.0826                 1.0378                 1.0463
 Frc consts  --      5.7493                 5.6840                 5.7513
 IR Inten    --     33.3577                20.1869                24.0733

                     67                     68                     69
                      A                      A                      A
 Frequencies --   3058.5113              3063.4735              3080.0003
 Red. masses --      1.0546                 1.0353                 1.0582
 Frc consts  --      5.8127                 5.7247                 5.9143
 IR Inten    --      9.3697                13.8761                15.7866

                     70                     71                     72
                      A                      A                      A
 Frequencies --   3113.6412              3118.4400              3123.6308
 Red. masses --      1.1021                 1.1077                 1.1025
 Frc consts  --      6.2951                 6.3465                 6.3382
 IR Inten    --     23.0265                 2.7496                13.9249

                     73                     74                     75
                      A                      A                      A
 Frequencies --   3128.7887              3133.3554              3134.4919
 Red. masses --      1.1030                 1.1012                 1.0965
 Frc consts  --      6.3617                 6.3698                 6.3473
 IR Inten    --     16.7556                38.1327                12.2755

                     76                     77                     78
                      A                      A                      A
 Frequencies --   3135.8403              3144.8294              3633.2444
 Red. masses --      1.1020                 1.1060                 1.0777
 Frc consts  --      6.3847                 6.4445                 8.3821
 IR Inten    --     21.3615                37.1027                47.7154

 - Thermochemistry -
 -------------------
 Temperature   298.150 Kelvin.  Pressure   1.00000 Atm.
 Atom     1 has atomic number  6 and mass  12.00000

 Molecular mass:   185.10519 amu.
 Principal axes and moments of inertia in atomic units:
                           1         2         3
     Eigenvalues --  1176.764613657.689574329.23011
           X            0.99997   0.00800   0.00030
           Y           -0.00800   0.99996   0.00306
           Z           -0.00028  -0.00306   1.00000
 This molecule is an asymmetric top.
 Rotational symmetry number  1.
 Warning -- assumption of classical behavior for rotation
           may cause significant error
 Rotational temperatures (Kelvin)      0.07360     0.02368     0.02001
 Rotational constants (GHZ):           1.53365     0.49341     0.41687
 Zero-point vibrational energy     627809.0 (Joules/Mol)
                                  150.04994 (Kcal/Mol)
 Warning -- explicit consideration of  21 degrees of freedom as
           vibrations may cause significant error
 Vibrational temperatures:     48.05    95.15   111.61   129.06   138.52
          (Kelvin)            225.06   297.53   356.53   359.27   387.31
                              405.46   428.25   463.67   511.29   548.48
                              591.42   603.16   638.21   779.82   784.87
                              883.81   931.98  1027.16  1142.38  1175.50
                             1188.42  1268.74  1291.55  1314.37  1368.91
                             1398.73  1436.21  1443.74  1516.71  1526.29
                             1642.68  1651.54  1669.25  1710.83  1716.99
                             1791.36  1801.49  1817.20  1867.58  1882.41
                             1916.34  1936.92  2002.06  2040.32  2059.73
                             2075.51  2091.46  2093.60  2154.09  2181.82
                             2182.47  2195.69  2198.73  2210.84  2220.38
                             2224.38  2624.58  2653.72  4319.68  4386.71
                             4394.58  4400.52  4407.66  4431.43  4479.84
                             4486.74  4494.21  4501.63  4508.20  4509.83
                             4511.77  4524.71  5227.43

 Zero-point correction=                           0.239120 (Hartree/Particle)
 Thermal correction to Energy=                    0.252964
 Thermal correction to Enthalpy=                  0.253908
 Thermal correction to Gibbs Free Energy=         0.198277
 Sum of electronic and zero-point Energies=           -632.260788
 Sum of electronic and thermal Energies=              -632.246944
 Sum of electronic and thermal Enthalpies=            -632.246000
 Sum of electronic and thermal Free Energies=         -632.301630

                     E (Thermal)             CV                S
                      KCal/Mol        Cal/Mol-Kelvin    Cal/Mol-Kelvin
 Total                  158.737             51.168            117.084
 Electronic               0.000              0.000              0.000
 Translational            0.889              2.981             41.553
 Rotational               0.889              2.981             31.300
 Vibrational            156.960             45.206             44.231
 Vibration     1          0.594              1.983              5.617
 Vibration     2          0.598              1.970              4.265
 Vibration     3          0.599              1.964              3.951
 Vibration     4          0.602              1.956              3.667
 Vibration     5          0.603              1.952              3.528
 Vibration     6          0.620              1.895              2.593
 Vibration     7          0.641              1.830              2.072
 Vibration     8          0.661              1.766              1.746
 Vibration     9          0.662              1.763              1.733
 Vibration    10          0.674              1.730              1.601
 Vibration    11          0.681              1.707              1.523
 Vibration    12          0.691              1.678              1.430
 Vibration    13          0.707              1.631              1.299
 Vibration    14          0.731              1.564              1.142
 Vibration    15          0.751              1.510              1.034
 Vibration    16          0.775              1.446              0.923
 Vibration    17          0.782              1.428              0.895
 Vibration    18          0.803              1.375              0.815
 Vibration    19          0.897              1.157              0.561
 Vibration    20          0.901              1.150              0.554
 Vibration    21          0.974              1.002              0.426

                           ! Non-Optimized Parameters !
 Normal termination of Gaussian 16 at Sun Dec 13 12:32:56 2020.

 ----------------------------------------------------------------------
 # B3LYP/6-311++G(d,p) empiricaldispersion=gd3bj scf=xqc pop=npa geom=c
 heck
 ----------------------------------------------------------------------

 --------------------------------------
 CID_12333217_JID_3741_Energie_neutraal
 --------------------------------------
 Structure from the checkpoint file:  "JID_3741.chk"
 Charge =  0 Multiplicity = 1

 SCF Done:  E(RB3LYP) =  -632.688348858     A.U. after   16 cycles
 Normal termination of Gaussian 16 at Sun Dec 13 12:36:27 2020.

 ----------------------------------------------------------------------
 # B3LYP/6-311++G(d,p) empiricaldispersion=gd3bj scf=xqc pop=npa geom=c
 heck
 ----------------------------------------------------------------------

 ------------------------------------
 CID_12333217_JID_3741_Energie_kation
 ------------------------------------
 Structure from the checkpoint file:  "JID_3741.chk"
 Charge =  1 Multiplicity = 2

 SCF Done:  E(UB3LYP) =  -632.349273445     A.U. after   33 cycles
 SCF Done:  E(UB3LYP) =  -632.349605845     a.u. after    5 cycles
 Normal termination of Gaussian 16 at Sun Dec 13 13:11:48 2020.
 Gaussian 16:  ES64L-G16RevA.03 25-Dec-2016

 ----------------------------------------------------------------------
 # B3LYP/6-311++G(d,p) empiricaldispersion=gd3bj scf=xqc pop=npa geom=c
 heck
 ----------------------------------------------------------------------

 -----------------------------------
 CID_12333217_JID_3741_Energie_anion
 -----------------------------------
 Structure from the checkpoint file:  "JID_3741.chk"
 Charge = -1 Multiplicity = 2

                         Standard orientation:
 ---------------------------------------------------------------------
 Center     Atomic      Atomic             Coordinates (Angstroms)
 Number     Number       Type             X           Y           Z
 ---------------------------------------------------------------------
      1          6           0       -4.235418    0.458693   -0.122464
      2          6           0       -3.190713   -0.601906    0.158578
      3          8           0       -1.925100   -0.101075   -0.338070
      4          6           0       -0.855711   -0.889420   -0.123920
      5          8           0       -0.900997   -1.972364    0.417510
      6          6           0        0.406787   -0.245259   -0.667426
      7          6           0        0.854905    1.067951    0.075789
      8          6           0        2.387258    0.993907   -0.109805
      9          6           0        2.703673   -0.502714   -0.137671
     10          8           0        3.763747   -1.046953    0.107666
     11          7           0        1.541481   -1.126240   -0.516668
     12          6           0        0.229373    2.317550   -0.542327
     13          6           0        0.517059    0.976045    1.572916
     14          1           0       -3.988227    1.394312    0.389146
     15          1           0       -5.213903    0.119086    0.232985
     16          1           0       -4.308376    0.660035   -1.195711
     17          1           0       -3.087395   -0.811112    1.227420
     18          1           0       -3.411929   -1.547211   -0.346204
     19          1           0        0.217625   -0.005579   -1.725382
     20          1           0        2.950050    1.490900    0.683959
     21          1           0        2.694570    1.434734   -1.067285
     22          1           0        1.434963   -2.130310   -0.465862
     23          1           0       -0.861035    2.293137   -0.453390
     24          1           0        0.594738    3.217987   -0.035966
     25          1           0        0.483149    2.402372   -1.605417
     26          1           0        0.905422    0.051804    2.013824
     27          1           0        0.960754    1.821190    2.109628
     28          1           0       -0.565262    1.006401    1.736074
 ---------------------------------------------------------------------

 SCF Done:  E(UB3LYP) =  -632.678824735     A.U. after   32 cycles

 The electronic state is 2-A.
 Alpha  occ. eigenvalues --  -19.07943 -19.02968 -19.00139 -14.24690 -10.21646
 Alpha  occ. eigenvalues --  -10.18278 -10.13708 -10.13387 -10.11221 -10.08771
 Alpha  occ. eigenvalues --  -10.07121 -10.06758 -10.06572  -1.02247  -0.95105
 Alpha  occ. eigenvalues --   -0.93775  -0.85684  -0.73164  -0.69093  -0.64850
 Alpha  occ. eigenvalues --   -0.61460  -0.60126  -0.55010  -0.50667  -0.48614
 Alpha  occ. eigenvalues --   -0.46597  -0.42982  -0.41831  -0.40496  -0.38725
 Alpha  occ. eigenvalues --   -0.36823  -0.36636  -0.35565  -0.33426  -0.33049
 Alpha  occ. eigenvalues --   -0.31672  -0.30935  -0.30570  -0.29835  -0.29176
 Alpha  occ. eigenvalues --   -0.27834  -0.27138  -0.26759  -0.26196  -0.24724
 Alpha  occ. eigenvalues --   -0.24294  -0.22005  -0.19785  -0.17173  -0.16653
 Alpha  occ. eigenvalues --    0.04125
 Alpha virt. eigenvalues --    0.06457   0.07191   0.08102   0.08280   0.08956
 Alpha virt. eigenvalues --    0.09244   0.09872   0.10389   0.10426   0.11029
 Alpha virt. eigenvalues --    0.11389   0.12397   0.12951   0.13585   0.13953

  Beta  occ. eigenvalues --  -19.07932 -19.02960 -19.00138 -14.24685 -10.21637
  Beta  occ. eigenvalues --  -10.18277 -10.13692 -10.13361 -10.11221 -10.08753
  Beta  occ. eigenvalues --  -10.07088 -10.06701 -10.06535  -1.02226  -0.95100
  Beta  occ. eigenvalues --   -0.93757  -0.85675  -0.73144  -0.69051  -0.64813
  Beta  occ. eigenvalues --   -0.61412  -0.60062  -0.54921  -0.50643  -0.48544
  Beta  occ. eigenvalues --   -0.46549  -0.42950  -0.41787  -0.40465  -0.38701
  Beta  occ. eigenvalues --   -0.36800  -0.36605  -0.35530  -0.33402  -0.33022
  Beta  occ. eigenvalues --   -0.31621  -0.30901  -0.30541  -0.29772  -0.29136
  Beta  occ. eigenvalues --   -0.27806  -0.27088  -0.26695  -0.26156  -0.24690
  Beta  occ. eigenvalues --   -0.24263  -0.21980  -0.19772  -0.17161  -0.16645
  Beta virt. eigenvalues --    0.06538   0.07522   0.07857   0.08471   0.08623
  Beta virt. eigenvalues --    0.09595   0.09845   0.10181   0.10568   0.10744
  Beta virt. eigenvalues --    0.11464   0.11899   0.12746   0.13429   0.13844

 Mulliken charges and spin densities:
               1          2
     1  C    1.667245  -2.242620
     2  C   -0.162730   0.185360
     3  O   -0.028017   0.076251
     4  C    0.350961  -0.858802
     5  O   -0.251454   0.027649
     6  C    0.035154  -0.140148
     7  C   -1.268990   1.966612
     8  C   -0.128926  -0.364805
     9  C    0.001887   0.016103
    10  O   -0.369448   0.001171
    11  N   -0.112210  -0.023467
    12  C    1.222238  -1.761993
    13  C    0.183155  -0.793421
    14  H   -0.402732   0.552893
    15  H   -0.458837   0.608908
    16  H   -0.370044   0.528450
    17  H   -0.081338   0.269391
    18  H   -0.218889   0.397797
    19  H   -0.351565   0.646845
    20  H    0.129719   0.075627
    21  H   -0.127677   0.312281
    22  H    0.260674   0.037944
    23  H    0.222111  -0.052438
    24  H   -0.323016   0.471164
    25  H   -0.352684   0.498070
    26  H    0.128827   0.059429
    27  H   -0.145699   0.319604
    28  H   -0.047715   0.186145
 Sum of Mulliken charges =  -1.00000   1.00000

 Dipole moment (field-independent basis, Debye):
    X=              3.5460    Y=             -1.6950    Z=              0.7986  Tot=              4.0106
 Quadrupole moment (field-independent basis, Debye-Ang):
   XX=           -166.2327   YY=           -119.9907   ZZ=           -113.7471
   XY=              5.1100   XZ=             -0.8654   YZ=              2.7093

 Summary of Natural Population Analysis:

                                       Natural Population
                Natural  -----------------------------------------------
    Atom  No    Charge         Core      Valence    Rydberg      Total
 -----------------------------------------------------------------------
      C    1   -0.29198      0.99966     2.28773    0.00459     3.29198
      C    2   -0.01381      0.99957     2.00252    0.01171     3.01381
      O    3   -0.28037      0.99985     3.27073    0.00978     4.28037
      C    4    0.41234      0.99965     1.56135    0.02666     2.58766
      O    5   -0.30600      0.99987     3.30086    0.00527     4.30600
      C    6   -0.04855      0.99951     2.03487    0.01418     3.04855
      C    7   -0.03309      0.99958     2.02083    0.01269     3.03309
      C    8   -0.23258      0.99955     2.22319    0.00985     3.23258
      C    9    0.34870      0.99967     1.62838    0.02325     2.65130
      O   10   -0.31815      0.99987     3.31260    0.00568     4.31815
      N   11   -0.32076      0.99966     2.81175    0.00935     3.82076
      C   12   -0.28666      0.99961     2.27933    0.00772     3.28666
      C   13   -0.29176      0.99961     2.28503    0.00711     3.29176
      H   14    0.10284      0.00000     0.39509    0.00207     0.39716
      H   15    0.10441      0.00000     0.39317    0.00242     0.39559
      H   16    0.10321      0.00000     0.39467    0.00212     0.39679
      H   17    0.09161      0.00000     0.40695    0.00145     0.40839
      H   18    0.09132      0.00000     0.40732    0.00135     0.40868
      H   19    0.11045      0.00000     0.38727    0.00228     0.38955
      H   20    0.11209      0.00000     0.38695    0.00097     0.38791
      H   21    0.11385      0.00000     0.38494    0.00120     0.38615
      H   22    0.20477      0.00000     0.29320    0.00203     0.29523
      H   23    0.11030      0.00000     0.38767    0.00203     0.38970
      H   24    0.10190      0.00000     0.39686    0.00125     0.39810
      H   25    0.10188      0.00000     0.39641    0.00171     0.39812
      H   26    0.10373      0.00000     0.39518    0.00109     0.39627
      H   27    0.10432      0.00000     0.39476    0.00092     0.39568
      H   28    0.10601      0.00000     0.39268    0.00131     0.39399
 =======================================================================
   * Total *   -0.00000     12.99568    36.83228    0.17204    50.00000

 Normal termination of Gaussian 16 at Sun Dec 13 13:21:44 2020.
