 Gaussian 16, Revision A.03,

 -----------------------------------------------------------
 # opt freq B3LYP/6-31G(d) empiricaldispersion=gd3bj scf=xqc
 -----------------------------------------------------------

 ------------------------------
 CID_57699618_JID_3428_neutraal
 ------------------------------
 Symbolic Z-matrix:
 Charge =  0 Multiplicity = 1

 SCF Done:  E(RB3LYP) =  -1013.53746960     A.U. after   14 cycles
 SCF Done:  E(RB3LYP) =  -1013.53992913     A.U. after   12 cycles
 SCF Done:  E(RB3LYP) =  -1013.53975532     A.U. after   13 cycles
 SCF Done:  E(RB3LYP) =  -1013.54092764     A.U. after   13 cycles
 SCF Done:  E(RB3LYP) =  -1013.54145915     A.U. after   12 cycles
 SCF Done:  E(RB3LYP) =  -1013.54181022     A.U. after   11 cycles
 SCF Done:  E(RB3LYP) =  -1013.54202440     A.U. after   12 cycles
 SCF Done:  E(RB3LYP) =  -1013.54225282     A.U. after   12 cycles
 SCF Done:  E(RB3LYP) =  -1013.54235914     A.U. after   13 cycles
 SCF Done:  E(RB3LYP) =  -1013.54251495     A.U. after   11 cycles
 SCF Done:  E(RB3LYP) =  -1013.54268446     A.U. after   10 cycles
 SCF Done:  E(RB3LYP) =  -1013.54268620     A.U. after    8 cycles
 SCF Done:  E(RB3LYP) =  -1013.54268686     A.U. after    8 cycles
 SCF Done:  E(RB3LYP) =  -1013.54268702     A.U. after    8 cycles
 SCF Done:  E(RB3LYP) =  -1013.54268708     A.U. after    7 cycles
 SCF Done:  E(RB3LYP) =  -1013.54268711     A.U. after    7 cycles
 Optimization completed.
    -- Stationary point found.
 Normal termination of Gaussian 16 at Wed Dec  9 23:18:43 2020.

 --------------------------------------------------------------------
 #N Geom=AllCheck Guess=TCheck SCRF=Check GenChk RB3LYP/6-31G(d) Freq
 --------------------------------------------------------------------

 Structure from the checkpoint file:  "JID_3428.chk"
 ------------------------------
 CID_57699618_JID_3428_neutraal
 ------------------------------
 Charge =  0 Multiplicity = 1

 SCF Done:  E(RB3LYP) =  -1013.54268711     A.U. after    1 cycles

  Exact polarizability: 117.366  -1.125 110.257  -3.899  -1.446  99.194
 Approx polarizability: 157.969   4.272 154.684  -1.805  -5.714 150.401

                      1                      2                      3
                      A                      A                      A
 Frequencies --     18.4541                41.7588                54.7700
 Red. masses --      5.0123                 6.5564                 3.7136
 Frc consts  --      0.0010                 0.0067                 0.0066
 IR Inten    --      4.4437                 0.9220                 2.4281

                      4                      5                      6
                      A                      A                      A
 Frequencies --     72.3228               122.6530               158.2834
 Red. masses --      3.2463                 3.9508                 3.8579
 Frc consts  --      0.0100                 0.0350                 0.0569
 IR Inten    --      1.8300                 1.4519                 6.3783

                      7                      8                      9
                      A                      A                      A
 Frequencies --    195.2265               198.2793               240.5458
 Red. masses --      1.4362                 1.3598                 3.5191
 Frc consts  --      0.0323                 0.0315                 0.1200
 IR Inten    --      0.7776                 0.9423                 5.9479

                     10                     11                     12
                      A                      A                      A
 Frequencies --    281.0175               295.8679               311.0092
 Red. masses --      2.2214                 3.9542                 3.3393
 Frc consts  --      0.1034                 0.2039                 0.1903
 IR Inten    --      1.2905                 1.8008                 2.8484

                     13                     14                     15
                      A                      A                      A
 Frequencies --    332.2974               356.3054               426.6140
 Red. masses --      2.7094                 1.9056                 2.9220
 Frc consts  --      0.1763                 0.1425                 0.3133
 IR Inten    --      2.0385                 0.7240                 4.3154

                     16                     17                     18
                      A                      A                      A
 Frequencies --    443.7775               471.6728               494.5217
 Red. masses --      7.5097                 3.8472                 7.8779
 Frc consts  --      0.8714                 0.5043                 1.1351
 IR Inten    --     13.0583                 2.5691                22.2040

                     19                     20                     21
                      A                      A                      A
 Frequencies --    519.7256               603.5549               618.1922
 Red. masses --      6.1514                 2.8848                 1.9762
 Frc consts  --      0.9790                 0.6192                 0.4450
 IR Inten    --     33.4019                 5.6277                 4.5391

                     22                     23                     24
                      A                      A                      A
 Frequencies --    727.6949               751.4761               779.2915
 Red. masses --      3.8858                 3.2048                 4.5140
 Frc consts  --      1.2124                 1.0663                 1.6152
 IR Inten    --     71.8914                10.9181                54.9192

                     25                     26                     27
                      A                      A                      A
 Frequencies --    849.3556               870.0909               881.9958
 Red. masses --      1.8858                 2.5289                 2.4147
 Frc consts  --      0.8015                 1.1280                 1.1067
 IR Inten    --     26.8230                78.6305                10.8597

                     28                     29                     30
                      A                      A                      A
 Frequencies --    921.7113               930.0667               968.4070
 Red. masses --      1.9029                 2.4320                 2.8477
 Frc consts  --      0.9525                 1.2395                 1.5735
 IR Inten    --      5.2258                43.5432               191.3741

                     31                     32                     33
                      A                      A                      A
 Frequencies --    998.5840              1003.5683              1018.1729
 Red. masses --      1.9861                 1.3393                 1.7455
 Frc consts  --      1.1669                 0.7947                 1.0662
 IR Inten    --     17.4205                 0.9049                 3.6576

                     34                     35                     36
                      A                      A                      A
 Frequencies --   1026.3322              1049.5718              1064.0262
 Red. masses --      1.6456                 2.1586                 1.8597
 Frc consts  --      1.0213                 1.4010                 1.2405
 IR Inten    --     12.5348                20.5276                16.8153

                     37                     38                     39
                      A                      A                      A
 Frequencies --   1117.7139              1128.0198              1144.2827
 Red. masses --      2.3210                 2.9821                 3.0421
 Frc consts  --      1.7084                 2.2357                 2.3469
 IR Inten    --     35.0195                30.6142                55.4783

                     40                     41                     42
                      A                      A                      A
 Frequencies --   1154.9097              1172.3941              1238.9988
 Red. masses --      4.3355                 2.6295                 1.1946
 Frc consts  --      3.4071                 2.1295                 1.0805
 IR Inten    --    105.1561                33.4312                 0.7403

                     43                     44                     45
                      A                      A                      A
 Frequencies --   1249.8631              1273.9753              1282.0959
 Red. masses --      1.4742                 1.1635                 1.2196
 Frc consts  --      1.3569                 1.1126                 1.1812
 IR Inten    --     18.3028                13.9963                 5.2339

                     46                     47                     48
                      A                      A                      A
 Frequencies --   1303.7056              1332.3243              1338.6235
 Red. masses --      1.1836                 1.2424                 6.6982
 Frc consts  --      1.1852                 1.2993                 7.0717
 IR Inten    --      5.9808                30.7000               189.3968

                     49                     50                     51
                      A                      A                      A
 Frequencies --   1361.2093              1371.9976              1379.0806
 Red. masses --      1.3146                 1.3225                 1.3905
 Frc consts  --      1.4351                 1.4668                 1.5581
 IR Inten    --      8.7698                 4.7184                 0.7692

                     52                     53                     54
                      A                      A                      A
 Frequencies --   1386.1854              1408.3299              1414.0055
 Red. masses --      1.2199                 1.3653                 1.3268
 Frc consts  --      1.3811                 1.5955                 1.5630
 IR Inten    --     15.0236                 4.9298                 0.4615

                     55                     56                     57
                      A                      A                      A
 Frequencies --   1422.2486              1437.8610              1445.2239
 Red. masses --      1.3039                 1.3279                 1.3644
 Frc consts  --      1.5540                 1.6175                 1.6791
 IR Inten    --      6.3955                 8.7887                 1.3205

                     58                     59                     60
                      A                      A                      A
 Frequencies --   1482.5738              1487.5606              1499.9508
 Red. masses --      1.0521                 1.0480                 1.0865
 Frc consts  --      1.3625                 1.3663                 1.4403
 IR Inten    --      3.8644                 7.3506                 6.0720

                     61                     62                     63
                      A                      A                      A
 Frequencies --   1526.1795              1529.4467              1536.9026
 Red. masses --      1.0906                 1.0883                 1.0829
 Frc consts  --      1.4967                 1.4999                 1.5070
 IR Inten    --      8.3682                 1.1930                 1.1166

                     64                     65                     66
                      A                      A                      A
 Frequencies --   1547.0950              1552.4715              2989.4036
 Red. masses --      1.0867                 1.0901                 1.0722
 Frc consts  --      1.5324                 1.5480                 5.6453
 IR Inten    --      6.0046                 4.8510                86.4534

                     67                     68                     69
                      A                      A                      A
 Frequencies --   3032.3259              3043.3925              3049.8955
 Red. masses --      1.0720                 1.0673                 1.0614
 Frc consts  --      5.8077                 5.8247                 5.8169
 IR Inten    --      5.3287                25.7018                33.0076

                     70                     71                     72
                      A                      A                      A
 Frequencies --   3053.9572              3071.0790              3072.3541
 Red. masses --      1.0690                 1.0673                 1.0892
 Frc consts  --      5.8744                 5.9308                 6.0578
 IR Inten    --     44.3883                22.3139                 4.4369

                     73                     74                     75
                      A                      A                      A
 Frequencies --   3083.3937              3085.2292              3089.4393
 Red. masses --      1.0958                 1.0705                 1.0954
 Frc consts  --      6.1384                 6.0036                 6.1602
 IR Inten    --     46.7661                35.7376                17.0750

                     76                     77                     78
                      A                      A                      A
 Frequencies --   3095.9913              3105.4368              3120.0011
 Red. masses --      1.0293                 1.1040                 1.1010
 Frc consts  --      5.8129                 6.2728                 6.3144
 IR Inten    --      0.0164                49.6331                48.0432

                     79                     80                     81
                      A                      A                      A
 Frequencies --   3133.5588              3196.5572              3205.8184
 Red. masses --      1.1101                 1.1068                 1.1085
 Frc consts  --      6.4221                 6.6630                 6.7121
 IR Inten    --     14.7404                 0.0568                 0.0282

 - Thermochemistry -
 -------------------
 Temperature   298.150 Kelvin.  Pressure   1.00000 Atm.
 Atom     1 has atomic number  6 and mass  12.00000

 Molecular mass:   208.07693 amu.
 Principal axes and moments of inertia in atomic units:
                           1         2         3
     Eigenvalues --  1515.145494132.034494536.51124
           X            0.99972  -0.01046  -0.02109
           Y            0.01098   0.99963   0.02492
           Z            0.02082  -0.02515   0.99947
 This molecule is an asymmetric top.
 Rotational symmetry number  1.
 Warning -- assumption of classical behavior for rotation
           may cause significant error
 Rotational temperatures (Kelvin)      0.05717     0.02096     0.01909
 Rotational constants (GHZ):           1.19113     0.43677     0.39783
 Zero-point vibrational energy     652265.4 (Joules/Mol)
                                  155.89517 (Kcal/Mol)
 Warning -- explicit consideration of  21 degrees of freedom as
           vibrations may cause significant error
 Vibrational temperatures:     26.55    60.08    78.80   104.06   176.47
          (Kelvin)            227.73   280.89   285.28   346.09   404.32
                              425.69   447.47   478.10   512.64   613.80
                              638.50   678.63   711.51   747.77   868.38
                              889.44  1046.99  1081.21  1121.23  1222.03
                             1251.87  1269.00  1326.14  1338.16  1393.32
                             1436.74  1443.91  1464.92  1476.66  1510.10
                             1530.90  1608.14  1622.97  1646.37  1661.66
                             1686.81  1782.64  1798.27  1832.97  1844.65
                             1875.74  1916.92  1925.98  1958.48  1974.00
                             1984.19  1994.41  2026.27  2034.44  2046.30
                             2068.76  2079.35  2133.09  2140.27  2158.09
                             2195.83  2200.53  2211.26  2225.92  2233.66
                             4301.09  4362.84  4378.76  4388.12  4393.96
                             4418.60  4420.43  4436.32  4438.96  4445.01
                             4454.44  4468.03  4488.99  4508.49  4599.13
                             4612.46

 Zero-point correction=                           0.248435 (Hartree/Particle)
 Thermal correction to Energy=                    0.262241
 Thermal correction to Enthalpy=                  0.263185
 Thermal correction to Gibbs Free Energy=         0.206099
 Sum of electronic and zero-point Energies=          -1013.294252
 Sum of electronic and thermal Energies=             -1013.280446
 Sum of electronic and thermal Enthalpies=           -1013.279502
 Sum of electronic and thermal Free Energies=        -1013.336588

                     E (Thermal)             CV                S
                      KCal/Mol        Cal/Mol-Kelvin    Cal/Mol-Kelvin
 Total                  164.559             51.061            120.148
 Electronic               0.000              0.000              0.000
 Translational            0.889              2.981             41.902
 Rotational               0.889              2.981             31.719
 Vibrational            162.781             45.099             46.527
 Vibration     1          0.593              1.986              6.794
 Vibration     2          0.594              1.980              5.174
 Vibration     3          0.596              1.976              4.637
 Vibration     4          0.598              1.967              4.089
 Vibration     5          0.610              1.930              3.058
 Vibration     6          0.621              1.893              2.570
 Vibration     7          0.636              1.847              2.178
 Vibration     8          0.637              1.842              2.149
 Vibration     9          0.658              1.778              1.799
 Vibration    10          0.681              1.709              1.527
 Vibration    11          0.690              1.681              1.440
 Vibration    12          0.700              1.653              1.357
 Vibration    13          0.714              1.611              1.249
 Vibration    14          0.732              1.562              1.138
 Vibration    15          0.788              1.412              0.870
 Vibration    16          0.803              1.375              0.815
 Vibration    17          0.829              1.313              0.733
 Vibration    18          0.850              1.262              0.672
 Vibration    19          0.875              1.206              0.611
 Vibration    20          0.962              1.024              0.444
 Vibration    21          0.978              0.993              0.419

 Optimization completed.
    -- Stationary point found.
 Normal termination of Gaussian 16 at Wed Dec  9 23:26:22 2020.

 ----------------------------------------------------------------------
 # B3LYP/6-311++G(d,p) empiricaldispersion=gd3bj scf=xqc pop=npa geom=c
 heck
 ----------------------------------------------------------------------

 --------------------------------------
 CID_57699618_JID_3428_Energie_neutraal
 --------------------------------------
 Structure from the checkpoint file:  "JID_3428.chk"
 Charge =  0 Multiplicity = 1

 SCF Done:  E(RB3LYP) =  -1013.74928957     A.U. after   14 cycles
 Normal termination of Gaussian 16 at Wed Dec  9 23:29:17 2020.

 ----------------------------------------------------------------------
 # B3LYP/6-311++G(d,p) empiricaldispersion=gd3bj scf=xqc pop=npa geom=c
 heck
 ----------------------------------------------------------------------

 ------------------------------------
 CID_57699618_JID_3428_Energie_kation
 ------------------------------------
 Structure from the checkpoint file:  "JID_3428.chk"
 Charge =  1 Multiplicity = 2

 SCF Done:  E(UB3LYP) =  -1013.41858067     A.U. after   23 cycles
 Normal termination of Gaussian 16 at Wed Dec  9 23:35:44 2020.
 Gaussian 16:  ES64L-G16RevA.03 25-Dec-2016

 ----------------------------------------------------------------------
 # B3LYP/6-311++G(d,p) empiricaldispersion=gd3bj scf=xqc pop=npa geom=c
 heck
 ----------------------------------------------------------------------

 -----------------------------------
 CID_57699618_JID_3428_Energie_anion
 -----------------------------------
 Structure from the checkpoint file:  "JID_3428.chk"
 Charge = -1 Multiplicity = 2

                         Standard orientation:
 ---------------------------------------------------------------------
 Center     Atomic      Atomic             Coordinates (Angstroms)
 Number     Number       Type             X           Y           Z
 ---------------------------------------------------------------------
      1          6           0        2.575492   -1.360182   -1.242274
      2         16           0        2.276945   -0.256725    0.137413
      3          8           0        1.786432   -1.021555    1.284514
      4          8           0        3.402771    0.659436    0.305230
      5          8           0        1.022881    0.545687   -0.545512
      6          6           0        0.477750    1.631352    0.262912
      7          6           0       -0.820446    2.106581   -0.370420
      8          6           0       -2.038642    1.163994   -0.297843
      9          6           0       -2.336878    0.618261    1.124561
     10          6           0       -1.854925   -0.829754    1.278749
     11          6           0       -2.550409   -1.721538    0.231635
     12          8           0       -2.915357   -1.005992   -0.949170
     13          6           0       -1.951990   -0.019144   -1.285553
     14          1           0        3.409504   -2.003151   -0.954576
     15          1           0        2.832779   -0.762924   -2.117478
     16          1           0        1.675717   -1.951448   -1.416112
     17          1           0        0.321998    1.264366    1.281354
     18          1           0        1.219529    2.434855    0.285507
     19          1           0       -1.077117    3.041568    0.145717
     20          1           0       -0.618688    2.379156   -1.414912
     21          1           0       -2.901586    1.766759   -0.606714
     22          1           0       -1.883566    1.259133    1.890823
     23          1           0       -3.418184    0.650045    1.298328
     24          1           0       -0.767893   -0.882332    1.163500
     25          1           0       -2.075090   -1.207124    2.283779
     26          1           0       -1.903839   -2.574384   -0.033313
     27          1           0       -3.490374   -2.122642    0.625138
     28          1           0       -2.184210    0.310100   -2.303270
     29          1           0       -0.943636   -0.452405   -1.297469
 ---------------------------------------------------------------------

 SCF Done:  E(UB3LYP) =  -1013.73886972     A.U. after   26 cycles

 The electronic state is 2-A.
 Alpha  occ. eigenvalues --  -88.98268 -19.07689 -19.03115 -19.03081 -19.02221
 Alpha  occ. eigenvalues --  -10.14146 -10.11759 -10.11403 -10.10947 -10.08313
 Alpha  occ. eigenvalues --  -10.07934 -10.07284 -10.06976  -8.04408  -6.00792
 Alpha  occ. eigenvalues --   -6.00587  -6.00446  -1.05316  -0.94956  -0.93656
 Alpha  occ. eigenvalues --   -0.92289  -0.72671  -0.69466  -0.67545  -0.64397
 Alpha  occ. eigenvalues --   -0.57296  -0.55511  -0.52639  -0.49696  -0.44849
 Alpha  occ. eigenvalues --   -0.43889  -0.42083  -0.40811  -0.39826  -0.38914
 Alpha  occ. eigenvalues --   -0.37786  -0.36386  -0.35085  -0.34038  -0.33372
 Alpha  occ. eigenvalues --   -0.32932  -0.31321  -0.30577  -0.29226  -0.28036
 Alpha  occ. eigenvalues --   -0.27274  -0.26713  -0.25053  -0.24597  -0.23821
 Alpha  occ. eigenvalues --   -0.23032  -0.22923  -0.21994  -0.20708  -0.19376
 Alpha  occ. eigenvalues --   -0.15329   0.04170
 Alpha virt. eigenvalues --    0.06009   0.07204   0.08003   0.08743   0.09244
 Alpha virt. eigenvalues --    0.09692   0.10283   0.10842   0.11403   0.11559
 Alpha virt. eigenvalues --    0.12219   0.12793   0.13230   0.13707   0.14438

  Beta  occ. eigenvalues --  -88.98257 -19.07670 -19.03096 -19.03062 -19.02218
  Beta  occ. eigenvalues --  -10.14131 -10.11750 -10.11311 -10.10930 -10.08286
  Beta  occ. eigenvalues --  -10.07926 -10.07267 -10.06969  -8.04394  -6.00780
  Beta  occ. eigenvalues --   -6.00578  -6.00435  -1.05265  -0.94914  -0.93648
  Beta  occ. eigenvalues --   -0.92232  -0.72630  -0.69394  -0.67504  -0.64340
  Beta  occ. eigenvalues --   -0.57242  -0.55471  -0.52585  -0.49648  -0.44799
  Beta  occ. eigenvalues --   -0.43841  -0.42050  -0.40770  -0.39796  -0.38884
  Beta  occ. eigenvalues --   -0.37758  -0.36357  -0.35008  -0.33971  -0.33328
  Beta  occ. eigenvalues --   -0.32892  -0.31293  -0.30542  -0.29192  -0.28004
  Beta  occ. eigenvalues --   -0.27251  -0.26687  -0.25021  -0.24574  -0.23787
  Beta  occ. eigenvalues --   -0.23009  -0.22884  -0.21967  -0.20688  -0.19353
  Beta  occ. eigenvalues --   -0.15309
  Beta virt. eigenvalues --    0.06434   0.07327   0.07675   0.08474   0.09288
  Beta virt. eigenvalues --    0.10029   0.10111   0.10573   0.11162   0.11809
  Beta virt. eigenvalues --    0.12105   0.12550   0.13119   0.13511   0.13844

 Mulliken charges and spin densities:
               1          2
     1  C    0.902877  -1.407898
     2  S    0.392938  -0.252864
     3  O   -0.184611   0.021222
     4  O   -0.203985   0.048776
     5  O   -0.089238   0.031459
     6  C    0.099849  -0.364056
     7  C    0.282573  -1.067201
     8  C   -0.073762   0.972152
     9  C    0.057460  -0.698010
    10  C   -0.551027   0.247974
    11  C    0.305257  -0.589042
    12  O   -0.158860   0.028182
    13  C   -0.304818  -0.467274
    14  H   -0.492195   0.708537
    15  H   -0.458162   0.689350
    16  H   -0.496441   0.708134
    17  H    0.264614  -0.071660
    18  H   -0.077119   0.272942
    19  H   -0.422164   0.597604
    20  H   -0.153470   0.342721
    21  H   -0.096966   0.318907
    22  H   -0.236496   0.387241
    23  H   -0.000028   0.171797
    24  H    0.281895  -0.076521
    25  H    0.014838   0.130444
    26  H   -0.030446   0.183823
    27  H    0.081949   0.064999
    28  H   -0.229270   0.408720
    29  H    0.574810  -0.340460
 Sum of Mulliken charges =  -1.00000   1.00000

 Dipole moment (field-independent basis, Debye):
    X=             -2.3360    Y=             -0.0995    Z=              2.6508  Tot=              3.5347
 Quadrupole moment (field-independent basis, Debye-Ang):
   XX=           -152.9030   YY=           -132.4470   ZZ=           -126.2167
   XY=              8.8486   XZ=              2.0709   YZ=             -4.4968

 Summary of Natural Population Analysis:

                                       Natural Population
                Natural  -----------------------------------------------
    Atom  No    Charge         Core      Valence    Rydberg      Total
 -----------------------------------------------------------------------
      C    1   -0.38691      0.99961     2.37718    0.01012     3.38691
      S    2    1.12539      4.99936     1.77642    0.09884     6.87461
      O    3   -0.45563      0.99990     3.45005    0.00568     4.45563
      O    4   -0.45341      0.99990     3.44792    0.00558     4.45341
      O    5   -0.37817      0.99990     3.36797    0.01029     4.37817
      C    6   -0.01949      0.99956     2.00745    0.01248     3.01949
      C    7   -0.19886      0.99960     2.18863    0.01063     3.19886
      C    8   -0.12222      0.99959     2.11024    0.01239     3.12222
      C    9   -0.19155      0.99961     2.18216    0.00977     3.19155
      C   10   -0.21588      0.99962     2.20923    0.00703     3.21588
      C   11   -0.00459      0.99959     1.99433    0.01068     3.00459
      O   12   -0.30334      0.99989     3.29465    0.00880     4.30334
      C   13   -0.01344      0.99955     2.00016    0.01373     3.01344
      H   14    0.12087      0.00000     0.37701    0.00212     0.37913
      H   15    0.12371      0.00000     0.37378    0.00251     0.37629
      H   16    0.12218      0.00000     0.37551    0.00231     0.37782
      H   17    0.09304      0.00000     0.40543    0.00152     0.40696
      H   18    0.09637      0.00000     0.40249    0.00114     0.40363
      H   19    0.10779      0.00000     0.39015    0.00206     0.39221
      H   20    0.10531      0.00000     0.39317    0.00152     0.39469
      H   21    0.09959      0.00000     0.39871    0.00170     0.40041
      H   22    0.09939      0.00000     0.39952    0.00109     0.40061
      H   23    0.10021      0.00000     0.39858    0.00121     0.39979
      H   24    0.10628      0.00000     0.39137    0.00235     0.39372
      H   25    0.10092      0.00000     0.39808    0.00100     0.39908
      H   26    0.07991      0.00000     0.41865    0.00144     0.42009
      H   27    0.08422      0.00000     0.41445    0.00133     0.41578
      H   28    0.09188      0.00000     0.40661    0.00151     0.40812
      H   29    0.08643      0.00000     0.41125    0.00232     0.41357
 =======================================================================
   * Total *    0.00000     16.99569    38.76116    0.24316    56.00000

 Normal termination of Gaussian 16 at Wed Dec  9 23:42:44 2020.
