 Gaussian 16, Revision A.03,

 -----------------------------------------------------------
 # opt freq B3LYP/6-31G(d) empiricaldispersion=gd3bj scf=xqc
 -----------------------------------------------------------

 ------------------------------
 CID_63630057_JID_6851_neutraal
 ------------------------------
 Symbolic Z-matrix:
 Charge =  0 Multiplicity = 1

 SCF Done:  E(RB3LYP) =  -688.393763584     A.U. after   14 cycles
 SCF Done:  E(RB3LYP) =  -688.400474421     A.U. after   12 cycles
 SCF Done:  E(RB3LYP) =  -688.402064334     A.U. after   12 cycles
 SCF Done:  E(RB3LYP) =  -688.403082096     A.U. after   14 cycles
 SCF Done:  E(RB3LYP) =  -688.403162700     A.U. after   12 cycles
 SCF Done:  E(RB3LYP) =  -688.403486316     A.U. after   11 cycles
 SCF Done:  E(RB3LYP) =  -688.403572028     A.U. after   11 cycles
 SCF Done:  E(RB3LYP) =  -688.403590239     A.U. after   11 cycles
 SCF Done:  E(RB3LYP) =  -688.403599776     A.U. after   10 cycles
 SCF Done:  E(RB3LYP) =  -688.403605277     A.U. after   10 cycles
 SCF Done:  E(RB3LYP) =  -688.404016111     A.U. after   10 cycles
 SCF Done:  E(RB3LYP) =  -688.404017597     A.U. after    9 cycles
 SCF Done:  E(RB3LYP) =  -688.404018560     A.U. after   10 cycles
 SCF Done:  E(RB3LYP) =  -688.404018791     A.U. after    7 cycles
 SCF Done:  E(RB3LYP) =  -688.404018831     A.U. after    7 cycles
 Optimization completed.
    -- Stationary point found.
 Normal termination of Gaussian 16 at Fri Dec 11 00:30:49 2020.

 --------------------------------------------------------------------
 #N Geom=AllCheck Guess=TCheck SCRF=Check GenChk RB3LYP/6-31G(d) Freq
 --------------------------------------------------------------------

 Structure from the checkpoint file:  "JID_6851.chk"
 ------------------------------
 CID_63630057_JID_6851_neutraal
 ------------------------------
 Charge =  0 Multiplicity = 1

 SCF Done:  E(RB3LYP) =  -688.404018831     A.U. after    1 cycles

  Exact polarizability: 169.849  32.218 140.369  -3.624   2.009 131.703
 Approx polarizability: 220.709  55.264 207.055  -5.689   9.438 227.866

                      1                      2                      3
                      A                      A                      A
 Frequencies --     19.9577                25.3109                28.6811
 Red. masses --      2.7832                 1.6194                 1.9980
 Frc consts  --      0.0007                 0.0006                 0.0010
 IR Inten    --      0.3162                 0.3295                 0.2202

                      4                      5                      6
                      A                      A                      A
 Frequencies --     52.8925                85.7566               129.7956
 Red. masses --      4.8315                 3.7952                 3.8867
 Frc consts  --      0.0080                 0.0164                 0.0386
 IR Inten    --      1.0796                 1.5124                 2.2635

                      7                      8                      9
                      A                      A                      A
 Frequencies --    159.7902               186.7525               240.2857
 Red. masses --      3.1941                 3.0659                 3.2789
 Frc consts  --      0.0481                 0.0630                 0.1115
 IR Inten    --      1.9847                 0.9625                 2.7952

                     10                     11                     12
                      A                      A                      A
 Frequencies --    266.5362               313.6514               317.5292
 Red. masses --      2.5576                 2.0840                 2.5007
 Frc consts  --      0.1071                 0.1208                 0.1486
 IR Inten    --      2.2376                 0.5125                 1.3488

                     13                     14                     15
                      A                      A                      A
 Frequencies --    321.9376               349.9821               420.0509
 Red. masses --      3.6309                 2.5765                 3.8898
 Frc consts  --      0.2217                 0.1859                 0.4044
 IR Inten    --      0.2723                 2.6075                 1.0775

                     16                     17                     18
                      A                      A                      A
 Frequencies --    430.0756               444.5504               469.2620
 Red. masses --      2.1587                 2.8250                 3.7229
 Frc consts  --      0.2353                 0.3289                 0.4830
 IR Inten    --      1.1807                18.0307                 6.8334

                     19                     20                     21
                      A                      A                      A
 Frequencies --    483.2062               506.7482               520.4665
 Red. masses --      2.1616                 1.6550                 1.9530
 Frc consts  --      0.2974                 0.2504                 0.3117
 IR Inten    --      5.7563                65.0366                21.6487

                     22                     23                     24
                      A                      A                      A
 Frequencies --    543.6218               610.9678               647.1858
 Red. masses --      2.2729                 2.2189                 2.1972
 Frc consts  --      0.3957                 0.4880                 0.5422
 IR Inten    --     34.5047                34.4830                20.5086

                     25                     26                     27
                      A                      A                      A
 Frequencies --    673.1967               763.4260               779.6448
 Red. masses --      8.2623                 3.2914                 1.9212
 Frc consts  --      2.2061                 1.1302                 0.6881
 IR Inten    --      5.7505                 6.5629                53.7464

                     28                     29                     30
                      A                      A                      A
 Frequencies --    802.3939               815.2247               843.8138
 Red. masses --      2.4628                 8.9658                 2.6121
 Frc consts  --      0.9342                 3.5107                 1.0958
 IR Inten    --      8.0929                25.6755                 3.9984

                     31                     32                     33
                      A                      A                      A
 Frequencies --    861.5065               883.0836               894.3320
 Red. masses --      2.9302                 2.6169                 1.8103
 Frc consts  --      1.2813                 1.2024                 0.8531
 IR Inten    --      1.0544                 7.1536                 3.9794

                     34                     35                     36
                      A                      A                      A
 Frequencies --    913.9344               943.1602               944.8809
 Red. masses --      2.3787                 1.4165                 1.7109
 Frc consts  --      1.1707                 0.7424                 0.9000
 IR Inten    --      2.8576                 5.4839                 2.3170

                     37                     38                     39
                      A                      A                      A
 Frequencies --    964.2004               998.3098              1019.6741
 Red. masses --      1.7007                 1.3680                 1.4507
 Frc consts  --      0.9316                 0.8033                 0.8887
 IR Inten    --      9.0110                 0.0216                15.6041

                     40                     41                     42
                      A                      A                      A
 Frequencies --   1024.5557              1033.1533              1059.5433
 Red. masses --      2.1502                 1.6420                 3.8715
 Frc consts  --      1.3299                 1.0327                 2.5607
 IR Inten    --      4.9232                 1.8858                 3.1066

                     43                     44                     45
                      A                      A                      A
 Frequencies --   1069.7041              1081.9800              1088.1219
 Red. masses --      1.7021                 1.4855                 2.1412
 Frc consts  --      1.1475                 1.0246                 1.4937
 IR Inten    --      0.9285                 3.8339                 9.3880

                     46                     47                     48
                      A                      A                      A
 Frequencies --   1110.2911              1138.7237              1150.6791
 Red. masses --      1.6988                 3.2139                 2.4004
 Frc consts  --      1.2339                 2.4554                 1.8726
 IR Inten    --      0.3713                 8.2133                22.1815

                     49                     50                     51
                      A                      A                      A
 Frequencies --   1173.9338              1197.7302              1205.2717
 Red. masses --      1.9500                 1.3256                 1.3487
 Frc consts  --      1.5833                 1.1204                 1.1543
 IR Inten    --      2.2739                 3.2167                12.3247

                     52                     53                     54
                      A                      A                      A
 Frequencies --   1234.7680              1265.0032              1281.9492
 Red. masses --      1.7787                 2.3790                 2.0217
 Frc consts  --      1.5978                 2.2430                 1.9575
 IR Inten    --      5.6577                 2.7963                 0.2886

                     55                     56                     57
                      A                      A                      A
 Frequencies --   1292.4586              1306.2598              1322.5881
 Red. masses --      1.2097                 1.7552                 1.2887
 Frc consts  --      1.1906                 1.7645                 1.3281
 IR Inten    --      1.2583                16.1658                 6.6032

                     58                     59                     60
                      A                      A                      A
 Frequencies --   1327.2342              1353.7270              1370.5468
 Red. masses --      1.3444                 1.3014                 1.2793
 Frc consts  --      1.3953                 1.4052                 1.4158
 IR Inten    --      8.5846                 3.4971                 6.1104

                     61                     62                     63
                      A                      A                      A
 Frequencies --   1378.0476              1385.1416              1393.0819
 Red. masses --      1.3413                 1.5624                 1.6007
 Frc consts  --      1.5008                 1.7662                 1.8302
 IR Inten    --      6.6834                10.7652                37.4422

                     64                     65                     66
                      A                      A                      A
 Frequencies --   1403.3605              1418.0615              1429.2201
 Red. masses --      1.4950                 1.4033                 1.4790
 Frc consts  --      1.7347                 1.6626                 1.7800
 IR Inten    --      1.3773                22.4753                50.0466

                     67                     68                     69
                      A                      A                      A
 Frequencies --   1435.4794              1447.3177              1447.7773
 Red. masses --      2.4117                 1.4269                 1.2609
 Frc consts  --      2.9279                 1.7610                 1.5572
 IR Inten    --     24.4816                 8.1383                 5.7860

                     70                     71                     72
                      A                      A                      A
 Frequencies --   1476.2551              1499.7365              1503.5067
 Red. masses --      2.0123                 1.2580                 1.1493
 Frc consts  --      2.5839                 1.6671                 1.5308
 IR Inten    --     56.7270                 6.4697                20.0879

                     73                     74                     75
                      A                      A                      A
 Frequencies --   1509.2271              1515.2749              1522.7303
 Red. masses --      1.0967                 1.0436                 1.1099
 Frc consts  --      1.4718                 1.4118                 1.5163
 IR Inten    --      1.0858                 5.0328                19.7377

                     76                     77                     78
                      A                      A                      A
 Frequencies --   1526.8015              1528.4705              1531.4940
 Red. masses --      1.1206                 1.1184                 1.1060
 Frc consts  --      1.5390                 1.5395                 1.5284
 IR Inten    --      0.4701                 6.0881                14.6938

                     79                     80                     81
                      A                      A                      A
 Frequencies --   1541.6210              1586.2845              1612.3848
 Red. masses --      1.1012                 3.7872                 3.6124
 Frc consts  --      1.5420                 5.6147                 5.5332
 IR Inten    --      8.9369               397.5445               129.6166

                     82                     83                     84
                      A                      A                      A
 Frequencies --   1671.9362              2905.7991              2913.2578
 Red. masses --      5.7157                 1.0744                 1.0725
 Frc consts  --      9.4137                 5.3448                 5.3632
 IR Inten    --    265.2847                34.8764               159.1576

                     85                     86                     87
                      A                      A                      A
 Frequencies --   3004.3990              3026.9094              3033.7226
 Red. masses --      1.0825                 1.0753                 1.0738
 Frc consts  --      5.7571                 5.8045                 5.8229
 IR Inten    --     32.4433                69.1889                24.2943

                     88                     89                     90
                      A                      A                      A
 Frequencies --   3040.8519              3057.6311              3062.3020
 Red. masses --      1.0373                 1.0637                 1.0608
 Frc consts  --      5.6512                 5.8594                 5.8613
 IR Inten    --     45.7153                19.8880                63.6502

                     91                     92                     93
                      A                      A                      A
 Frequencies --   3073.0424              3077.5394              3092.3975
 Red. masses --      1.0874                 1.0867                 1.1011
 Frc consts  --      6.0501                 6.0643                 6.2042
 IR Inten    --     69.7862                39.2828                21.7109

                     94                     95                     96
                      A                      A                      A
 Frequencies --   3102.5362              3103.8687              3119.4444
 Red. masses --      1.1016                 1.1047                 1.1008
 Frc consts  --      6.2474                 6.2707                 6.3112
 IR Inten    --     48.5724                 6.3854                13.7598

                     97                     98                     99
                      A                      A                      A
 Frequencies --   3132.9748              3146.8193              3147.3794
 Red. masses --      1.0883                 1.0904                 1.0887
 Frc consts  --      6.2941                 6.3619                 6.3540
 IR Inten    --     32.7916                40.0742                20.6041

                    100                    101                    102
                      A                      A                      A
 Frequencies --   3151.7908              3503.2500              3637.1978
 Red. masses --      1.0911                 1.0747                 1.0765
 Frc consts  --      6.3857                 7.7710                 8.3909
 IR Inten    --     29.0153                 1.9539                36.9669

 - Thermochemistry -
 -------------------
 Temperature   298.150 Kelvin.  Pressure   1.00000 Atm.
 Atom     1 has atomic number  6 and mass  12.00000

 Molecular mass:   220.16880 amu.
 Principal axes and moments of inertia in atomic units:
                           1         2         3
     Eigenvalues --  2066.293455339.588586232.71422
           X            0.99981   0.01888   0.00421
           Y           -0.01884   0.99978  -0.00869
           Z           -0.00438   0.00861   0.99995
 This molecule is an asymmetric top.
 Rotational symmetry number  1.
 Warning -- assumption of classical behavior for rotation
           may cause significant error
 Rotational temperatures (Kelvin)      0.04192     0.01622     0.01390
 Rotational constants (GHZ):           0.87342     0.33799     0.28956
 Zero-point vibrational energy     842531.8 (Joules/Mol)
                                  201.36994 (Kcal/Mol)
 Warning -- explicit consideration of  23 degrees of freedom as
           vibrations may cause significant error
 Vibrational temperatures:     28.71    36.42    41.27    76.10   123.38
          (Kelvin)            186.75   229.90   268.70   345.72   383.49
                              451.27   456.85   463.20   503.55   604.36
                              618.78   639.61   675.16   695.23   729.10
                              748.84   782.15   879.05   931.16   968.58
                             1098.40  1121.73  1154.47  1172.93  1214.06
                             1239.52  1270.56  1286.74  1314.95  1357.00
                             1359.47  1387.27  1436.35  1467.08  1474.11
                             1486.48  1524.45  1539.07  1556.73  1565.56
                             1597.46  1638.37  1655.57  1689.03  1723.27
                             1734.12  1776.56  1820.06  1844.44  1859.56
                             1879.42  1902.91  1909.59  1947.71  1971.91
                             1982.70  1992.91  2004.33  2019.12  2040.27
                             2056.33  2065.33  2082.37  2083.03  2124.00
                             2157.79  2163.21  2171.44  2180.14  2190.87
                             2196.73  2199.13  2203.48  2218.05  2282.31
                             2319.86  2405.54  4180.80  4191.53  4322.66
                             4355.05  4364.85  4375.11  4399.25  4405.97
                             4421.42  4427.89  4449.27  4463.86  4465.77
                             4488.18  4507.65  4527.57  4528.38  4534.72
                             5040.40  5233.12

 Zero-point correction=                           0.320903 (Hartree/Particle)
 Thermal correction to Energy=                    0.336099
 Thermal correction to Enthalpy=                  0.337043
 Thermal correction to Gibbs Free Energy=         0.275973
 Sum of electronic and zero-point Energies=           -688.083115
 Sum of electronic and thermal Energies=              -688.067920
 Sum of electronic and thermal Enthalpies=            -688.066976
 Sum of electronic and thermal Free Energies=         -688.128046

                     E (Thermal)             CV                S
                      KCal/Mol        Cal/Mol-Kelvin    Cal/Mol-Kelvin
 Total                  210.905             58.493            128.533
 Electronic               0.000              0.000              0.000
 Translational            0.889              2.981             42.071
 Rotational               0.889              2.981             32.597
 Vibrational            209.128             52.531             53.866
 Vibration     1          0.593              1.986              6.638
 Vibration     2          0.593              1.985              6.167
 Vibration     3          0.593              1.984              5.919
 Vibration     4          0.596              1.976              4.706
 Vibration     5          0.601              1.959              3.755
 Vibration     6          0.612              1.923              2.949
 Vibration     7          0.622              1.892              2.552
 Vibration     8          0.632              1.858              2.260
 Vibration     9          0.657              1.779              1.801
 Vibration    10          0.672              1.734              1.619
 Vibration    11          0.702              1.648              1.343
 Vibration    12          0.704              1.640              1.323
 Vibration    13          0.707              1.631              1.300
 Vibration    14          0.727              1.575              1.166
 Vibration    15          0.783              1.427              0.892
 Vibration    16          0.791              1.405              0.858
 Vibration    17          0.804              1.373              0.812
 Vibration    18          0.826              1.318              0.740
 Vibration    19          0.839              1.287              0.701
 Vibration    20          0.862              1.235              0.641
 Vibration    21          0.875              1.205              0.609
 Vibration    22          0.899              1.154              0.558
 Vibration    23          0.970              1.009              0.431

                           ! Non-Optimized Parameters !
 Normal termination of Gaussian 16 at Fri Dec 11 00:43:42 2020.

 ----------------------------------------------------------------------
 # B3LYP/6-311++G(d,p) empiricaldispersion=gd3bj scf=xqc pop=npa geom=c
 heck
 ----------------------------------------------------------------------

 --------------------------------------
 CID_63630057_JID_6851_Energie_neutraal
 --------------------------------------
 Structure from the checkpoint file:  "JID_6851.chk"
 Charge =  0 Multiplicity = 1

 SCF Done:  E(RB3LYP) =  -688.592269032     A.U. after   14 cycles
 Normal termination of Gaussian 16 at Fri Dec 11 00:49:01 2020.

 ----------------------------------------------------------------------
 # B3LYP/6-311++G(d,p) empiricaldispersion=gd3bj scf=xqc pop=npa geom=c
 heck
 ----------------------------------------------------------------------

 ------------------------------------
 CID_63630057_JID_6851_Energie_kation
 ------------------------------------
 Structure from the checkpoint file:  "JID_6851.chk"
 Charge =  1 Multiplicity = 2

 SCF Done:  E(UB3LYP) =  -688.316811662     A.U. after   23 cycles
 Normal termination of Gaussian 16 at Fri Dec 11 01:00:50 2020.
 Gaussian 16:  ES64L-G16RevA.03 25-Dec-2016

 ----------------------------------------------------------------------
 # B3LYP/6-311++G(d,p) empiricaldispersion=gd3bj scf=xqc pop=npa geom=c
 heck
 ----------------------------------------------------------------------

 -----------------------------------
 CID_63630057_JID_6851_Energie_anion
 -----------------------------------
 Structure from the checkpoint file:  "JID_6851.chk"
 Charge = -1 Multiplicity = 2

                         Standard orientation:
 ---------------------------------------------------------------------
 Center     Atomic      Atomic             Coordinates (Angstroms)
 Number     Number       Type             X           Y           Z
 ---------------------------------------------------------------------
      1          6           0        4.333372    1.701702    0.435966
      2          6           0        3.254437    0.677417    0.208036
      3          6           0        2.454155    0.176383    1.235318
      4          7           0        1.491863   -0.731660    1.059220
      5          6           0        1.317491   -1.163867   -0.203891
      6          7           0        2.018393   -0.754340   -1.287042
      7          6           0        2.966425    0.148303   -1.057432
      8          7           0        0.354066   -2.099006   -0.436623
      9          6           0       -0.717111   -2.399289    0.505898
     10          6           0       -1.654546   -1.233784    0.854254
     11          6           0       -2.501468   -0.657776   -0.295818
     12          6           0       -1.716310    0.171057   -1.338232
     13          6           0       -1.192807    1.485678   -0.743327
     14          6           0       -2.338761    2.275215   -0.104975
     15          7           0       -3.023127    1.437217    0.880721
     16          6           0       -3.613511    0.247417    0.265659
     17          1           0        4.207251    2.575729   -0.214373
     18          1           0        4.322289    2.055885    1.471992
     19          1           0        5.332286    1.292589    0.238675
     20          1           0        2.592039    0.529102    2.258038
     21          1           0        3.528727    0.480175   -1.931414
     22          1           0        0.202749   -2.287946   -1.416495
     23          1           0       -1.285002   -3.230293    0.072230
     24          1           0       -0.260650   -2.764294    1.431732
     25          1           0       -2.340999   -1.611193    1.625529
     26          1           0       -1.076187   -0.442724    1.334759
     27          1           0       -2.990435   -1.495321   -0.817010
     28          1           0       -0.892283   -0.397577   -1.774039
     29          1           0       -2.402881    0.410121   -2.163660
     30          1           0       -0.429018    1.281576    0.015072
     31          1           0       -0.717418    2.088987   -1.526088
     32          1           0       -1.955952    3.168124    0.402522
     33          1           0       -3.021868    2.619341   -0.908927
     34          1           0       -3.747999    1.976866    1.347467
     35          1           0       -4.311105    0.501681   -0.558386
     36          1           0       -4.190095   -0.287053    1.029705
 ---------------------------------------------------------------------

 SCF Done:  E(UB3LYP) =  -688.580876107     A.U. after   33 cycles
 SCF Done:  E(UB3LYP) =  -688.580876107     a.u. after    1 cycles

 The electronic state is 2-A.
 Alpha  occ. eigenvalues --  -14.21201 -14.18610 -14.17568 -14.17485 -10.14397
 Alpha  occ. eigenvalues --  -10.09461 -10.08188 -10.08163 -10.08001 -10.07962
 Alpha  occ. eigenvalues --  -10.07193 -10.06298 -10.06049 -10.05203 -10.05087
 Alpha  occ. eigenvalues --  -10.04831  -0.87727  -0.80289  -0.79887  -0.75905
 Alpha  occ. eigenvalues --   -0.69330  -0.68039  -0.65419  -0.62293  -0.58279
 Alpha  occ. eigenvalues --   -0.54157  -0.53014  -0.52104  -0.50175  -0.48222
 Alpha  occ. eigenvalues --   -0.43463  -0.42283  -0.40682  -0.39706  -0.36236
 Alpha  occ. eigenvalues --   -0.34946  -0.34406  -0.33885  -0.32741  -0.32463
 Alpha  occ. eigenvalues --   -0.31287  -0.30313  -0.29890  -0.29434  -0.29343
 Alpha  occ. eigenvalues --   -0.28977  -0.27792  -0.27376  -0.26072  -0.24431
 Alpha  occ. eigenvalues --   -0.23068  -0.21507  -0.20229  -0.20161  -0.19220
 Alpha  occ. eigenvalues --   -0.18759  -0.18108  -0.12508  -0.11835  -0.10152
 Alpha  occ. eigenvalues --    0.04720
 Alpha virt. eigenvalues --    0.06210   0.06922   0.07399   0.08305   0.08751
 Alpha virt. eigenvalues --    0.09203   0.09790   0.10021   0.10351   0.10905
 Alpha virt. eigenvalues --    0.11265   0.11627   0.12098   0.12442   0.12897

  Beta  occ. eigenvalues --  -14.21203 -14.18589 -14.17366 -14.17343 -10.14424
  Beta  occ. eigenvalues --  -10.09454 -10.07983 -10.07976 -10.07962 -10.07940
  Beta  occ. eigenvalues --  -10.07180 -10.06292 -10.06124 -10.05192 -10.05085
  Beta  occ. eigenvalues --  -10.04828  -0.87541  -0.80237  -0.79787  -0.75499
  Beta  occ. eigenvalues --   -0.69283  -0.67966  -0.65397  -0.62260  -0.58147
  Beta  occ. eigenvalues --   -0.53923  -0.52788  -0.52023  -0.50136  -0.48153
  Beta  occ. eigenvalues --   -0.43353  -0.42221  -0.40614  -0.39597  -0.36169
  Beta  occ. eigenvalues --   -0.34853  -0.34378  -0.33832  -0.32677  -0.32364
  Beta  occ. eigenvalues --   -0.31252  -0.30230  -0.29777  -0.29359  -0.29084
  Beta  occ. eigenvalues --   -0.28908  -0.27648  -0.27343  -0.26014  -0.24390
  Beta  occ. eigenvalues --   -0.22986  -0.21422  -0.20185  -0.20109  -0.18572
  Beta  occ. eigenvalues --   -0.17949  -0.17781  -0.12311  -0.11787  -0.09785
  Beta virt. eigenvalues --    0.06758   0.07064   0.07936   0.08573   0.08797
  Beta virt. eigenvalues --    0.09136   0.09374   0.09869   0.10116   0.10383
  Beta virt. eigenvalues --    0.11191   0.11445   0.11796   0.12196   0.12557

 Mulliken charges and spin densities:
               1          2
     1  C   -0.121280  -0.563189
     2  C    0.422084   0.040445
     3  C   -0.453063   0.389618
     4  N   -0.109400   0.063339
     5  C   -0.460678  -0.154442
     6  N   -0.078362   0.121969
     7  C   -0.339047   0.217964
     8  N   -0.034519   0.014611
     9  C   -0.502638  -0.085275
    10  C    0.223562  -0.293990
    11  C   -0.645213   1.007695
    12  C    0.738270  -1.114547
    13  C   -0.893303   0.641633
    14  C    0.360175  -0.791248
    15  N   -0.370838   0.226714
    16  C    1.038702  -1.627971
    17  H    0.105114   0.030923
    18  H    0.054516   0.080990
    19  H    0.021682   0.110419
    20  H    0.063865   0.064866
    21  H    0.064227   0.079137
    22  H    0.279375   0.013203
    23  H   -0.030794   0.163527
    24  H    0.173889   0.023727
    25  H    0.143415  -0.013412
    26  H    0.204956   0.020314
    27  H   -0.099932   0.291715
    28  H   -0.027329   0.113010
    29  H    0.033120   0.135106
    30  H    0.283185  -0.182204
    31  H    0.121953   0.020269
    32  H   -0.296732   0.458698
    33  H   -0.166643   0.278787
    34  H   -0.065875   0.326595
    35  H   -0.246870   0.344873
    36  H   -0.389574   0.546132
 Sum of Mulliken charges =  -1.00000   1.00000

 Dipole moment (field-independent basis, Debye):
    X=              3.7064    Y=             -1.6104    Z=             -0.6541  Tot=              4.0938
 Quadrupole moment (field-independent basis, Debye-Ang):
   XX=           -171.4026   YY=           -130.6919   ZZ=           -125.8540
   XY=             10.6815   XZ=              4.2773   YZ=             -3.3805

 Summary of Natural Population Analysis:

                                       Natural Population
                Natural  -----------------------------------------------
    Atom  No    Charge         Core      Valence    Rydberg      Total
 -----------------------------------------------------------------------
      C    1   -0.28729      0.99965     2.28255    0.00509     3.28729
      C    2   -0.09881      0.99950     2.09202    0.00729     3.09881
      C    3    0.08263      0.99954     1.90405    0.01377     2.91737
      N    4   -0.26273      0.99967     2.75284    0.01022     3.76273
      C    5    0.29220      0.99960     1.68998    0.01823     2.70780
      N    6   -0.24921      0.99968     2.73847    0.01106     3.74921
      C    7    0.08616      0.99955     1.90042    0.01387     2.91384
      N    8   -0.31414      0.99966     2.80427    0.01021     3.81414
      C    9   -0.08437      0.99962     2.07296    0.01179     3.08437
      C   10   -0.20062      0.99960     2.19182    0.00920     3.20062
      C   11   -0.11502      0.99959     2.10368    0.01175     3.11502
      C   12   -0.19194      0.99961     2.18317    0.00916     3.19194
      C   13   -0.19718      0.99962     2.18929    0.00827     3.19718
      C   14   -0.08537      0.99962     2.07411    0.01164     3.08537
      N   15   -0.34206      0.99974     2.83006    0.01226     3.84206
      C   16   -0.08259      0.99960     2.07012    0.01287     3.08259
      H   17    0.09817      0.00000     0.40049    0.00134     0.40183
      H   18    0.09952      0.00000     0.39917    0.00131     0.40048
      H   19    0.09708      0.00000     0.40143    0.00149     0.40292
      H   20    0.08135      0.00000     0.41747    0.00118     0.41865
      H   21    0.08016      0.00000     0.41863    0.00121     0.41984
      H   22    0.19132      0.00000     0.30605    0.00263     0.30868
      H   23    0.08998      0.00000     0.40914    0.00089     0.41002
      H   24    0.09936      0.00000     0.39946    0.00118     0.40064
      H   25    0.09533      0.00000     0.40359    0.00108     0.40467
      H   26    0.11471      0.00000     0.38315    0.00214     0.38529
      H   27    0.09325      0.00000     0.40498    0.00178     0.40675
      H   28    0.10378      0.00000     0.39470    0.00152     0.39622
      H   29    0.09219      0.00000     0.40639    0.00142     0.40781
      H   30    0.10269      0.00000     0.39496    0.00235     0.39731
      H   31    0.09695      0.00000     0.40217    0.00088     0.40305
      H   32    0.09418      0.00000     0.40476    0.00106     0.40582
      H   33    0.07333      0.00000     0.42494    0.00172     0.42667
      H   34    0.17522      0.00000     0.32126    0.00352     0.32478
      H   35    0.07770      0.00000     0.42036    0.00194     0.42230
      H   36    0.09408      0.00000     0.40445    0.00147     0.40592
 =======================================================================
   * Total *    0.00000     15.99385    43.79737    0.20878    60.00000

 Normal termination of Gaussian 16 at Fri Dec 11 01:17:52 2020.
