 Gaussian 16, Revision A.03,

 -----------------------------------------------------------
 # opt freq B3LYP/6-31G(d) empiricaldispersion=gd3bj scf=xqc
 -----------------------------------------------------------

 -------------------------------
 CID_148031120_JID_3327_neutraal
 -------------------------------
 Symbolic Z-matrix:
 Charge =  0 Multiplicity = 1

 SCF Done:  E(RB3LYP) =  -578.053360465     A.U. after   15 cycles
 SCF Done:  E(RB3LYP) =  -578.056682721     A.U. after   13 cycles
 SCF Done:  E(RB3LYP) =  -578.050687907     A.U. after   14 cycles
 SCF Done:  E(RB3LYP) =  -578.058094174     A.U. after   13 cycles
 SCF Done:  E(RB3LYP) =  -578.057017130     A.U. after   13 cycles
 SCF Done:  E(RB3LYP) =  -578.058496211     A.U. after   13 cycles
 SCF Done:  E(RB3LYP) =  -578.058705751     A.U. after   11 cycles
 SCF Done:  E(RB3LYP) =  -578.058773403     A.U. after   12 cycles
 SCF Done:  E(RB3LYP) =  -578.058793816     A.U. after   11 cycles
 SCF Done:  E(RB3LYP) =  -578.058802458     A.U. after   11 cycles
 SCF Done:  E(RB3LYP) =  -578.058808068     A.U. after   10 cycles
 SCF Done:  E(RB3LYP) =  -578.058810692     A.U. after   11 cycles
 SCF Done:  E(RB3LYP) =  -578.058811249     A.U. after    9 cycles
 SCF Done:  E(RB3LYP) =  -578.058811347     A.U. after    8 cycles
 Optimization completed.
    -- Stationary point found.
 Normal termination of Gaussian 16 at Wed Dec  9 22:56:21 2020.

 --------------------------------------------------------------------
 #N Geom=AllCheck Guess=TCheck SCRF=Check GenChk RB3LYP/6-31G(d) Freq
 --------------------------------------------------------------------

 Structure from the checkpoint file:  "JID_3327.chk"
 -------------------------------
 CID_148031120_JID_3327_neutraal
 -------------------------------
 Charge =  0 Multiplicity = 1

 SCF Done:  E(RB3LYP) =  -578.058811347     A.U. after    1 cycles

  Exact polarizability: 160.774  -1.952 128.310   4.102  -6.289  79.808
 Approx polarizability: 214.981  -1.863 213.837   9.167 -10.096 123.358

                      1                      2                      3
                      A                      A                      A
 Frequencies --     37.5891                54.9036                65.8197
 Red. masses --      7.4140                 3.7058                 3.3033
 Frc consts  --      0.0062                 0.0066                 0.0084
 IR Inten    --      4.0285                 0.5109                 1.4298

                      4                      5                      6
                      A                      A                      A
 Frequencies --     91.0777               110.9550               140.1577
 Red. masses --      3.8039                 3.9672                 2.0408
 Frc consts  --      0.0186                 0.0288                 0.0236
 IR Inten    --      3.3367                 2.7089                 1.2077

                      7                      8                      9
                      A                      A                      A
 Frequencies --    186.4938               196.2769               222.9697
 Red. masses --      2.6344                 2.0470                 1.7216
 Frc consts  --      0.0540                 0.0465                 0.0504
 IR Inten    --      5.2521                 4.2117                 1.9399

                     10                     11                     12
                      A                      A                      A
 Frequencies --    252.8631               266.0910               330.8002
 Red. masses --      2.5273                 2.3439                 2.8572
 Frc consts  --      0.0952                 0.0978                 0.1842
 IR Inten    --      4.4218                 1.2845                 4.3388

                     13                     14                     15
                      A                      A                      A
 Frequencies --    361.3151               402.8698               422.5065
 Red. masses --      4.5338                 3.2678                 3.1225
 Frc consts  --      0.3487                 0.3125                 0.3284
 IR Inten    --      1.8677                 1.3619                 2.9023

                     16                     17                     18
                      A                      A                      A
 Frequencies --    460.2779               505.4644               527.2142
 Red. masses --      2.4515                 2.7633                 3.1737
 Frc consts  --      0.3060                 0.4160                 0.5197
 IR Inten    --      1.6523                13.5410                 1.3920

                     19                     20                     21
                      A                      A                      A
 Frequencies --    599.0921               638.1215               715.9522
 Red. masses --      2.5944                 4.2066                 3.3903
 Frc consts  --      0.5486                 1.0092                 1.0239
 IR Inten    --      0.8796                12.6129                15.6829

                     22                     23                     24
                      A                      A                      A
 Frequencies --    757.1704               780.0691               805.0470
 Red. masses --      3.0859                 2.4118                 1.2562
 Frc consts  --      1.0424                 0.8647                 0.4797
 IR Inten    --     26.8268                 0.3119                 9.0427

                     25                     26                     27
                      A                      A                      A
 Frequencies --    870.1421               893.8607               919.8832
 Red. masses --      2.1230                 1.3872                 2.5887
 Frc consts  --      0.9471                 0.6530                 1.2906
 IR Inten    --     12.4108                13.4593                11.1178

                     28                     29                     30
                      A                      A                      A
 Frequencies --    962.5565               983.5922              1006.1912
 Red. masses --      2.1318                 1.9580                 1.7893
 Frc consts  --      1.1637                 1.1160                 1.0673
 IR Inten    --      0.7208                 3.3750                 8.2103

                     31                     32                     33
                      A                      A                      A
 Frequencies --   1030.9439              1045.2777              1058.8462
 Red. masses --      1.7853                 2.6255                 2.2964
 Frc consts  --      1.1180                 1.6902                 1.5169
 IR Inten    --      1.6183                39.0200                 4.7342

                     34                     35                     36
                      A                      A                      A
 Frequencies --   1078.2127              1104.8521              1133.2036
 Red. masses --      2.0144                 1.6442                 2.5877
 Frc consts  --      1.3798                 1.1826                 1.9578
 IR Inten    --     14.5843                 8.6536                26.5889

                     37                     38                     39
                      A                      A                      A
 Frequencies --   1163.4845              1186.6488              1198.9454
 Red. masses --      2.5635                 1.4859                 1.3470
 Frc consts  --      2.0446                 1.2328                 1.1408
 IR Inten    --     14.0465                11.4714                 8.3589

                     40                     41                     42
                      A                      A                      A
 Frequencies --   1247.8317              1278.3940              1285.2784
 Red. masses --      2.5920                 1.3213                 1.4530
 Frc consts  --      2.3779                 1.2723                 1.4142
 IR Inten    --     19.6231                 8.2840                11.8907

                     43                     44                     45
                      A                      A                      A
 Frequencies --   1296.2760              1299.8530              1359.3145
 Red. masses --      1.2821                 1.3768                 1.4181
 Frc consts  --      1.2693                 1.3706                 1.5439
 IR Inten    --     16.5671                 7.1182                 7.7031

                     46                     47                     48
                      A                      A                      A
 Frequencies --   1377.3016              1404.6422              1419.4428
 Red. masses --      1.5878                 1.6371                 1.2051
 Frc consts  --      1.7746                 1.9031                 1.4305
 IR Inten    --      5.3426                 1.5773                 2.5352

                     49                     50                     51
                      A                      A                      A
 Frequencies --   1425.4446              1437.3482              1460.8345
 Red. masses --      1.7001                 1.2750                 1.2914
 Frc consts  --      2.0353                 1.5520                 1.6238
 IR Inten    --      3.5482                 1.0769                 5.3372

                     52                     53                     54
                      A                      A                      A
 Frequencies --   1483.6628              1492.2869              1507.1245
 Red. masses --      1.1164                 1.0877                 1.0911
 Frc consts  --      1.4479                 1.4272                 1.4602
 IR Inten    --      9.9914                 6.5306                 3.9316

                     55                     56                     57
                      A                      A                      A
 Frequencies --   1513.2376              1529.6838              1537.8893
 Red. masses --      1.0777                 1.0414                 1.0684
 Frc consts  --      1.4540                 1.4358                 1.4887
 IR Inten    --      2.0251                 6.6171                 1.7874

                     58                     59                     60
                      A                      A                      A
 Frequencies --   1631.4410              1716.3156              1783.7392
 Red. masses --      7.3220                 7.1127                 8.9158
 Frc consts  --     11.4822                12.3447                16.7138
 IR Inten    --    140.5534                18.9676               167.1203

                     61                     62                     63
                      A                      A                      A
 Frequencies --   1825.3925              2913.5013              2975.7998
 Red. masses --      9.3192                 1.0832                 1.0863
 Frc consts  --     18.2955                 5.4173                 5.6679
 IR Inten    --    232.8048               139.6547                60.0087

                     64                     65                     66
                      A                      A                      A
 Frequencies --   2992.2821              3006.6393              3020.1092
 Red. masses --      1.0733                 1.0688                 1.0668
 Frc consts  --      5.6623                 5.6924                 5.7331
 IR Inten    --      5.3811                38.5614                30.7498

                     67                     68                     69
                      A                      A                      A
 Frequencies --   3053.2637              3076.2993              3078.0810
 Red. masses --      1.0347                 1.0918                 1.0952
 Frc consts  --      5.6830                 6.0875                 6.1136
 IR Inten    --     34.3500                17.8339                22.1318

                     70                     71                     72
                      A                      A                      A
 Frequencies --   3083.1493              3095.9976              3123.1918
 Red. masses --      1.0579                 1.0872                 1.1024
 Frc consts  --      5.9251                 6.1400                 6.3356
 IR Inten    --      7.2527                29.0113                39.4538

                     73                     74                     75
                      A                      A                      A
 Frequencies --   3125.1683              3149.1252              3161.5530
 Red. masses --      1.1035                 1.1079                 1.0892
 Frc consts  --      6.3499                 6.4736                 6.4147
 IR Inten    --     35.1448                 6.8007                21.4964

 - Thermochemistry -
 -------------------
 Temperature   298.150 Kelvin.  Pressure   1.00000 Atm.
 Atom     1 has atomic number  6 and mass  12.00000

 Molecular mass:   178.09938 amu.
 Principal axes and moments of inertia in atomic units:
                           1         2         3
     Eigenvalues --  1290.621963968.448544868.91367
           X            0.99998   0.00535   0.00300
           Y           -0.00527   0.99964  -0.02630
           Z           -0.00314   0.02628   0.99965
 This molecule is an asymmetric top.
 Rotational symmetry number  1.
 Warning -- assumption of classical behavior for rotation
           may cause significant error
 Rotational temperatures (Kelvin)      0.06711     0.02183     0.01779
 Rotational constants (GHZ):           1.39835     0.45477     0.37067
 Zero-point vibrational energy     596545.6 (Joules/Mol)
                                  142.57782 (Kcal/Mol)
 Warning -- explicit consideration of  19 degrees of freedom as
           vibrations may cause significant error
 Vibrational temperatures:     54.08    78.99    94.70   131.04   159.64
          (Kelvin)            201.66   268.32   282.40   320.80   363.81
                              382.85   475.95   519.85   579.64   607.89
                              662.24   727.25   758.54   861.96   918.11
                             1030.10  1089.40  1122.35  1158.28  1251.94
                             1286.07  1323.51  1384.90  1415.17  1447.68
                             1483.30  1503.92  1523.44  1551.31  1589.64
                             1630.43  1673.99  1707.32  1725.02  1795.35
                             1839.32  1849.23  1865.05  1870.20  1955.75
                             1981.63  2020.97  2042.26  2050.90  2068.02
                             2101.81  2134.66  2147.07  2168.42  2177.21
                             2200.87  2212.68  2347.28  2469.40  2566.40
                             2626.33  4191.88  4281.51  4305.23  4325.88
                             4345.26  4392.97  4426.11  4428.67  4435.96
                             4454.45  4493.58  4496.42  4530.89  4548.77

 Zero-point correction=                           0.227212 (Hartree/Particle)
 Thermal correction to Energy=                    0.240597
 Thermal correction to Enthalpy=                  0.241541
 Thermal correction to Gibbs Free Energy=         0.186259
 Sum of electronic and zero-point Energies=           -577.831599
 Sum of electronic and thermal Energies=              -577.818214
 Sum of electronic and thermal Enthalpies=            -577.817270
 Sum of electronic and thermal Free Energies=         -577.872552

                     E (Thermal)             CV                S
                      KCal/Mol        Cal/Mol-Kelvin    Cal/Mol-Kelvin
 Total                  150.977             48.603            116.351
 Electronic               0.000              0.000              0.000
 Translational            0.889              2.981             41.438
 Rotational               0.889              2.981             31.589
 Vibrational            149.199             42.642             43.323
 Vibration     1          0.594              1.982              5.382
 Vibration     2          0.596              1.976              4.632
 Vibration     3          0.597              1.971              4.275
 Vibration     4          0.602              1.956              3.637
 Vibration     5          0.607              1.940              3.252
 Vibration     6          0.615              1.913              2.802
 Vibration     7          0.632              1.858              2.262
 Vibration     8          0.636              1.845              2.168
 Vibration     9          0.649              1.806              1.935
 Vibration    10          0.664              1.758              1.711
 Vibration    11          0.672              1.735              1.621
 Vibration    12          0.713              1.614              1.256
 Vibration    13          0.735              1.552              1.116
 Vibration    14          0.768              1.464              0.952
 Vibration    15          0.785              1.421              0.883
 Vibration    16          0.818              1.338              0.765
 Vibration    17          0.861              1.238              0.645
 Vibration    18          0.882              1.190              0.593
 Vibration    19          0.957              1.034              0.451

 Optimization completed.
    -- Stationary point found.
 Normal termination of Gaussian 16 at Wed Dec  9 23:02:55 2020.

 ----------------------------------------------------------------------
 # B3LYP/6-311++G(d,p) empiricaldispersion=gd3bj scf=xqc pop=npa geom=c
 heck
 ----------------------------------------------------------------------

 ---------------------------------------
 CID_148031120_JID_3327_Energie_neutraal
 ---------------------------------------
 Structure from the checkpoint file:  "JID_3327.chk"
 Charge =  0 Multiplicity = 1

 SCF Done:  E(RB3LYP) =  -578.221538293     A.U. after   15 cycles
 Normal termination of Gaussian 16 at Wed Dec  9 23:05:26 2020.

 ----------------------------------------------------------------------
 # B3LYP/6-311++G(d,p) empiricaldispersion=gd3bj scf=xqc pop=npa geom=c
 heck
 ----------------------------------------------------------------------

 -------------------------------------
 CID_148031120_JID_3327_Energie_kation
 -------------------------------------
 Structure from the checkpoint file:  "JID_3327.chk"
 Charge =  1 Multiplicity = 2

 SCF Done:  E(UB3LYP) =  -577.927429903     A.U. after   21 cycles
 Normal termination of Gaussian 16 at Wed Dec  9 23:10:11 2020.
 Gaussian 16:  ES64L-G16RevA.03 25-Dec-2016

 ----------------------------------------------------------------------
 # B3LYP/6-311++G(d,p) empiricaldispersion=gd3bj scf=xqc pop=npa geom=c
 heck
 ----------------------------------------------------------------------

 ------------------------------------
 CID_148031120_JID_3327_Energie_anion
 ------------------------------------
 Structure from the checkpoint file:  "JID_3327.chk"
 Charge = -1 Multiplicity = 2

                         Standard orientation:
 ---------------------------------------------------------------------
 Center     Atomic      Atomic             Coordinates (Angstroms)
 Number     Number       Type             X           Y           Z
 ---------------------------------------------------------------------
      1          6           0       -4.387552   -0.079584    0.412886
      2          6           0       -3.396355   -0.011094   -0.762323
      3          6           0       -1.960158   -0.070009   -0.321029
      4          6           0       -1.101372    0.950551   -0.481624
      5          6           0        0.285803    0.909127    0.000465
      6          6           0        0.839304   -0.271209    0.401396
      7          6           0        0.020425   -1.531199    0.239334
      8          6           0       -1.483020   -1.299516    0.422149
      9          6           0        2.269080   -0.440534    0.840859
     10          6           0        3.111721   -0.647318   -0.416894
     11          8           0        3.542425   -1.721806   -0.769119
     12          6           0        1.002041    2.199716    0.040104
     13          8           0        2.189812    2.373486    0.265923
     14          1           0       -4.273672   -1.009671    0.980397
     15          1           0       -5.420379   -0.034302    0.051690
     16          1           0       -4.228725    0.756547    1.102554
     17          1           0       -3.601448   -0.849321   -1.444823
     18          1           0       -3.566986    0.909151   -1.333350
     19          1           0       -1.432486    1.869144   -0.963646
     20          1           0        0.374009   -2.306905    0.926053
     21          1           0        0.215209   -1.915464   -0.776366
     22          1           0       -2.034665   -2.188739    0.095145
     23          1           0       -1.711480   -1.177033    1.493051
     24          1           0        2.630920    0.456689    1.349057
     25          1           0        2.378401   -1.325140    1.473554
     26          1           0        3.264658    0.270732   -1.017410
     27          1           0        0.349247    3.077292   -0.162280
 ---------------------------------------------------------------------

 SCF Done:  E(UB3LYP) =  -578.251332612     A.U. after   25 cycles

 The electronic state is 2-A.
 Alpha  occ. eigenvalues --  -18.97869 -18.93114 -10.11169 -10.07120 -10.06092
 Alpha  occ. eigenvalues --  -10.05950 -10.04457 -10.03534 -10.02946 -10.02851
 Alpha  occ. eigenvalues --  -10.02597 -10.01773 -10.00947  -0.90982  -0.86706
 Alpha  occ. eigenvalues --   -0.71429  -0.67092  -0.62619  -0.61259  -0.56971
 Alpha  occ. eigenvalues --   -0.51259  -0.49699  -0.46318  -0.43590  -0.39261
 Alpha  occ. eigenvalues --   -0.35683  -0.34828  -0.34363  -0.33090  -0.32369
 Alpha  occ. eigenvalues --   -0.31116  -0.29663  -0.29074  -0.27163  -0.26696
 Alpha  occ. eigenvalues --   -0.26271  -0.26023  -0.24935  -0.23884  -0.23281
 Alpha  occ. eigenvalues --   -0.23159  -0.21716  -0.19726  -0.18425  -0.16040
 Alpha  occ. eigenvalues --   -0.12115  -0.08745  -0.07250   0.03024
 Alpha virt. eigenvalues --    0.07175   0.09386   0.09522   0.10179   0.11098
 Alpha virt. eigenvalues --    0.11334   0.12076   0.12471   0.12567   0.12991
 Alpha virt. eigenvalues --    0.13679   0.13986   0.14305   0.14840   0.15841

  Beta  occ. eigenvalues --  -18.97767 -18.92701 -10.11039 -10.06897 -10.06076
  Beta  occ. eigenvalues --  -10.05961 -10.04451 -10.03574 -10.02900 -10.02795
  Beta  occ. eigenvalues --  -10.02601 -10.01140 -10.00969  -0.90780  -0.85958
  Beta  occ. eigenvalues --   -0.71114  -0.66720  -0.62356  -0.61066  -0.56709
  Beta  occ. eigenvalues --   -0.51039  -0.49453  -0.45695  -0.43322  -0.38888
  Beta  occ. eigenvalues --   -0.35487  -0.34588  -0.34097  -0.32905  -0.32088
  Beta  occ. eigenvalues --   -0.30911  -0.29419  -0.28817  -0.26991  -0.26401
  Beta  occ. eigenvalues --   -0.26118  -0.25737  -0.24792  -0.23636  -0.22881
  Beta  occ. eigenvalues --   -0.21625  -0.21263  -0.19458  -0.18246  -0.14985
  Beta  occ. eigenvalues --   -0.11815  -0.08331  -0.05615
  Beta virt. eigenvalues --    0.07023   0.09084   0.09351   0.09648   0.10321
  Beta virt. eigenvalues --    0.11347   0.12005   0.12221   0.12410   0.12515
  Beta virt. eigenvalues --    0.12954   0.13717   0.14269   0.14674   0.15437

 Mulliken charges and spin densities:
               1          2
     1  C   -0.532284  -0.096853
     2  C   -0.300655   0.099455
     3  C    1.424444   0.053437
     4  C   -1.302395  -0.043506
     5  C   -0.566129  -0.095300
     6  C    1.718701   0.489418
     7  C   -0.692541  -0.025586
     8  C   -0.733167   0.044614
     9  C   -0.057926  -0.077022
    10  C   -0.238943   0.063123
    11  O   -0.292354   0.035221
    12  C   -0.639696   0.197329
    13  O   -0.362553   0.134550
    14  H    0.133795   0.010467
    15  H    0.069537   0.042383
    16  H    0.127493   0.002399
    17  H    0.075429   0.047371
    18  H    0.130597   0.014657
    19  H    0.096769   0.001279
    20  H    0.083524   0.011020
    21  H    0.151877   0.049478
    22  H    0.103084   0.017693
    23  H    0.151413  -0.000206
    24  H    0.156657   0.013589
    25  H    0.136988   0.021700
    26  H    0.121045   0.003076
    27  H    0.037292  -0.013786
 Sum of Mulliken charges =  -1.00000   1.00000

 Dipole moment (field-independent basis, Debye):
    X=             -6.0058    Y=             -1.4782    Z=              0.8249  Tot=              6.2398
 Quadrupole moment (field-independent basis, Debye-Ang):
   XX=           -122.7864   YY=           -105.2748   ZZ=            -87.8226
   XY=             -0.1088   XZ=              2.9386   YZ=             -4.9768

 Summary of Natural Population Analysis:

                                       Natural Population
                Natural  -----------------------------------------------
    Atom  No    Charge         Core      Valence    Rydberg      Total
 -----------------------------------------------------------------------
      C    1   -0.28165      0.99967     2.27763    0.00435     3.28165
      C    2   -0.19456      0.99960     2.18696    0.00799     3.19456
      C    3    0.00278      0.99949     1.98484    0.01289     2.99722
      C    4   -0.09666      0.99945     2.08900    0.00821     3.09666
      C    5   -0.11931      0.99940     2.10831    0.01160     3.11931
      C    6    0.16543      0.99945     1.82340    0.01172     2.83457
      C    7   -0.20085      0.99961     2.19420    0.00704     3.20085
      C    8   -0.19474      0.99960     2.18837    0.00677     3.19474
      C    9   -0.25729      0.99958     2.24984    0.00787     3.25729
      C   10    0.24907      0.99974     1.73043    0.02076     2.75093
      O   11   -0.28847      0.99987     3.28064    0.00795     4.28847
      C   12    0.23648      0.99968     1.74373    0.02011     2.76352
      O   13   -0.27238      0.99988     3.26503    0.00747     4.27238
      H   14    0.09450      0.00000     0.40436    0.00115     0.40550
      H   15    0.08900      0.00000     0.40896    0.00205     0.41100
      H   16    0.09617      0.00000     0.40281    0.00102     0.40383
      H   17    0.09072      0.00000     0.40710    0.00218     0.40928
      H   18    0.09403      0.00000     0.40430    0.00166     0.40597
      H   19    0.09023      0.00000     0.40812    0.00165     0.40977
      H   20    0.09699      0.00000     0.40196    0.00105     0.40301
      H   21    0.10550      0.00000     0.39270    0.00180     0.39450
      H   22    0.09240      0.00000     0.40610    0.00150     0.40760
      H   23    0.09386      0.00000     0.40457    0.00157     0.40614
      H   24    0.12816      0.00000     0.37074    0.00110     0.37184
      H   25    0.09619      0.00000     0.40204    0.00176     0.40381
      H   26    0.05396      0.00000     0.44412    0.00192     0.44604
      H   27    0.03043      0.00000     0.46642    0.00315     0.46957
 =======================================================================
   * Total *    0.00000     12.99503    34.84666    0.15831    48.00000

 Normal termination of Gaussian 16 at Wed Dec  9 23:15:45 2020.
