 Gaussian 16, Revision A.03,

 -----------------------------------------------------------
 # opt freq B3LYP/6-31G(d) empiricaldispersion=gd3bj scf=xqc
 -----------------------------------------------------------

 -------------------------------
 CID_152489222_JID_3155_neutraal
 -------------------------------
 Symbolic Z-matrix:
 Charge =  0 Multiplicity = 1

 SCF Done:  E(RB3LYP) =  -572.743196521     A.U. after   15 cycles
 SCF Done:  E(RB3LYP) =  -572.751466495     A.U. after   14 cycles
 SCF Done:  E(RB3LYP) =  -572.755461585     A.U. after   14 cycles
 SCF Done:  E(RB3LYP) =  -572.756772147     A.U. after   14 cycles
 SCF Done:  E(RB3LYP) =  -572.757269047     A.U. after   14 cycles
 SCF Done:  E(RB3LYP) =  -572.757842596     A.U. after   14 cycles
 SCF Done:  E(RB3LYP) =  -572.758513831     A.U. after   16 cycles
 SCF Done:  E(RB3LYP) =  -572.758901199     A.U. after   15 cycles
 SCF Done:  E(RB3LYP) =  -572.759245190     A.U. after   14 cycles
 SCF Done:  E(RB3LYP) =  -572.759438301     A.U. after   13 cycles
 SCF Done:  E(RB3LYP) =  -572.761015775     A.U. after    9 cycles
 SCF Done:  E(RB3LYP) =  -572.761015880     A.U. after    9 cycles
 SCF Done:  E(RB3LYP) =  -572.761015714     A.U. after    9 cycles
 SCF Done:  E(RB3LYP) =  -572.761015741     A.U. after    8 cycles
 SCF Done:  E(RB3LYP) =  -572.761015815     A.U. after    8 cycles
 SCF Done:  E(RB3LYP) =  -572.761015739     A.U. after    8 cycles
 Optimization completed.
    -- Stationary point found.

 1\1\GINC-NODE127\FOpt\RB3LYP\6-31G(d)\C9H18N4\VSC10255\09-Dec-2020\0\\
 # opt freq B3LYP/6-31G(d) empiricaldispersion=gd3bj scf=xqc\\CID_15248
 9222_JID_3155_neutraal\\0,1\C,1.6857004435,-0.3011330334,0.3900960743\
 C,0.6725186327,0.1283123596,1.46647703\C,0.9678487396,1.5832680609,1.8
 744761659\C,-0.7464269212,0.0662206129,0.8723747563\C,0.7326804504,-0.
 7730370694,2.7318016126\C,0.3229639213,-2.2557272537,2.5082003302\C,1.
 182539754,-3.062462889,3.4956528472\C,2.5272601091,-2.3218242696,3.501
 6019093\C,2.1201525397,-0.8347129931,3.4467286619\N,3.3123947286,-2.79

 Normal termination of Gaussian 16 at Wed Dec  9 22:59:34 2020.

 --------------------------------------------------------------------
 #N Geom=AllCheck Guess=TCheck SCRF=Check GenChk RB3LYP/6-31G(d) Freq
 --------------------------------------------------------------------

 Structure from the checkpoint file:  "JID_3155.chk"
 -------------------------------
 CID_152489222_JID_3155_neutraal
 -------------------------------
 Charge =  0 Multiplicity = 1

 SCF Done:  E(RB3LYP) =  -572.761015739     A.U. after    1 cycles

  Exact polarizability: 157.502  -6.488 109.423  -3.534  -0.243  96.664
 Approx polarizability: 235.656 -12.429 153.529  -9.396  -0.534 147.706

                      1                      2                      3
                      A                      A                      A
 Frequencies --     22.7754                42.0178                81.8414
 Red. masses --      7.0747                 5.4076                 3.4430
 Frc consts  --      0.0022                 0.0056                 0.0136
 IR Inten    --      0.0880                 0.4309                 0.5108

                      4                      5                      6
                      A                      A                      A
 Frequencies --     96.3627               163.0337               211.2488
 Red. masses --      3.7319                 3.0967                 2.9090
 Frc consts  --      0.0204                 0.0485                 0.0765
 IR Inten    --      0.3394                 0.4249                 0.2114

                      7                      8                      9
                      A                      A                      A
 Frequencies --    230.7512               256.1869               263.9318
 Red. masses --      1.1731                 2.2054                 2.7261
 Frc consts  --      0.0368                 0.0853                 0.1119
 IR Inten    --      0.0885                 0.2985                 4.1359

                     10                     11                     12
                      A                      A                      A
 Frequencies --    282.2557               290.7073               311.5196
 Red. masses --      1.3302                 1.0667                 2.3503
 Frc consts  --      0.0624                 0.0531                 0.1344
 IR Inten    --      0.3074                 0.4396                 0.4714

                     13                     14                     15
                      A                      A                      A
 Frequencies --    334.1971               356.4839               371.7300
 Red. masses --      2.5754                 2.4131                 2.3767
 Frc consts  --      0.1695                 0.1807                 0.1935
 IR Inten    --      0.0770                 0.3220                 0.2085

                     16                     17                     18
                      A                      A                      A
 Frequencies --    389.7727               455.7152               467.2964
 Red. masses --      2.2009                 2.7068                 2.7254
 Frc consts  --      0.1970                 0.3312                 0.3506
 IR Inten    --      0.0231                 0.0075                 3.4483

                     19                     20                     21
                      A                      A                      A
 Frequencies --    511.7596               564.5518               588.5533
 Red. masses --      2.5130                13.2267                 2.2261
 Frc consts  --      0.3878                 2.4838                 0.4543
 IR Inten    --      1.8557                10.7858                 1.0856

                     22                     23                     24
                      A                      A                      A
 Frequencies --    663.8468               705.3726               750.2199
 Red. masses --      5.2193                 2.4600                 3.7454
 Frc consts  --      1.3552                 0.7212                 1.2420
 IR Inten    --     29.4252                11.2228                 7.4463

                     25                     26                     27
                      A                      A                      A
 Frequencies --    825.4902               839.2429               862.8008
 Red. masses --      2.7629                 2.7617                 2.1118
 Frc consts  --      1.1093                 1.1460                 0.9262
 IR Inten    --      0.5866                15.5944                 0.7879

                     28                     29                     30
                      A                      A                      A
 Frequencies --    908.0247               922.0373               943.5066
 Red. masses --      4.0908                 2.1363                 1.7793
 Frc consts  --      1.9872                 1.0701                 0.9332
 IR Inten    --      3.2237                11.0184                 1.3592

                     31                     32                     33
                      A                      A                      A
 Frequencies --    947.1366               956.6573               973.0885
 Red. masses --      1.7790                 1.8151                 1.2035
 Frc consts  --      0.9403                 0.9787                 0.6714
 IR Inten    --      0.3294                 5.3265                 0.0421

                     34                     35                     36
                      A                      A                      A
 Frequencies --    986.1647               993.6668              1013.8428
 Red. masses --      2.1787                 2.5222                 1.6538
 Frc consts  --      1.2484                 1.4673                 1.0015
 IR Inten    --      2.0554                26.8240                14.0343

                     37                     38                     39
                      A                      A                      A
 Frequencies --   1046.2497              1048.1941              1072.3481
 Red. masses --      1.5466                 1.3780                 1.6165
 Frc consts  --      0.9974                 0.8920                 1.0952
 IR Inten    --      3.2420                 2.3858                14.6647

                     40                     41                     42
                      A                      A                      A
 Frequencies --   1091.2712              1116.6556              1172.7983
 Red. masses --      1.6891                 2.3954                 1.2006
 Frc consts  --      1.1851                 1.7598                 0.9730
 IR Inten    --      3.8070                 2.8937                 0.9425

                     43                     44                     45
                      A                      A                      A
 Frequencies --   1219.7072              1233.0537              1249.0292
 Red. masses --      1.9054                 2.2972                 2.0100
 Frc consts  --      1.6702                 2.0579                 1.8476
 IR Inten    --      3.3675                37.2401                 4.7701

                     46                     47                     48
                      A                      A                      A
 Frequencies --   1261.4708              1284.1738              1289.8210
 Red. masses --      2.7328                 1.8455                 1.8369
 Frc consts  --      2.5622                 1.7931                 1.8005
 IR Inten    --      2.4476                54.4155                 2.3438

                     49                     50                     51
                      A                      A                      A
 Frequencies --   1297.2030              1326.9756              1348.2051
 Red. masses --      2.0421                 1.3270                 1.2540
 Frc consts  --      2.0246                 1.3767                 1.3430
 IR Inten    --      8.3805                 1.2169                 0.9861

                     52                     53                     54
                      A                      A                      A
 Frequencies --   1358.3471              1367.9849              1385.9918
 Red. masses --      1.4379                 1.4447                 1.3054
 Frc consts  --      1.5631                 1.5929                 1.4774
 IR Inten    --      0.8008                 2.1826                 6.0942

                     55                     56                     57
                      A                      A                      A
 Frequencies --   1393.6225              1429.2062              1430.9658
 Red. masses --      1.4476                 1.2386                 1.2467
 Frc consts  --      1.6565                 1.4906                 1.5041
 IR Inten    --      2.7722                 5.7471                 7.5693

                     58                     59                     60
                      A                      A                      A
 Frequencies --   1460.7940              1509.5437              1511.3877
 Red. masses --      1.2249                 1.0977                 1.0793
 Frc consts  --      1.5400                 1.4738                 1.4526
 IR Inten    --      7.5674                 6.2177                 3.0614

                     61                     62                     63
                      A                      A                      A
 Frequencies --   1515.7612              1518.8645              1522.9884
 Red. masses --      1.0690                 1.0605                 1.0535
 Frc consts  --      1.4470                 1.4415                 1.4397
 IR Inten    --      4.8137                 4.4956                 1.4091

                     64                     65                     66
                      A                      A                      A
 Frequencies --   1529.4252              1539.6127              1543.5793
 Red. masses --      1.0904                 1.0624                 1.0711
 Frc consts  --      1.5028                 1.4838                 1.5037
 IR Inten    --      9.8352                 6.8839                 2.5673

                     67                     68                     69
                      A                      A                      A
 Frequencies --   1551.5915              1553.3060              2229.5448
 Red. masses --      1.0676                 1.0708                13.9483
 Frc consts  --      1.5142                 1.5222                40.8513
 IR Inten    --     10.8552                10.0338               571.2377

                     70                     71                     72
                      A                      A                      A
 Frequencies --   3026.5521              3039.4784              3040.9831
 Red. masses --      1.0839                 1.0354                 1.0376
 Frc consts  --      5.8498                 5.6360                 5.6536
 IR Inten    --     15.4472                23.1484                34.1241

                     73                     74                     75
                      A                      A                      A
 Frequencies --   3047.8183              3056.9853              3061.5465
 Red. masses --      1.0420                 1.0646                 1.0618
 Frc consts  --      5.7026                 5.8615                 5.8640
 IR Inten    --      8.9792                20.3266                28.8398

                     76                     77                     78
                      A                      A                      A
 Frequencies --   3069.7064              3090.8601              3100.7703
 Red. masses --      1.0712                 1.0848                 1.0993
 Frc consts  --      5.9475                 6.1062                 6.2274
 IR Inten    --     21.5252                49.1937                21.7332

                     79                     80                     81
                      A                      A                      A
 Frequencies --   3102.5259              3108.0556              3108.9728
 Red. masses --      1.1024                 1.0961                 1.1009
 Frc consts  --      6.2522                 6.2386                 6.2697
 IR Inten    --      0.3358                16.4521                70.3341

                     82                     83                     84
                      A                      A                      A
 Frequencies --   3115.3946              3117.2034              3117.7252
 Red. masses --      1.1012                 1.1029                 1.1009
 Frc consts  --      6.2969                 6.3143                 6.3050
 IR Inten    --     31.5616                22.0614                56.8658

                     85                     86                     87
                      A                      A                      A
 Frequencies --   3120.7680              3131.2825              3498.0452
 Red. masses --      1.1015                 1.0957                 1.0736
 Frc consts  --      6.3208                 6.3296                 7.7400
 IR Inten    --     40.6044                26.4021                 6.3110

 - Thermochemistry -
 -------------------
 Temperature   298.150 Kelvin.  Pressure   1.00000 Atm.
 Atom     1 has atomic number  6 and mass  12.00000

 Molecular mass:   182.15315 amu.
 Principal axes and moments of inertia in atomic units:
                           1         2         3
     Eigenvalues --  1297.219723966.422764539.42906
           X            0.99972   0.02339  -0.00421
           Y           -0.02337   0.99972   0.00486
           Z            0.00432  -0.00476   0.99998
 This molecule is an asymmetric top.
 Rotational symmetry number  1.
 Warning -- assumption of classical behavior for rotation
           may cause significant error
 Rotational temperatures (Kelvin)      0.06677     0.02184     0.01908
 Rotational constants (GHZ):           1.39124     0.45500     0.39757
 Zero-point vibrational energy     723430.5 (Joules/Mol)
                                  172.90404 (Kcal/Mol)
 Warning -- explicit consideration of  21 degrees of freedom as
           vibrations may cause significant error
 Vibrational temperatures:     32.77    60.45   117.75   138.64   234.57
          (Kelvin)            303.94   332.00   368.60   379.74   406.10
                              418.26   448.21   480.84   512.90   534.84
                              560.80   655.67   672.34   736.31   812.26
                              846.80   955.13  1014.87  1079.40  1187.70
                             1207.48  1241.38  1306.45  1326.61  1357.50
                             1362.72  1376.42  1400.06  1418.87  1429.66
                             1458.69  1505.32  1508.12  1542.87  1570.10
                             1606.62  1687.40  1754.89  1774.09  1797.07
                             1814.98  1847.64  1855.76  1866.39  1909.22
                             1939.77  1954.36  1968.23  1994.13  2005.11
                             2056.31  2058.84  2101.76  2171.90  2174.55
                             2180.84  2185.31  2191.24  2200.50  2215.16
                             2220.87  2232.39  2234.86  3207.82  4354.53
                             4373.13  4375.30  4385.13  4398.32  4404.88
                             4416.62  4447.06  4461.32  4463.84  4471.80
                             4473.12  4482.36  4484.96  4485.71  4490.09
                             4505.22  5032.91

 Zero-point correction=                           0.275540 (Hartree/Particle)
 Thermal correction to Energy=                    0.289281
 Thermal correction to Enthalpy=                  0.290225
 Thermal correction to Gibbs Free Energy=         0.234665
 Sum of electronic and zero-point Energies=           -572.485476
 Sum of electronic and thermal Energies=              -572.471734
 Sum of electronic and thermal Enthalpies=            -572.470790
 Sum of electronic and thermal Free Energies=         -572.526351

                     E (Thermal)             CV                S
                      KCal/Mol        Cal/Mol-Kelvin    Cal/Mol-Kelvin
 Total                  181.527             52.755            116.937
 Electronic               0.000              0.000              0.000
 Translational            0.889              2.981             41.506
 Rotational               0.889              2.981             31.524
 Vibrational            179.749             46.794             43.908
 Vibration     1          0.593              1.985              6.376
 Vibration     2          0.595              1.980              5.162
 Vibration     3          0.600              1.962              3.846
 Vibration     4          0.603              1.952              3.527
 Vibration     5          0.623              1.888              2.514
 Vibration     6          0.643              1.824              2.033
 Vibration     7          0.652              1.794              1.873
 Vibration     8          0.666              1.752              1.688
 Vibration     9          0.670              1.739              1.636
 Vibration    10          0.681              1.707              1.520
 Vibration    11          0.687              1.691              1.470
 Vibration    12          0.700              1.652              1.354
 Vibration    13          0.716              1.607              1.240
 Vibration    14          0.732              1.562              1.137
 Vibration    15          0.743              1.530              1.073
 Vibration    16          0.758              1.492              1.001
 Vibration    17          0.814              1.348              0.779
 Vibration    18          0.825              1.323              0.745
 Vibration    19          0.867              1.224              0.629
 Vibration    20          0.920              1.108              0.515
 Vibration    21          0.946              1.056              0.470

                           ! Non-Optimized Parameters !

 1\1\GINC-NODE127\Freq\RB3LYP\6-31G(d)\C9H18N4\VSC10255\09-Dec-2020\0\\
 #N Geom=AllCheck Guess=TCheck SCRF=Check GenChk RB3LYP/6-31G(d) Freq\\
 CID_152489222_JID_3155_neutraal\\0,1\C,1.6857004435,-0.3011330334,0.39
 00960743\C,0.6725186327,0.1283123596,1.46647703\C,0.9678487396,1.58326
 80609,1.8744761659\C,-0.7464269212,0.0662206129,0.8723747563\C,0.73268
 04504,-0.7730370694,2.7318016126\C,0.3229639213,-2.2557272537,2.508200
 3302\C,1.182539754,-3.062462889,3.4956528472\C,2.5272601091,-2.3218242
 696,3.5016019093\C,2.1201525397,-0.8347129931,3.4467286619\N,3.3123947

 Normal termination of Gaussian 16 at Wed Dec  9 23:08:53 2020.

 ----------------------------------------------------------------------
 # B3LYP/6-311++G(d,p) empiricaldispersion=gd3bj scf=xqc pop=npa geom=c
 heck
 ----------------------------------------------------------------------

 ---------------------------------------
 CID_152489222_JID_3155_Energie_neutraal
 ---------------------------------------
 Structure from the checkpoint file:  "JID_3155.chk"
 Charge =  0 Multiplicity = 1

 SCF Done:  E(RB3LYP) =  -572.921105192     A.U. after   15 cycles
 Normal termination of Gaussian 16 at Wed Dec  9 23:13:22 2020.

 ----------------------------------------------------------------------
 # B3LYP/6-311++G(d,p) empiricaldispersion=gd3bj scf=xqc pop=npa geom=c
 heck
 ----------------------------------------------------------------------

 -------------------------------------
 CID_152489222_JID_3155_Energie_kation
 -------------------------------------
 Structure from the checkpoint file:  "JID_3155.chk"
 Charge =  1 Multiplicity = 2

 SCF Done:  E(UB3LYP) =  -572.595637808     A.U. after   28 cycles
 Normal termination of Gaussian 16 at Wed Dec  9 23:25:03 2020.
 Gaussian 16:  ES64L-G16RevA.03 25-Dec-2016

 ------------------------------------
 CID_152489222_JID_3155_Energie_anion
 ------------------------------------
 Structure from the checkpoint file:  "JID_3155.chk"
 Charge = -1 Multiplicity = 2

                         Standard orientation:
 ---------------------------------------------------------------------
 Center     Atomic      Atomic             Coordinates (Angstroms)
 Number     Number       Type             X           Y           Z
 ---------------------------------------------------------------------
      1          6           0       -1.294266   -1.412171    1.066249
      2          6           0       -2.126768   -0.622718    0.039965
      3          6           0       -2.504361   -1.561148   -1.120790
      4          6           0       -3.421849   -0.134562    0.714271
      5          6           0       -1.358893    0.602716   -0.530804
      6          6           0       -1.024207    1.714135    0.503105
      7          6           0        0.311279    2.312339    0.030467
      8          6           0        1.082832    1.102289   -0.514820
      9          6           0       -0.003354    0.276857   -1.235313
     10          7           0        1.727765    0.421590    0.633251
     11          7           0        2.271371   -0.866256    0.213388
     12          7           0        3.513018   -0.815517    0.114255
     13          7           0        4.637444   -0.930646   -0.039084
     14          1           0       -1.864275   -2.275260    1.428821
     15          1           0       -1.046454   -0.805418    1.945612
     16          1           0       -0.361755   -1.793581    0.637214
     17          1           0       -3.089217   -2.413636   -0.755801
     18          1           0       -3.109534   -1.034762   -1.868931
     19          1           0       -1.617864   -1.959271   -1.625759
     20          1           0       -3.212184    0.504886    1.578573
     21          1           0       -4.038068    0.440252    0.012101
     22          1           0       -4.019463   -0.983468    1.066642
     23          1           0       -2.026041    1.046075   -1.281513
     24          1           0       -1.816661    2.464876    0.573416
     25          1           0       -0.911584    1.295640    1.510782
     26          1           0        0.863144    2.839538    0.814877
     27          1           0        0.138766    3.017263   -0.791618
     28          1           0        1.894065    1.393800   -1.189236
     29          1           0        0.252855   -0.785041   -1.224807
     30          1           0       -0.046611    0.574824   -2.288516
     31          1           0        1.001217    0.142667    1.291490
 ---------------------------------------------------------------------

 SCF Done:  E(UB3LYP) =  -572.917637566     A.U. after   30 cycles

 The electronic state is 2-A.
 Alpha  occ. eigenvalues --  -14.31588 -14.23390 -14.22801 -14.21449 -10.08579
 Alpha  occ. eigenvalues --  -10.08013 -10.06354 -10.05805 -10.05778 -10.05588
 Alpha  occ. eigenvalues --  -10.05520 -10.05225 -10.04879  -0.99370  -0.86442
 Alpha  occ. eigenvalues --   -0.76418  -0.72561  -0.68238  -0.60446  -0.58921
 Alpha  occ. eigenvalues --   -0.58388  -0.57908  -0.48612  -0.46657  -0.43295
 Alpha  occ. eigenvalues --   -0.41963  -0.38377  -0.37332  -0.36917  -0.36294
 Alpha  occ. eigenvalues --   -0.34136  -0.33460  -0.32966  -0.31507  -0.30515
 Alpha  occ. eigenvalues --   -0.29333  -0.28985  -0.27379  -0.26583  -0.26181
 Alpha  occ. eigenvalues --   -0.24895  -0.23800  -0.23316  -0.23031  -0.21781
 Alpha  occ. eigenvalues --   -0.20647  -0.20365  -0.19819  -0.13107  -0.11009
 Alpha  occ. eigenvalues --    0.04441
 Alpha virt. eigenvalues --    0.06531   0.07411   0.08141   0.08952   0.09657
 Alpha virt. eigenvalues --    0.10097   0.10293   0.10902   0.11525   0.12476
 Alpha virt. eigenvalues --    0.12762   0.13221   0.13670   0.14066   0.14201

  Beta  occ. eigenvalues --  -14.31266 -14.23445 -14.22319 -14.21319 -10.08574
  Beta  occ. eigenvalues --  -10.08010 -10.06343 -10.05786 -10.05757 -10.05572
  Beta  occ. eigenvalues --  -10.05497 -10.05197 -10.04867  -0.98722  -0.86127
  Beta  occ. eigenvalues --   -0.76237  -0.72463  -0.68114  -0.60407  -0.58839
  Beta  occ. eigenvalues --   -0.58342  -0.57855  -0.48550  -0.46555  -0.43004
  Beta  occ. eigenvalues --   -0.41900  -0.38304  -0.36889  -0.36261  -0.35926
  Beta  occ. eigenvalues --   -0.34002  -0.33375  -0.32735  -0.31133  -0.29907
  Beta  occ. eigenvalues --   -0.29258  -0.28947  -0.27197  -0.26534  -0.25977
  Beta  occ. eigenvalues --   -0.24865  -0.23762  -0.23261  -0.22975  -0.21473
  Beta  occ. eigenvalues --   -0.20615  -0.20213  -0.19523  -0.12898  -0.10855
  Beta virt. eigenvalues --    0.06725   0.07946   0.08462   0.09035   0.09828
  Beta virt. eigenvalues --    0.10155   0.10516   0.10705   0.11123   0.11782
  Beta virt. eigenvalues --    0.12651   0.12839   0.13414   0.13923   0.14243

 Mulliken charges and spin densities:
               1          2
     1  C    0.045487  -0.775625
     2  C   -1.183148   1.663531
     3  C    0.041678  -0.613141
     4  C    0.273584  -0.788720
     5  C    0.695142  -0.316053
     6  C   -0.179130  -0.163347
     7  C    0.499059  -1.281052
     8  C   -1.100940   1.228400
     9  C    0.438494  -1.426545
    10  N    0.269514  -0.222680
    11  N   -1.320021   0.735450
    12  N    0.929981  -0.271081
    13  N   -0.010048  -0.078446
    14  H    0.089349   0.060633
    15  H   -0.060769   0.208757
    16  H    0.010846   0.186687
    17  H   -0.028016   0.162512
    18  H   -0.132231   0.265129
    19  H    0.155109  -0.015404
    20  H   -0.039651   0.184784
    21  H   -0.180722   0.319142
    22  H   -0.130083   0.276326
    23  H    0.010113   0.219699
    24  H   -0.253079   0.432018
    25  H    0.115354   0.018404
    26  H    0.129157   0.050827
    27  H   -0.239856   0.383481
    28  H    0.090659   0.121256
    29  H    0.143811   0.019516
    30  H   -0.194380   0.352934
    31  H    0.114733   0.062610
 Sum of Mulliken charges =  -1.00000   1.00000

 Dipole moment (field-independent basis, Debye):
    X=             -2.0739    Y=             -0.4007    Z=              0.4852  Tot=              2.1673
 Quadrupole moment (field-independent basis, Debye-Ang):
   XX=           -157.5658   YY=           -114.5923   ZZ=           -105.7691
   XY=              9.1794   XZ=             -1.9430   YZ=              2.2339

 Summary of Natural Population Analysis:

                                       Natural Population
                Natural  -----------------------------------------------
    Atom  No    Charge         Core      Valence    Rydberg      Total
 -----------------------------------------------------------------------
      C    1   -0.29220      0.99962     2.28582    0.00677     3.29220
      C    2   -0.04451      0.99957     2.03293    0.01202     3.04451
      C    3   -0.28251      0.99962     2.27686    0.00602     3.28251
      C    4   -0.28462      0.99963     2.27739    0.00760     3.28462
      C    5   -0.10792      0.99956     2.09508    0.01328     3.10792
      C    6   -0.19524      0.99962     2.18686    0.00875     3.19524
      C    7   -0.19458      0.99961     2.18601    0.00896     3.19458
      C    8   -0.01154      0.99959     1.99814    0.01382     3.01154
      C    9   -0.20587      0.99960     2.19698    0.00929     3.20587
      N   10   -0.24487      0.99973     2.73292    0.01222     3.74487
      N   11   -0.15842      0.99973     2.64331    0.01538     3.65842
      N   12    0.13883      0.99971     2.34617    0.01528     3.36117
      N   13    0.00693      0.99982     2.47911    0.01414     3.49307
      H   14    0.09866      0.00000     0.40050    0.00085     0.40134
      H   15    0.09647      0.00000     0.40235    0.00118     0.40353
      H   16    0.10917      0.00000     0.38919    0.00164     0.39083
      H   17    0.09652      0.00000     0.40264    0.00084     0.40348
      H   18    0.09903      0.00000     0.39999    0.00098     0.40097
      H   19    0.10109      0.00000     0.39800    0.00091     0.39891
      H   20    0.10019      0.00000     0.39887    0.00094     0.39981
      H   21    0.10007      0.00000     0.39889    0.00104     0.39993
      H   22    0.09702      0.00000     0.40214    0.00084     0.40298
      H   23    0.09958      0.00000     0.39878    0.00164     0.40042
      H   24    0.10348      0.00000     0.39539    0.00113     0.39652
      H   25    0.09301      0.00000     0.40551    0.00147     0.40699
      H   26    0.10348      0.00000     0.39539    0.00112     0.39652
      H   27    0.09986      0.00000     0.39894    0.00121     0.40014
      H   28    0.09516      0.00000     0.40364    0.00119     0.40484
      H   29    0.11103      0.00000     0.38753    0.00144     0.38897
      H   30    0.10079      0.00000     0.39813    0.00108     0.39921
      H   31    0.17190      0.00000     0.32429    0.00381     0.32810
 =======================================================================
   * Total *    0.00000     12.99540    36.83777    0.16683    50.00000

 Normal termination of Gaussian 16 at Wed Dec  9 23:37:40 2020.
