 Gaussian 16, Revision A.03,

 -----------------------------------------------------------
 # opt freq B3LYP/6-31G(d) empiricaldispersion=gd3bj scf=xqc
 -----------------------------------------------------------

 ------------------------------
 CID_21422056_JID_5207_neutraal
 ------------------------------
 Symbolic Z-matrix:
 Charge =  0 Multiplicity = 1

 SCF Done:  E(RB3LYP) =  -1077.25035577     A.U. after   15 cycles
 SCF Done:  E(RB3LYP) =  -1077.25659440     A.U. after   13 cycles
 SCF Done:  E(RB3LYP) =  -1077.25854083     A.U. after   13 cycles
 SCF Done:  E(RB3LYP) =  -1077.25968540     A.U. after   12 cycles
 SCF Done:  E(RB3LYP) =  -1077.26059833     A.U. after   13 cycles
 SCF Done:  E(RB3LYP) =  -1077.26136708     A.U. after   12 cycles
 SCF Done:  E(RB3LYP) =  -1077.26231255     A.U. after   14 cycles
 SCF Done:  E(RB3LYP) =  -1077.26268734     A.U. after   14 cycles
 SCF Done:  E(RB3LYP) =  -1077.26334517     A.U. after   12 cycles
 SCF Done:  E(RB3LYP) =  -1077.26362175     A.U. after   12 cycles
 SCF Done:  E(RB3LYP) =  -1077.26369821     A.U. after   11 cycles
 SCF Done:  E(RB3LYP) =  -1077.26370242     A.U. after    9 cycles
 SCF Done:  E(RB3LYP) =  -1077.26370512     A.U. after    9 cycles
 SCF Done:  E(RB3LYP) =  -1077.26370748     A.U. after   10 cycles
 SCF Done:  E(RB3LYP) =  -1077.26370780     A.U. after    8 cycles
 Optimization completed.
    -- Stationary point found.
 Normal termination of Gaussian 16 at Thu Dec 10 14:51:14 2020.

 --------------------------------------------------------------------
 #N Geom=AllCheck Guess=TCheck SCRF=Check GenChk RB3LYP/6-31G(d) Freq
 --------------------------------------------------------------------

 Structure from the checkpoint file:  "JID_5207.chk"
 ------------------------------
 CID_21422056_JID_5207_neutraal
 ------------------------------
 Charge =  0 Multiplicity = 1

 SCF Done:  E(RB3LYP) =  -1077.26370780     A.U. after    1 cycles

  Exact polarizability: 172.723  -0.007 128.050  -5.964  16.476  70.054
 Approx polarizability: 248.210  -8.708 221.196 -17.320  39.086 125.036

                      1                      2                      3
                      A                      A                      A
 Frequencies --     33.0820                50.8207                63.7630
 Red. masses --      5.6278                 4.9997                 6.5099
 Frc consts  --      0.0036                 0.0076                 0.0156
 IR Inten    --      0.6668                 0.4171                 1.0636

                      4                      5                      6
                      A                      A                      A
 Frequencies --    102.1552               125.9007               172.7505
 Red. masses --      6.8456                 5.7545                 8.2030
 Frc consts  --      0.0421                 0.0537                 0.1442
 IR Inten    --      2.2596                 1.5425                 4.9756

                      7                      8                      9
                      A                      A                      A
 Frequencies --    231.2412               269.5532               293.2365
 Red. masses --      5.5515                 6.1765                 9.9234
 Frc consts  --      0.1749                 0.2644                 0.5027
 IR Inten    --      2.8227                 4.1647                 2.6562

                     10                     11                     12
                      A                      A                      A
 Frequencies --    336.4189               382.5757               402.0021
 Red. masses --      9.0408                 9.0043                 2.6021
 Frc consts  --      0.6029                 0.7765                 0.2478
 IR Inten    --      3.8873                 3.3043                12.1926

                     13                     14                     15
                      A                      A                      A
 Frequencies --    419.2312               427.0166               510.7687
 Red. masses --      3.4275                 2.2293                 3.2179
 Frc consts  --      0.3549                 0.2395                 0.4946
 IR Inten    --      4.3099                40.7368                 6.8956

                     16                     17                     18
                      A                      A                      A
 Frequencies --    532.1674               592.9696               612.0974
 Red. masses --     10.2086                11.6338                 2.0525
 Frc consts  --      1.7034                 2.4101                 0.4531
 IR Inten    --     71.2724               124.2665                27.2137

                     19                     20                     21
                      A                      A                      A
 Frequencies --    634.6651               645.7085               706.5740
 Red. masses --      5.9386                 5.2564                 2.4010
 Frc consts  --      1.4094                 1.2912                 0.7062
 IR Inten    --      6.2612                52.8407                 3.1432

                     22                     23                     24
                      A                      A                      A
 Frequencies --    707.9798               727.0346               767.8899
 Red. masses --      2.6619                 2.6216                 1.6853
 Frc consts  --      0.7861                 0.8164                 0.5855
 IR Inten    --     64.7935                39.0107                55.2689

                     25                     26                     27
                      A                      A                      A
 Frequencies --    839.5813               846.9112               896.7061
 Red. masses --      3.8694                 1.2612                 1.3687
 Frc consts  --      1.6070                 0.5330                 0.6484
 IR Inten    --     36.1554                 3.5103                 9.3853

                     28                     29                     30
                      A                      A                      A
 Frequencies --    898.8127               919.8253               966.9896
 Red. masses --      4.6216                 1.4154                 1.3277
 Frc consts  --      2.1998                 0.7056                 0.7315
 IR Inten    --    201.7464                 6.5194                 0.2477

                     31                     32                     33
                      A                      A                      A
 Frequencies --    979.0527               997.9994              1021.2280
 Red. masses --      8.1091                 1.2598                 6.1305
 Frc consts  --      4.5797                 0.7393                 3.7670
 IR Inten    --     24.4112                 0.2389                 0.1511

                     34                     35                     36
                      A                      A                      A
 Frequencies --   1036.4271              1063.2232              1110.9997
 Red. masses --      5.9087                 2.1566                 3.6432
 Frc consts  --      3.7395                 1.4364                 2.6495
 IR Inten    --      9.8198                 8.8093               148.7982

                     37                     38                     39
                      A                      A                      A
 Frequencies --   1122.8118              1132.7712              1195.5630
 Red. masses --      1.5713                 5.6670                 1.0948
 Frc consts  --      1.1671                 4.2844                 0.9220
 IR Inten    --      7.7517                78.4616                 0.3119

                     40                     41                     42
                      A                      A                      A
 Frequencies --   1209.7016              1222.8994              1251.1824
 Red. masses --      2.5556                 1.1483                 2.6796
 Frc consts  --      2.2035                 1.0118                 2.4715
 IR Inten    --     28.5699                 1.6422                65.1582

                     43                     44                     45
                      A                      A                      A
 Frequencies --   1268.2513              1312.1969              1318.0459
 Red. masses --      1.9867                 4.3446                 2.9289
 Frc consts  --      1.8828                 4.4075                 2.9979
 IR Inten    --     38.5301                15.5822                49.1940

                     46                     47                     48
                      A                      A                      A
 Frequencies --   1358.2174              1378.4713              1398.1995
 Red. masses --      9.7713                 1.8184                 5.0547
 Frc consts  --     10.6204                 2.0358                 5.8222
 IR Inten    --    101.4833                10.4071                 3.7869

                     49                     50                     51
                      A                      A                      A
 Frequencies --   1426.8200              1474.5978              1523.4180
 Red. masses --      1.5936                 3.3992                 2.1303
 Frc consts  --      1.9114                 4.3549                 2.9129
 IR Inten    --     84.7610                 6.9609                 9.2823

                     52                     53                     54
                      A                      A                      A
 Frequencies --   1550.1143              1552.8708              1656.2253
 Red. masses --      2.2041                 3.8853                 5.6768
 Frc consts  --      3.1204                 5.5201                 9.1748
 IR Inten    --     65.0112                10.1753                 2.4567

                     55                     56                     57
                      A                      A                      A
 Frequencies --   1665.1333              3181.0954              3193.6059
 Red. masses --      5.4067                 1.0878                 1.0873
 Frc consts  --      8.8325                 6.4856                 6.5335
 IR Inten    --     37.5607                 8.0777                 1.8823

                     58                     59                     60
                      A                      A                      A
 Frequencies --   3203.2281              3214.6830              3220.6903
 Red. masses --      1.0918                 1.0951                 1.0969
 Frc consts  --      6.6004                 6.6677                 6.7040
 IR Inten    --     25.7370                 7.3287                19.9392

                     61                     62                     63
                      A                      A                      A
 Frequencies --   3292.3597              3562.9004              3645.9361
 Red. masses --      1.0978                 1.0758                 1.0827
 Frc consts  --      7.0109                 8.0464                 8.4793
 IR Inten    --      3.4525                47.1268               117.1595

 - Thermochemistry -
 -------------------
 Temperature   298.150 Kelvin.  Pressure   1.00000 Atm.
 Atom     1 has atomic number  6 and mass  12.00000

 Molecular mass:   224.03680 amu.
 Principal axes and moments of inertia in atomic units:
                           1         2         3
     Eigenvalues --  1564.297655136.219336065.55699
           X            1.00000  -0.00082   0.00017
           Y            0.00082   0.99950   0.03164
           Z           -0.00020  -0.03164   0.99950
 This molecule is an asymmetric top.
 Rotational symmetry number  1.
 Warning -- assumption of classical behavior for rotation
           may cause significant error
 Rotational temperatures (Kelvin)      0.05537     0.01686     0.01428
 Rotational constants (GHZ):           1.15371     0.35138     0.29754
 Zero-point vibrational energy     441765.1 (Joules/Mol)
                                  105.58438 (Kcal/Mol)
 Warning -- explicit consideration of  18 degrees of freedom as
           vibrations may cause significant error
 Vibrational temperatures:     47.60    73.12    91.74   146.98   181.14
          (Kelvin)            248.55   332.70   387.83   421.90   484.03
                              550.44   578.39   603.18   614.38   734.88
                              765.67   853.15   880.67   913.14   929.03
                             1016.60  1018.63  1046.04  1104.82  1207.97
                             1218.52  1290.16  1293.19  1323.42  1391.28
                             1408.64  1435.90  1469.32  1491.19  1529.74
                             1598.48  1615.48  1629.81  1720.15  1740.49
                             1759.48  1800.17  1824.73  1887.96  1896.37
                             1954.17  1983.31  2011.70  2052.88  2121.62
                             2191.86  2230.27  2234.23  2382.94  2395.76
                             4576.89  4594.89  4608.73  4625.21  4633.85
                             4736.97  5126.22  5245.69

 Zero-point correction=                           0.168259 (Hartree/Particle)
 Thermal correction to Energy=                    0.180759
 Thermal correction to Enthalpy=                  0.181703
 Thermal correction to Gibbs Free Energy=         0.127689
 Sum of electronic and zero-point Energies=          -1077.095448
 Sum of electronic and thermal Energies=             -1077.082949
 Sum of electronic and thermal Enthalpies=           -1077.082005
 Sum of electronic and thermal Free Energies=        -1077.136019

                     E (Thermal)             CV                S
                      KCal/Mol        Cal/Mol-Kelvin    Cal/Mol-Kelvin
 Total                  113.428             47.383            113.682
 Electronic               0.000              0.000              0.000
 Translational            0.889              2.981             42.122
 Rotational               0.889              2.981             32.255
 Vibrational            111.651             41.421             39.305
 Vibration     1          0.594              1.983              5.635
 Vibration     2          0.595              1.977              4.785
 Vibration     3          0.597              1.972              4.337
 Vibration     4          0.604              1.947              3.413
 Vibration     5          0.611              1.927              3.008
 Vibration     6          0.626              1.876              2.405
 Vibration     7          0.653              1.793              1.869
 Vibration     8          0.674              1.729              1.599
 Vibration     9          0.688              1.686              1.455
 Vibration    10          0.717              1.603              1.229
 Vibration    11          0.752              1.507              1.029
 Vibration    12          0.768              1.466              0.955
 Vibration    13          0.782              1.428              0.895
 Vibration    14          0.789              1.411              0.868
 Vibration    15          0.866              1.226              0.632
 Vibration    16          0.887              1.179              0.582
 Vibration    17          0.951              1.047              0.462
 Vibration    18          0.971              1.006              0.429

 Optimization completed.
    -- Stationary point found.
 Normal termination of Gaussian 16 at Thu Dec 10 14:57:59 2020.

 ----------------------------------------------------------------------
 # B3LYP/6-311++G(d,p) empiricaldispersion=gd3bj scf=xqc pop=npa geom=c
 heck
 ----------------------------------------------------------------------

 --------------------------------------
 CID_21422056_JID_5207_Energie_neutraal
 --------------------------------------
 Structure from the checkpoint file:  "JID_5207.chk"
 Charge =  0 Multiplicity = 1

 SCF Done:  E(RB3LYP) =  -1077.47943266     A.U. after   17 cycles
 Normal termination of Gaussian 16 at Thu Dec 10 15:01:18 2020.

 ----------------------------------------------------------------------
 # B3LYP/6-311++G(d,p) empiricaldispersion=gd3bj scf=xqc pop=npa geom=c
 heck
 ----------------------------------------------------------------------

 ------------------------------------
 CID_21422056_JID_5207_Energie_kation
 ------------------------------------
 Structure from the checkpoint file:  "JID_5207.chk"
 Charge =  1 Multiplicity = 2

 SCF Done:  E(UB3LYP) =  -1077.16190987     A.U. after   26 cycles
 Normal termination of Gaussian 16 at Thu Dec 10 15:08:51 2020.
 Gaussian 16:  ES64L-G16RevA.03 25-Dec-2016

 ----------------------------------------------------------------------
 # B3LYP/6-311++G(d,p) empiricaldispersion=gd3bj scf=xqc pop=npa geom=c
 heck
 ----------------------------------------------------------------------

 -----------------------------------
 CID_21422056_JID_5207_Energie_anion
 -----------------------------------
 Structure from the checkpoint file:  "JID_5207.chk"
 Charge = -1 Multiplicity = 2

                         Standard orientation:
 ---------------------------------------------------------------------
 Center     Atomic      Atomic             Coordinates (Angstroms)
 Number     Number       Type             X           Y           Z
 ---------------------------------------------------------------------
      1          6           0       -4.085626    1.061100    0.122568
      2          6           0       -2.873806    1.677540    0.439657
      3          6           0       -1.660944    1.050778    0.162258
      4          6           0       -1.669312   -0.222188   -0.414552
      5          6           0       -2.876510   -0.853430   -0.724298
      6          6           0       -4.082158   -0.202942   -0.467303
      7          7           0       -0.442811   -0.875878   -0.736575
      8         16           0        0.779120   -1.116957    0.389247
      9          8           0        0.289245   -0.940074    1.747213
     10          8           0        1.490195   -2.320824   -0.056067
     11          6           0        1.918000    0.208530    0.041474
     12          7           0        1.739962    1.505011    0.203221
     13          6           0        2.936337    2.015933   -0.206955
     14          7           0        3.829397    1.113645   -0.602755
     15          7           0        3.152987   -0.043927   -0.437933
     16          1           0       -5.025519    1.562185    0.333246
     17          1           0       -2.867753    2.663140    0.895674
     18          1           0       -0.718386    1.541079    0.382521
     19          1           0       -2.871156   -1.848681   -1.161841
     20          1           0       -5.017987   -0.694129   -0.717107
     21          1           0       -0.514377   -1.700308   -1.326162
     22          1           0        3.154625    3.074184   -0.212602
     23          1           0        3.566486   -0.942861   -0.649650
 ---------------------------------------------------------------------

 SCF Done:  E(UB3LYP) =  -1077.47471525     A.U. after   33 cycles
 SCF Done:  E(UB3LYP) =  -1077.47471525     a.u. after    1 cycles

 The electronic state is 2-A.
 Alpha  occ. eigenvalues --  -88.96850 -19.02214 -19.01974 -14.27907 -14.25348
 Alpha  occ. eigenvalues --  -14.22910 -14.20062 -10.13303 -10.12393 -10.11645
 Alpha  occ. eigenvalues --  -10.07958 -10.07933 -10.07818 -10.07512 -10.07214
 Alpha  occ. eigenvalues --   -8.02898  -5.99208  -5.99154  -5.99006  -1.02653
 Alpha  occ. eigenvalues --   -0.97191  -0.91699  -0.84567  -0.79398  -0.75300
 Alpha  occ. eigenvalues --   -0.72893  -0.65451  -0.65066  -0.59349  -0.52893
 Alpha  occ. eigenvalues --   -0.52310  -0.52103  -0.49815  -0.46399  -0.44087
 Alpha  occ. eigenvalues --   -0.41858  -0.39457  -0.38607  -0.36334  -0.35813
 Alpha  occ. eigenvalues --   -0.35199  -0.34120  -0.33894  -0.32718  -0.28950
 Alpha  occ. eigenvalues --   -0.27458  -0.25926  -0.25143  -0.24253  -0.23181
 Alpha  occ. eigenvalues --   -0.22961  -0.21583  -0.21177  -0.20025  -0.18178
 Alpha  occ. eigenvalues --   -0.17178  -0.15944  -0.13489   0.04591
 Alpha virt. eigenvalues --    0.06166   0.07401   0.08050   0.08058   0.08209
 Alpha virt. eigenvalues --    0.09054   0.09271   0.10547   0.11973   0.12315
 Alpha virt. eigenvalues --    0.13618   0.13763   0.14327   0.15115   0.15202

  Beta  occ. eigenvalues --  -88.96833 -19.02188 -19.01911 -14.27591 -14.25281
  Beta  occ. eigenvalues --  -14.22681 -14.19968 -10.13012 -10.12388 -10.11702
  Beta  occ. eigenvalues --  -10.07945 -10.07928 -10.07793 -10.07502 -10.07205
  Beta  occ. eigenvalues --   -8.02881  -5.99172  -5.99116  -5.99002  -1.02496
  Beta  occ. eigenvalues --   -0.96801  -0.91594  -0.84448  -0.79032  -0.75253
  Beta  occ. eigenvalues --   -0.72415  -0.65400  -0.65002  -0.58971  -0.52613
  Beta  occ. eigenvalues --   -0.52237  -0.52051  -0.49671  -0.46203  -0.43999
  Beta  occ. eigenvalues --   -0.41638  -0.39380  -0.38428  -0.35884  -0.35531
  Beta  occ. eigenvalues --   -0.34734  -0.34062  -0.33825  -0.32676  -0.28860
  Beta  occ. eigenvalues --   -0.27384  -0.25861  -0.25015  -0.24047  -0.23067
  Beta  occ. eigenvalues --   -0.22742  -0.21318  -0.20940  -0.18982  -0.17965
  Beta  occ. eigenvalues --   -0.16021  -0.15868  -0.13366
  Beta virt. eigenvalues --    0.07082   0.07883   0.08046   0.08225   0.08265
  Beta virt. eigenvalues --    0.09332   0.09566   0.09724   0.10927   0.12264
  Beta virt. eigenvalues --    0.12678   0.13653   0.13941   0.14311   0.15054

 Mulliken charges and spin densities:
               1          2
     1  C    1.030526  -1.318828
     2  C   -0.783112   0.588045
     3  C    0.553169  -0.268404
     4  C    0.140331  -0.203978
     5  C   -1.420368   1.023993
     6  C    1.261937  -1.544444
     7  N   -0.292571   0.082344
     8  S    0.676388  -0.113878
     9  O   -0.057013  -0.014410
    10  O   -0.260377  -0.009032
    11  C   -0.671230   0.118667
    12  N   -0.110396   0.060010
    13  C   -0.095113   0.028916
    14  N   -0.193620   0.092602
    15  N   -0.099962   0.127291
    16  H   -0.204085   0.350224
    17  H    0.013351   0.155027
    18  H    0.322579  -0.088596
    19  H   -0.467107   0.616382
    20  H   -0.912128   1.095922
    21  H    0.159387   0.153773
    22  H    0.119774   0.037510
    23  H    0.289638   0.030862
 Sum of Mulliken charges =  -1.00000   1.00000

 Dipole moment (field-independent basis, Debye):
    X=              4.8555    Y=              1.5808    Z=             -0.2730  Tot=              5.1136
 Quadrupole moment (field-independent basis, Debye-Ang):
   XX=           -175.7754   YY=           -118.0635   ZZ=           -116.1695
   XY=             -8.9124   XZ=             -5.2037   YZ=              1.8564

 Summary of Natural Population Analysis:

                                       Natural Population
                Natural  -----------------------------------------------
    Atom  No    Charge         Core      Valence    Rydberg      Total
 -----------------------------------------------------------------------
      C    1   -0.11160      0.99956     2.10101    0.01103     3.11160
      C    2   -0.09477      0.99957     2.08636    0.00884     3.09477
      C    3   -0.10990      0.99950     2.10177    0.00863     3.10990
      C    4    0.07195      0.99946     1.91481    0.01377     2.92805
      C    5   -0.11217      0.99951     2.10202    0.01064     3.11217
      C    6   -0.09402      0.99957     2.08363    0.01082     3.09402
      N    7   -0.41708      0.99969     2.90461    0.01278     3.91708
      S    8    1.11055      4.99920     1.78747    0.10277     6.88945
      O    9   -0.44002      0.99990     3.43473    0.00539     4.44002
      O   10   -0.47376      0.99991     3.46817    0.00568     4.47376
      C   11    0.10792      0.99950     1.86960    0.02298     2.89208
      N   12   -0.25507      0.99967     2.74514    0.01026     3.75507
      C   13    0.06534      0.99971     1.91466    0.02029     2.93466
      N   14   -0.13510      0.99974     2.62113    0.01422     3.63510
      N   15   -0.13720      0.99963     2.62545    0.01211     3.63720
      H   16    0.10106      0.00000     0.39788    0.00106     0.39894
      H   17    0.09930      0.00000     0.39994    0.00076     0.40070
      H   18    0.12077      0.00000     0.37683    0.00240     0.37923
      H   19    0.10259      0.00000     0.39517    0.00224     0.39741
      H   20    0.10515      0.00000     0.39114    0.00370     0.39485
      H   21    0.20209      0.00000     0.29533    0.00258     0.29791
      H   22    0.08921      0.00000     0.40987    0.00092     0.41079
      H   23    0.20474      0.00000     0.29311    0.00215     0.29526
 =======================================================================
   * Total *    0.00000     18.99414    38.71983    0.28604    58.00000

 Normal termination of Gaussian 16 at Thu Dec 10 15:18:34 2020.
