 Gaussian 16, Revision A.03,

 -----------------------------------------------------------
 # opt freq B3LYP/6-31G(d) empiricaldispersion=gd3bj scf=xqc
 -----------------------------------------------------------

 -------------------------------
 CID_115725185_JID_4127_neutraal
 -------------------------------
 Symbolic Z-matrix:
 Charge =  0 Multiplicity = 1

 SCF Done:  E(RB3LYP) =  -635.817728806     A.U. after   14 cycles
 SCF Done:  E(RB3LYP) =  -635.821273810     A.U. after   12 cycles
 SCF Done:  E(RB3LYP) =  -635.821501491     A.U. after   11 cycles
 SCF Done:  E(RB3LYP) =  -635.821903851     A.U. after   11 cycles
 SCF Done:  E(RB3LYP) =  -635.822113883     A.U. after   11 cycles
 SCF Done:  E(RB3LYP) =  -635.822140740     A.U. after   10 cycles
 SCF Done:  E(RB3LYP) =  -635.822158444     A.U. after   10 cycles
 SCF Done:  E(RB3LYP) =  -635.822171717     A.U. after   10 cycles
 SCF Done:  E(RB3LYP) =  -635.822179692     A.U. after   10 cycles
 SCF Done:  E(RB3LYP) =  -635.822191297     A.U. after   10 cycles
 SCF Done:  E(RB3LYP) =  -635.822213365     A.U. after    9 cycles
 SCF Done:  E(RB3LYP) =  -635.822215760     A.U. after    9 cycles
 SCF Done:  E(RB3LYP) =  -635.822216118     A.U. after    8 cycles
 SCF Done:  E(RB3LYP) =  -635.822216181     A.U. after    7 cycles
 SCF Done:  E(RB3LYP) =  -635.822216189     A.U. after    7 cycles
 Optimization completed.
    -- Stationary point found.
 Normal termination of Gaussian 16 at Thu Dec 10 09:22:17 2020.

 --------------------------------------------------------------------
 #N Geom=AllCheck Guess=TCheck SCRF=Check GenChk RB3LYP/6-31G(d) Freq
 --------------------------------------------------------------------

 Structure from the checkpoint file:  "JID_4127.chk"
 -------------------------------
 CID_115725185_JID_4127_neutraal
 -------------------------------
 Charge =  0 Multiplicity = 1

 SCF Done:  E(RB3LYP) =  -635.822216189     A.U. after    1 cycles

  Exact polarizability: 154.037  -7.106 115.626   9.087  10.054 105.222
 Approx polarizability: 189.950 -14.120 173.816  15.650  22.220 162.764

                      1                      2                      3
                      A                      A                      A
 Frequencies --     18.9727                38.4917                57.0763
 Red. masses --      3.4613                 4.0614                 4.0410
 Frc consts  --      0.0007                 0.0035                 0.0078
 IR Inten    --      0.0467                 0.4141                 0.8639

                      4                      5                      6
                      A                      A                      A
 Frequencies --     68.0131                93.5771               129.4569
 Red. masses --      4.1005                 2.4263                 1.8648
 Frc consts  --      0.0112                 0.0125                 0.0184
 IR Inten    --      0.7340                 0.1362                 0.4437

                      7                      8                      9
                      A                      A                      A
 Frequencies --    153.2478               176.5800               199.1427
 Red. masses --      3.9320                 3.8768                 2.2258
 Frc consts  --      0.0544                 0.0712                 0.0520
 IR Inten    --      4.4841                 3.2398                 0.5296

                     10                     11                     12
                      A                      A                      A
 Frequencies --    231.3929               252.9503               262.9195
 Red. masses --      1.1313                 2.1315                 2.5846
 Frc consts  --      0.0357                 0.0804                 0.1053
 IR Inten    --      0.3292                 2.2281                 3.2297

                     13                     14                     15
                      A                      A                      A
 Frequencies --    276.5199               303.4336               337.3589
 Red. masses --      3.1478                 2.0383                 3.7102
 Frc consts  --      0.1418                 0.1106                 0.2488
 IR Inten    --      0.5514                 1.0119                 0.6772

                     16                     17                     18
                      A                      A                      A
 Frequencies --    354.7063               422.0775               475.6494
 Red. masses --      2.8080                 2.5920                 1.1532
 Frc consts  --      0.2082                 0.2721                 0.1537
 IR Inten    --      0.9253                16.2542               127.1439

                     19                     20                     21
                      A                      A                      A
 Frequencies --    491.4068               552.6831               611.5524
 Red. masses --      2.6545                 2.1483                 3.4283
 Frc consts  --      0.3777                 0.3866                 0.7554
 IR Inten    --      3.2526                 4.6991                 6.2808

                     22                     23                     24
                      A                      A                      A
 Frequencies --    652.5232               690.8172               711.7929
 Red. masses --      2.9436                 2.3701                 1.9909
 Frc consts  --      0.7384                 0.6664                 0.5943
 IR Inten    --     13.4695                38.8815                 9.6241

                     25                     26                     27
                      A                      A                      A
 Frequencies --    731.0415               758.3427               795.5677
 Red. masses --      1.6819                 2.1113                 1.3623
 Frc consts  --      0.5296                 0.7154                 0.5080
 IR Inten    --     25.9132                19.0773                 6.3656

                     28                     29                     30
                      A                      A                      A
 Frequencies --    803.9020               815.2499               864.5608
 Red. masses --      1.7468                 1.3037                 1.8971
 Frc consts  --      0.6651                 0.5105                 0.8355
 IR Inten    --     19.0019                13.3192                 1.0847

                     31                     32                     33
                      A                      A                      A
 Frequencies --    867.5876               894.1965               910.2885
 Red. masses --      1.3847                 2.7738                 4.9938
 Frc consts  --      0.6141                 1.3068                 2.4380
 IR Inten    --      1.2312                32.7863                 1.0619

                     34                     35                     36
                      A                      A                      A
 Frequencies --    924.2262               944.7010               989.6596
 Red. masses --      1.8181                 3.3453                 1.7398
 Frc consts  --      0.9150                 1.7590                 1.0040
 IR Inten    --     20.9849                10.2616                 3.1852

                     37                     38                     39
                      A                      A                      A
 Frequencies --   1016.1830              1030.4429              1043.7875
 Red. masses --      1.8008                 1.3195                 1.8898
 Frc consts  --      1.0956                 0.8255                 1.2131
 IR Inten    --      8.1605                 0.9710                 3.0992

                     40                     41                     42
                      A                      A                      A
 Frequencies --   1044.3451              1066.4142              1099.7116
 Red. masses --      1.4266                 2.3973                 3.6722
 Frc consts  --      0.9167                 1.6063                 2.6166
 IR Inten    --     34.5464                 1.9001                22.5143

                     43                     44                     45
                      A                      A                      A
 Frequencies --   1112.5713              1133.1319              1156.8508
 Red. masses --      3.4701                 2.7248                 2.1883
 Frc consts  --      2.5307                 2.0613                 1.7255
 IR Inten    --     36.3687                55.2848                20.1308

                     46                     47                     48
                      A                      A                      A
 Frequencies --   1174.4181              1185.5627              1197.6113
 Red. masses --      1.6051                 2.1063                 2.1128
 Frc consts  --      1.3044                 1.7443                 1.7854
 IR Inten    --     27.5157                22.0868                21.6014

                     49                     50                     51
                      A                      A                      A
 Frequencies --   1205.7853              1242.4317              1271.8899
 Red. masses --      1.8908                 1.6793                 1.7539
 Frc consts  --      1.6197                 1.5273                 1.6717
 IR Inten    --     19.1875                 2.1376                 5.0515

                     52                     53                     54
                      A                      A                      A
 Frequencies --   1287.6194              1294.5687              1331.9733
 Red. masses --      1.2753                 1.2669                 1.1702
 Frc consts  --      1.2457                 1.2510                 1.2232
 IR Inten    --      0.8422                 3.7497                 5.6988

                     55                     56                     57
                      A                      A                      A
 Frequencies --   1335.9453              1357.4218              1376.2993
 Red. masses --      1.4140                 1.3074                 1.5050
 Frc consts  --      1.4869                 1.4193                 1.6796
 IR Inten    --     27.2077                 3.8074                11.1843

                     58                     59                     60
                      A                      A                      A
 Frequencies --   1399.7480              1406.1137              1425.5253
 Red. masses --      1.3289                 1.3131                 1.8466
 Frc consts  --      1.5340                 1.5296                 2.2109
 IR Inten    --      1.2631                 1.8665                 2.8827

                     61                     62                     63
                      A                      A                      A
 Frequencies --   1430.3442              1440.7830              1446.6960
 Red. masses --      1.6788                 1.2407                 1.2620
 Frc consts  --      2.0236                 1.5174                 1.5562
 IR Inten    --      2.0034                 2.4600                 8.1186

                     64                     65                     66
                      A                      A                      A
 Frequencies --   1452.9875              1512.4825              1513.2010
 Red. masses --      1.2343                 1.0828                 1.1314
 Frc consts  --      1.5353                 1.4594                 1.5263
 IR Inten    --     69.2939                 3.6124                26.4924

                     67                     68                     69
                      A                      A                      A
 Frequencies --   1523.4584              1528.1756              1533.1797
 Red. masses --      1.0797                 1.0720                 1.0523
 Frc consts  --      1.4765                 1.4750                 1.4573
 IR Inten    --     18.9978                11.1414                 2.9000

                     70                     71                     72
                      A                      A                      A
 Frequencies --   1534.7209              1542.0495              1546.2707
 Red. masses --      1.0781                 1.0692                 1.0805
 Frc consts  --      1.4962                 1.4980                 1.5221
 IR Inten    --      5.0145                 4.8895                21.7586

                     73                     74                     75
                      A                      A                      A
 Frequencies --   1560.4121              1662.1108              3001.6729
 Red. masses --      4.5258                 6.3800                 1.0716
 Frc consts  --      6.4927                10.3847                 5.6888
 IR Inten    --      8.1593                 2.3928                70.6154

                     76                     77                     78
                      A                      A                      A
 Frequencies --   3010.0900              3042.0512              3046.9825
 Red. masses --      1.0830                 1.0392                 1.0409
 Frc consts  --      5.7814                 5.6659                 5.6939
 IR Inten    --     19.4001                17.6745                 9.9881

                     79                     80                     81
                      A                      A                      A
 Frequencies --   3052.6317              3054.1198              3056.0646
 Red. masses --      1.0620                 1.0716                 1.0761
 Frc consts  --      5.8309                 5.8891                 5.9217
 IR Inten    --      6.6852                34.4015                60.7018

                     82                     83                     84
                      A                      A                      A
 Frequencies --   3082.2607              3100.9263              3106.8793
 Red. masses --      1.1009                 1.0955                 1.1007
 Frc consts  --      6.1622                 6.2063                 6.2599
 IR Inten    --     13.9906                 1.7549                49.8871

                     85                     86                     87
                      A                      A                      A
 Frequencies --   3108.4985              3112.3297              3117.7139
 Red. masses --      1.0937                 1.1000                 1.1015
 Frc consts  --      6.2267                 6.2777                 6.3084
 IR Inten    --     83.0853                12.1365                71.5968

                     88                     89                     90
                      A                      A                      A
 Frequencies --   3126.0596              3266.1727              3277.4330
 Red. masses --      1.1009                 1.0914                 1.0974
 Frc consts  --      6.3387                 6.8598                 6.9450
 IR Inten    --     34.2539                 4.3442                 1.0749

                     91                     92                     93
                      A                      A                      A
 Frequencies --   3305.9581              3517.3644              3721.6462
 Red. masses --      1.1048                 1.0731                 1.0653
 Frc consts  --      7.1141                 7.8225                 8.6935
 IR Inten    --      1.2092                 1.2472                63.1650

 - Thermochemistry -
 -------------------
 Temperature   298.150 Kelvin.  Pressure   1.00000 Atm.
 Atom     1 has atomic number  6 and mass  12.00000

 Molecular mass:   197.14158 amu.
 Principal axes and moments of inertia in atomic units:
                           1         2         3
     Eigenvalues --  1513.094304937.239165520.04302
           X            0.99998   0.00439  -0.00497
           Y           -0.00423   0.99951   0.03105
           Z            0.00510  -0.03103   0.99951
 This molecule is an asymmetric top.
 Rotational symmetry number  1.
 Warning -- assumption of classical behavior for rotation
           may cause significant error
 Rotational temperatures (Kelvin)      0.05724     0.01754     0.01569
 Rotational constants (GHZ):           1.19275     0.36554     0.32694
 Zero-point vibrational energy     767953.2 (Joules/Mol)
                                  183.54521 (Kcal/Mol)
 Warning -- explicit consideration of  21 degrees of freedom as
           vibrations may cause significant error
 Vibrational temperatures:     27.30    55.38    82.12    97.86   134.64
          (Kelvin)            186.26   220.49   254.06   286.52   332.92
                              363.94   378.28   397.85   436.57   485.38
                              510.34   607.28   684.35   707.02   795.19
                              879.89   938.84   993.93  1024.11  1051.81
                             1091.09  1144.64  1156.64  1172.96  1243.91
                             1248.26  1286.55  1309.70  1329.76  1359.21
                             1423.90  1462.06  1482.58  1501.78  1502.58
                             1534.33  1582.24  1600.74  1630.32  1664.45
                             1689.73  1705.76  1723.10  1734.86  1787.58
                             1829.97  1852.60  1862.60  1916.41  1922.13
                             1953.03  1980.19  2013.93  2023.08  2051.01
                             2057.95  2072.97  2081.47  2090.52  2176.13
                             2177.16  2191.92  2198.70  2205.90  2208.12
                             2218.67  2224.74  2245.08  2391.41  4318.74
                             4330.85  4376.83  4383.93  4392.06  4394.20
                             4397.00  4434.69  4461.54  4470.11  4472.44
                             4477.95  4485.69  4497.70  4699.29  4715.50
                             4756.54  5060.70  5354.62

 Zero-point correction=                           0.292498 (Hartree/Particle)
 Thermal correction to Energy=                    0.307735
 Thermal correction to Enthalpy=                  0.308679
 Thermal correction to Gibbs Free Energy=         0.248622
 Sum of electronic and zero-point Energies=           -635.529718
 Sum of electronic and thermal Energies=              -635.514481
 Sum of electronic and thermal Enthalpies=            -635.513537
 Sum of electronic and thermal Free Energies=         -635.573594

                     E (Thermal)             CV                S
                      KCal/Mol        Cal/Mol-Kelvin    Cal/Mol-Kelvin
 Total                  193.107             56.752            126.401
 Electronic               0.000              0.000              0.000
 Translational            0.889              2.981             41.741
 Rotational               0.889              2.981             32.089
 Vibrational            191.329             50.790             52.571
 Vibration     1          0.593              1.986              6.739
 Vibration     2          0.594              1.982              5.335
 Vibration     3          0.596              1.975              4.556
 Vibration     4          0.598              1.969              4.210
 Vibration     5          0.603              1.954              3.584
 Vibration     6          0.612              1.924              2.954
 Vibration     7          0.619              1.899              2.632
 Vibration     8          0.628              1.871              2.364
 Vibration     9          0.637              1.841              2.141
 Vibration    10          0.653              1.793              1.868
 Vibration    11          0.664              1.758              1.710
 Vibration    12          0.670              1.741              1.642
 Vibration    13          0.678              1.717              1.555
 Vibration    14          0.695              1.667              1.398
 Vibration    15          0.718              1.601              1.225
 Vibration    16          0.731              1.566              1.145
 Vibration    17          0.784              1.422              0.885
 Vibration    18          0.832              1.304              0.722
 Vibration    19          0.847              1.269              0.680
 Vibration    20          0.908              1.134              0.539
 Vibration    21          0.971              1.007              0.430

 Optimization completed.
    -- Stationary point found.
 Normal termination of Gaussian 16 at Thu Dec 10 09:31:38 2020.

 ----------------------------------------------------------------------
 # B3LYP/6-311++G(d,p) empiricaldispersion=gd3bj scf=xqc pop=npa geom=c
 heck
 ----------------------------------------------------------------------

 ---------------------------------------
 CID_115725185_JID_4127_Energie_neutraal
 ---------------------------------------
 Structure from the checkpoint file:  "JID_4127.chk"
 Charge =  0 Multiplicity = 1

 SCF Done:  E(RB3LYP) =  -636.013573971     A.U. after   15 cycles
 Normal termination of Gaussian 16 at Thu Dec 10 09:35:54 2020.

 ----------------------------------------------------------------------
 # B3LYP/6-311++G(d,p) empiricaldispersion=gd3bj scf=xqc pop=npa geom=c
 heck
 ----------------------------------------------------------------------

 -------------------------------------
 CID_115725185_JID_4127_Energie_kation
 -------------------------------------
 Structure from the checkpoint file:  "JID_4127.chk"
 Charge =  1 Multiplicity = 2

 SCF Done:  E(UB3LYP) =  -635.721422285     A.U. after   25 cycles
 Normal termination of Gaussian 16 at Thu Dec 10 09:45:48 2020.
 Gaussian 16:  ES64L-G16RevA.03 25-Dec-2016

 ----------------------------------------------------------------------
 # B3LYP/6-311++G(d,p) empiricaldispersion=gd3bj scf=xqc pop=npa geom=c
 heck
 ----------------------------------------------------------------------

 ------------------------------------
 CID_115725185_JID_4127_Energie_anion
 ------------------------------------
 Structure from the checkpoint file:  "JID_4127.chk"
 Charge = -1 Multiplicity = 2

                         Standard orientation:
 ---------------------------------------------------------------------
 Center     Atomic      Atomic             Coordinates (Angstroms)
 Number     Number       Type             X           Y           Z
 ---------------------------------------------------------------------
      1          6           0       -4.073946   -1.614460   -0.195906
      2          6           0       -2.620453   -1.509603    0.272406
      3          6           0       -1.847039   -0.313303   -0.310446
      4          6           0       -2.516977    1.049762   -0.026997
      5          6           0       -2.735005    1.358616    1.458192
      6          7           0       -0.450290   -0.389218    0.162030
      7          6           0        0.586223   -0.169780   -0.849386
      8          6           0        0.573646    1.233731   -1.506775
      9          8           0        0.598181    2.282569   -0.551791
     10          6           0        1.930317   -0.461416   -0.257835
     11          6           0        2.860865   -1.438140   -0.434236
     12          6           0        3.960829   -1.133694    0.439225
     13          6           0        3.627541    0.011348    1.088727
     14          8           0        2.392422    0.442210    0.678126
     15          1           0       -4.683397   -0.780880    0.170219
     16          1           0       -4.535424   -2.541411    0.162033
     17          1           0       -4.138462   -1.613836   -1.291647
     18          1           0       -2.579069   -1.461465    1.367849
     19          1           0       -2.070135   -2.416058   -0.005552
     20          1           0       -1.828158   -0.442449   -1.402751
     21          1           0       -1.897283    1.840576   -0.460437
     22          1           0       -3.483755    1.083455   -0.544866
     23          1           0       -1.792665    1.351649    2.019565
     24          1           0       -3.171784    2.355325    1.581214
     25          1           0       -3.409408    0.638210    1.933487
     26          1           0       -0.303483    0.277286    0.916165
     27          1           0        0.434094   -0.908093   -1.647287
     28          1           0        1.412105    1.310749   -2.217539
     29          1           0       -0.353424    1.363510   -2.072574
     30          1           0        1.392199    2.150621   -0.007493
     31          1           0        2.773115   -2.282654   -1.102988
     32          1           0        4.873204   -1.699774    0.563023
     33          1           0        4.112931    0.623168    1.832878
 ---------------------------------------------------------------------

 SCF Done:  E(UB3LYP) =  -635.998603314     A.U. after   33 cycles
 SCF Done:  E(UB3LYP) =  -635.998603314     a.u. after    1 cycles

 The electronic state is 2-A.
 Alpha  occ. eigenvalues --  -19.10150 -19.02923 -14.19891 -10.13398 -10.12981
 Alpha  occ. eigenvalues --  -10.12365 -10.11936 -10.10162 -10.08120 -10.07818
 Alpha  occ. eigenvalues --  -10.06997 -10.06928 -10.06580 -10.06520  -1.02187
 Alpha  occ. eigenvalues --   -0.93294  -0.81639  -0.71452  -0.70739  -0.66787
 Alpha  occ. eigenvalues --   -0.65478  -0.62086  -0.58047  -0.53414  -0.52912
 Alpha  occ. eigenvalues --   -0.51379  -0.46844  -0.46361  -0.43895  -0.41983
 Alpha  occ. eigenvalues --   -0.38493  -0.37440  -0.37225  -0.36319  -0.35978
 Alpha  occ. eigenvalues --   -0.34195  -0.32778  -0.32449  -0.31608  -0.31460
 Alpha  occ. eigenvalues --   -0.30483  -0.29769  -0.28829  -0.27895  -0.27113
 Alpha  occ. eigenvalues --   -0.26135  -0.24594  -0.24250  -0.22960  -0.22519
 Alpha  occ. eigenvalues --   -0.19377  -0.19228  -0.13829  -0.12892   0.04233
 Alpha virt. eigenvalues --    0.05766   0.06581   0.07359   0.07692   0.08023
 Alpha virt. eigenvalues --    0.08707   0.09263   0.09612   0.09889   0.10546
 Alpha virt. eigenvalues --    0.10781   0.11687   0.12108   0.12486   0.12978

  Beta  occ. eigenvalues --  -19.10141 -19.02914 -14.19887 -10.13399 -10.12961
  Beta  occ. eigenvalues --  -10.12351 -10.11925 -10.10153 -10.08105 -10.07802
  Beta  occ. eigenvalues --  -10.06983 -10.06918 -10.06554 -10.06509  -1.02170
  Beta  occ. eigenvalues --   -0.93274  -0.81624  -0.71429  -0.70711  -0.66763
  Beta  occ. eigenvalues --   -0.65454  -0.62050  -0.58009  -0.53378  -0.52865
  Beta  occ. eigenvalues --   -0.51345  -0.46804  -0.46318  -0.43850  -0.41952
  Beta  occ. eigenvalues --   -0.38464  -0.37401  -0.37200  -0.36297  -0.35956
  Beta  occ. eigenvalues --   -0.34168  -0.32756  -0.32410  -0.31587  -0.31429
  Beta  occ. eigenvalues --   -0.30456  -0.29747  -0.28793  -0.27862  -0.27093
  Beta  occ. eigenvalues --   -0.26110  -0.24569  -0.24226  -0.22942  -0.22496
  Beta  occ. eigenvalues --   -0.19362  -0.19210  -0.13816  -0.12882
  Beta virt. eigenvalues --    0.06194   0.06830   0.07266   0.07758   0.08371
  Beta virt. eigenvalues --    0.08552   0.08788   0.09607   0.10046   0.10161
  Beta virt. eigenvalues --    0.10862   0.10927   0.11948   0.12261   0.12773

 Mulliken charges and spin densities:
               1          2
     1  C    0.442394  -1.126944
     2  C   -0.411779   0.469671
     3  C   -0.178963  -0.327553
     4  C   -0.174249  -0.143470
     5  C   -0.041428  -0.542747
     6  N    0.511139  -0.063269
     7  C    1.604779  -2.368944
     8  C    0.791890  -1.363030
     9  O   -0.200172   0.016022
    10  C    1.050222  -0.827992
    11  C   -3.645715   3.675036
    12  C    2.827776  -3.138384
    13  C   -0.985675   0.983035
    14  O   -0.062471   0.042210
    15  H   -0.044023   0.183154
    16  H   -0.100798   0.234493
    17  H   -0.291666   0.437174
    18  H   -0.018295   0.155983
    19  H    0.065909   0.094821
    20  H    0.086560   0.079009
    21  H    0.244716  -0.064134
    22  H   -0.167495   0.325659
    23  H   -0.085302   0.213751
    24  H    0.013518   0.128224
    25  H    0.135957   0.004260
    26  H    0.405569  -0.194452
    27  H   -0.355397   0.551774
    28  H    0.008051   0.138151
    29  H   -0.132951   0.336726
    30  H    0.163538   0.096784
    31  H   -0.767923   0.952762
    32  H   -0.651698   0.825477
    33  H   -1.036019   1.216743
 Sum of Mulliken charges =  -1.00000   1.00000

 Dipole moment (field-independent basis, Debye):
    X=             -3.2983    Y=              2.2140    Z=              0.7401  Tot=              4.0408
 Quadrupole moment (field-independent basis, Debye-Ang):
   XX=           -179.2021   YY=           -132.7751   ZZ=           -125.6977
   XY=              1.9386   XZ=             -9.9644   YZ=             -3.9141

 Summary of Natural Population Analysis:

                                       Natural Population
                Natural  -----------------------------------------------
    Atom  No    Charge         Core      Valence    Rydberg      Total
 -----------------------------------------------------------------------
      C    1   -0.28952      0.99966     2.28502    0.00484     3.28952
      C    2   -0.19201      0.99962     2.18173    0.01066     3.19201
      C    3   -0.00813      0.99958     1.99562    0.01292     3.00813
      C    4   -0.20186      0.99961     2.19422    0.00803     3.20186
      C    5   -0.28788      0.99966     2.28342    0.00480     3.28788
      N    6   -0.34192      0.99973     2.83000    0.01219     3.84192
      C    7   -0.04248      0.99954     2.02944    0.01350     3.04248
      C    8   -0.01629      0.99958     2.00359    0.01312     3.01629
      O    9   -0.37547      0.99990     3.36900    0.00658     4.37547
      C   10    0.15547      0.99945     1.82767    0.01741     2.84453
      C   11   -0.14108      0.99948     2.13271    0.00890     3.14108
      C   12   -0.14446      0.99956     2.13570    0.00920     3.14446
      C   13    0.05923      0.99950     1.92682    0.01444     2.94077
      O   14   -0.25574      0.99986     3.24684    0.00904     4.25574
      H   15    0.09519      0.00000     0.40381    0.00100     0.40481
      H   16    0.09842      0.00000     0.40083    0.00076     0.40158
      H   17    0.09758      0.00000     0.40122    0.00121     0.40242
      H   18    0.09459      0.00000     0.40428    0.00113     0.40541
      H   19    0.10158      0.00000     0.39713    0.00129     0.39842
      H   20    0.09067      0.00000     0.40721    0.00212     0.40933
      H   21    0.10614      0.00000     0.39216    0.00170     0.39386
      H   22    0.09650      0.00000     0.40239    0.00111     0.40350
      H   23    0.09460      0.00000     0.40432    0.00109     0.40540
      H   24    0.09925      0.00000     0.39986    0.00089     0.40075
      H   25    0.09580      0.00000     0.40328    0.00092     0.40420
      H   26    0.17641      0.00000     0.31987    0.00373     0.32359
      H   27    0.10805      0.00000     0.38975    0.00220     0.39195
      H   28    0.08151      0.00000     0.41728    0.00121     0.41849
      H   29    0.08816      0.00000     0.41054    0.00130     0.41184
      H   30    0.23543      0.00000     0.26086    0.00371     0.26457
      H   31    0.11269      0.00000     0.38568    0.00163     0.38731
      H   32    0.11134      0.00000     0.38664    0.00202     0.38866
      H   33    0.09826      0.00000     0.39940    0.00234     0.40174
 =======================================================================
   * Total *    0.00000     13.99472    39.82829    0.17698    54.00000

 Normal termination of Gaussian 16 at Thu Dec 10 09:58:14 2020.
