 Gaussian 16, Revision A.03,

 -----------------------------------------------------------
 # opt freq B3LYP/6-31G(d) empiricaldispersion=gd3bj scf=xqc
 -----------------------------------------------------------

 -------------------------------
 CID_118935069_JID_3414_neutraal
 -------------------------------
 Symbolic Z-matrix:
 Charge =  0 Multiplicity = 1

 SCF Done:  E(RB3LYP) =  -578.045249770     A.U. after   14 cycles
 SCF Done:  E(RB3LYP) =  -578.044548779     A.U. after   12 cycles
 SCF Done:  E(RB3LYP) =  -578.048027409     A.U. after   12 cycles
 SCF Done:  E(RB3LYP) =  -578.049750869     A.U. after   12 cycles
 SCF Done:  E(RB3LYP) =  -578.050530712     A.U. after   12 cycles
 SCF Done:  E(RB3LYP) =  -578.050814332     A.U. after   11 cycles
 SCF Done:  E(RB3LYP) =  -578.050868874     A.U. after   10 cycles
 SCF Done:  E(RB3LYP) =  -578.050879620     A.U. after   10 cycles
 SCF Done:  E(RB3LYP) =  -578.050887649     A.U. after    9 cycles
 SCF Done:  E(RB3LYP) =  -578.050888990     A.U. after    8 cycles
 SCF Done:  E(RB3LYP) =  -578.050889162     A.U. after    7 cycles
 Optimization completed.
    -- Stationary point found.
 Normal termination of Gaussian 16 at Wed Dec  9 23:09:25 2020.

 --------------------------------------------------------------------
 #N Geom=AllCheck Guess=TCheck SCRF=Check GenChk RB3LYP/6-31G(d) Freq
 --------------------------------------------------------------------

 Structure from the checkpoint file:  "JID_3414.chk"
 -------------------------------
 CID_118935069_JID_3414_neutraal
 -------------------------------
 Charge =  0 Multiplicity = 1

 SCF Done:  E(RB3LYP) =  -578.050889162     A.U. after    1 cycles

  Exact polarizability: 147.023  -1.544 125.124   0.576   0.741  69.844
 Approx polarizability: 204.340  -2.285 207.741   2.368  -2.200 106.172

                      1                      2                      3
                      A                      A                      A
 Frequencies --     61.6915                82.0834               110.7531
 Red. masses --      3.4820                 3.3734                 3.8307
 Frc consts  --      0.0078                 0.0134                 0.0277
 IR Inten    --      0.5513                 0.3988                 1.1529

                      4                      5                      6
                      A                      A                      A
 Frequencies --    165.6190               223.5062               273.6179
 Red. masses --      2.6414                 3.2382                 4.7178
 Frc consts  --      0.0427                 0.0953                 0.2081
 IR Inten    --      0.4667                 1.6329                 2.1948

                      7                      8                      9
                      A                      A                      A
 Frequencies --    276.3718               288.8741               307.3966
 Red. masses --      1.2067                 3.1526                 2.5674
 Frc consts  --      0.0543                 0.1550                 0.1429
 IR Inten    --      4.9075                 3.0289                17.9732

                     10                     11                     12
                      A                      A                      A
 Frequencies --    319.3075               336.9108               361.5860
 Red. masses --      1.5135                 3.1399                 3.5839
 Frc consts  --      0.0909                 0.2100                 0.2761
 IR Inten    --     67.1496                27.8548                 0.5211

                     13                     14                     15
                      A                      A                      A
 Frequencies --    436.1823               457.4546               496.8912
 Red. masses --      2.8313                 3.5449                 1.6381
 Frc consts  --      0.3174                 0.4371                 0.2383
 IR Inten    --      7.6688                 1.2187                87.5757

                     16                     17                     18
                      A                      A                      A
 Frequencies --    508.2277               526.7575               560.4350
 Red. masses --      2.1862                 2.4945                 4.5591
 Frc consts  --      0.3327                 0.4078                 0.8437
 IR Inten    --     30.7569                19.7828                 7.4673

                     19                     20                     21
                      A                      A                      A
 Frequencies --    581.1623               615.4354               695.7220
 Red. masses --      4.4821                 3.6636                 4.2320
 Frc consts  --      0.8919                 0.8176                 1.2069
 IR Inten    --      6.4650                 6.2517                 0.8036

                     22                     23                     24
                      A                      A                      A
 Frequencies --    748.5418               761.3194               790.0610
 Red. masses --      4.1683                 1.2838                 1.2061
 Frc consts  --      1.3761                 0.4384                 0.4436
 IR Inten    --      0.5239                51.7949                 0.9244

                     25                     26                     27
                      A                      A                      A
 Frequencies --    810.1768               846.1146               851.6721
 Red. masses --      2.1908                 1.6267                 1.4187
 Frc consts  --      0.8473                 0.6861                 0.6063
 IR Inten    --      6.6398                 3.8559                 1.0940

                     28                     29                     30
                      A                      A                      A
 Frequencies --    873.7180               928.5566               941.7267
 Red. masses --      2.5238                 2.2402                 1.4651
 Frc consts  --      1.1351                 1.1380                 0.7656
 IR Inten    --      8.0870                16.9804                 8.2893

                     31                     32                     33
                      A                      A                      A
 Frequencies --    960.5361               968.6305               974.2462
 Red. masses --      2.8730                 2.1435                 1.2998
 Frc consts  --      1.5617                 1.1849                 0.7269
 IR Inten    --     19.6299                 6.8257                 0.7652

                     34                     35                     36
                      A                      A                      A
 Frequencies --   1042.0818              1067.9187              1079.3740
 Red. masses --      2.1454                 1.3731                 2.4052
 Frc consts  --      1.3727                 0.9226                 1.6510
 IR Inten    --     16.3028                12.4202                 9.5120

                     37                     38                     39
                      A                      A                      A
 Frequencies --   1084.0462              1095.6283              1141.0927
 Red. masses --      1.4050                 2.1399                 1.6883
 Frc consts  --      0.9728                 1.5134                 1.2952
 IR Inten    --      3.7225                18.1325                44.7870

                     40                     41                     42
                      A                      A                      A
 Frequencies --   1152.7745              1159.3968              1192.6742
 Red. masses --      1.7288                 1.3032                 1.2888
 Frc consts  --      1.3536                 1.0321                 1.0801
 IR Inten    --     32.2225                 8.1056                 7.2099

                     43                     44                     45
                      A                      A                      A
 Frequencies --   1198.1116              1212.1174              1217.5352
 Red. masses --      1.4547                 1.4382                 1.4883
 Frc consts  --      1.2303                 1.2450                 1.2998
 IR Inten    --      3.1836                 4.9178                66.9413

                     46                     47                     48
                      A                      A                      A
 Frequencies --   1246.8508              1258.0012              1279.0251
 Red. masses --      2.7244                 1.9801                 3.2102
 Frc consts  --      2.4955                 1.8463                 3.0942
 IR Inten    --     29.9200                11.2774                40.3068

                     49                     50                     51
                      A                      A                      A
 Frequencies --   1337.9108              1377.7855              1402.6563
 Red. masses --      2.1226                 2.0949                 1.4108
 Frc consts  --      2.2386                 2.3430                 1.6354
 IR Inten    --     76.2792                27.7899                52.6132

                     52                     53                     54
                      A                      A                      A
 Frequencies --   1429.5407              1448.1515              1493.6978
 Red. masses --      1.3156                 1.5650                 1.0875
 Frc consts  --      1.5840                 1.9337                 1.4295
 IR Inten    --     40.4582                67.9092                 2.3714

                     55                     56                     57
                      A                      A                      A
 Frequencies --   1499.6478              1527.6205              1537.0254
 Red. masses --      2.1265                 1.2589                 1.1517
 Frc consts  --      2.8177                 1.7310                 1.6031
 IR Inten    --     49.8506                 8.0692                 1.6140

                     58                     59                     60
                      A                      A                      A
 Frequencies --   1543.2034              1552.9085              1649.5524
 Red. masses --      1.2208                 2.2450                 5.8142
 Frc consts  --      1.7129                 3.1898                 9.3211
 IR Inten    --      2.0718                 6.1734                11.7162

                     61                     62                     63
                      A                      A                      A
 Frequencies --   1670.2756              3065.6660              3136.5281
 Red. masses --      6.1490                 1.0352                 1.0993
 Frc consts  --     10.1073                 5.7323                 6.3716
 IR Inten    --     17.7369                17.7615                14.3873

                     64                     65                     66
                      A                      A                      A
 Frequencies --   3145.1142              3148.2604              3157.7308
 Red. masses --      1.1009                 1.0574                 1.0620
 Frc consts  --      6.4162                 6.1748                 6.2394
 IR Inten    --     17.4080                23.2962                27.7499

                     67                     68                     69
                      A                      A                      A
 Frequencies --   3161.2660              3163.5488              3193.6151
 Red. masses --      1.0889                 1.0832                 1.0876
 Frc consts  --      6.4112                 6.3873                 6.5358
 IR Inten    --     18.5931                 6.4453                 8.0949

                     70                     71                     72
                      A                      A                      A
 Frequencies --   3209.9977              3223.0701              3231.9266
 Red. masses --      1.0950                 1.1173                 1.0918
 Frc consts  --      6.6478                 6.8385                 6.7193
 IR Inten    --     24.1129                 3.1572                 6.8813

                     73                     74                     75
                      A                      A                      A
 Frequencies --   3239.8274              3712.7085              3754.9486
 Red. masses --      1.1153                 1.0650                 1.0659
 Frc consts  --      6.8976                 8.6490                 8.8546
 IR Inten    --     22.4299                69.7289                38.0874

 - Thermochemistry -
 -------------------
 Temperature   298.150 Kelvin.  Pressure   1.00000 Atm.
 Atom     1 has atomic number  6 and mass  12.00000

 Molecular mass:   178.09938 amu.
 Principal axes and moments of inertia in atomic units:
                           1         2         3
     Eigenvalues --  1285.152202907.350943762.13351
           X            0.99994   0.00881  -0.00584
           Y           -0.00872   0.99982   0.01670
           Z            0.00599  -0.01664   0.99984
 This molecule is an asymmetric top.
 Rotational symmetry number  1.
 Warning -- assumption of classical behavior for rotation
           may cause significant error
 Rotational temperatures (Kelvin)      0.06740     0.02979     0.02302
 Rotational constants (GHZ):           1.40430     0.62075     0.47971
 Zero-point vibrational energy     601614.6 (Joules/Mol)
                                  143.78933 (Kcal/Mol)
 Warning -- explicit consideration of  20 degrees of freedom as
           vibrations may cause significant error
 Vibrational temperatures:     88.76   118.10   159.35   238.29   321.58
          (Kelvin)            393.68   397.64   415.63   442.28   459.41
                              484.74   520.24   627.57   658.18   714.92
                              731.23   757.89   806.34   836.16   885.47
                             1000.99  1076.98  1095.37  1136.72  1165.66
                             1217.37  1225.37  1257.09  1335.99  1354.93
                             1382.00  1393.64  1401.72  1499.32  1536.50
                             1552.98  1559.70  1576.36  1641.78  1658.59
                             1668.11  1715.99  1723.82  1743.97  1751.76
                             1793.94  1809.98  1840.23  1924.96  1982.33
                             2018.11  2056.79  2083.57  2149.10  2157.66
                             2197.91  2211.44  2220.33  2234.29  2373.34
                             2403.15  4410.81  4512.76  4525.12  4529.64
                             4543.27  4548.36  4551.64  4594.90  4618.47
                             4637.28  4650.02  4661.39  5341.76  5402.53

 Zero-point correction=                           0.229143 (Hartree/Particle)
 Thermal correction to Energy=                    0.241211
 Thermal correction to Enthalpy=                  0.242155
 Thermal correction to Gibbs Free Energy=         0.191716
 Sum of electronic and zero-point Energies=           -577.821746
 Sum of electronic and thermal Energies=              -577.809678
 Sum of electronic and thermal Enthalpies=            -577.808734
 Sum of electronic and thermal Free Energies=         -577.859173

                     E (Thermal)             CV                S
                      KCal/Mol        Cal/Mol-Kelvin    Cal/Mol-Kelvin
 Total                  151.362             48.720            106.159
 Electronic               0.000              0.000              0.000
 Translational            0.889              2.981             41.438
 Rotational               0.889              2.981             31.020
 Vibrational            149.585             42.758             33.701
 Vibration     1          0.597              1.973              4.402
 Vibration     2          0.600              1.961              3.840
 Vibration     3          0.607              1.941              3.256
 Vibration     4          0.624              1.885              2.485
 Vibration     5          0.649              1.805              1.931
 Vibration     6          0.676              1.722              1.573
 Vibration     7          0.678              1.717              1.556
 Vibration     8          0.685              1.694              1.481
 Vibration     9          0.697              1.660              1.376
 Vibration    10          0.705              1.637              1.314
 Vibration    11          0.718              1.602              1.227
 Vibration    12          0.736              1.551              1.115
 Vibration    13          0.797              1.391              0.839
 Vibration    14          0.816              1.344              0.774
 Vibration    15          0.852              1.257              0.666
 Vibration    16          0.863              1.232              0.638
 Vibration    17          0.882              1.191              0.594
 Vibration    18          0.916              1.117              0.523
 Vibration    19          0.938              1.072              0.483
 Vibration    20          0.975              0.999              0.424

 Optimization completed.
    -- Stationary point found.
 Normal termination of Gaussian 16 at Wed Dec  9 23:16:33 2020.

 ----------------------------------------------------------------------
 # B3LYP/6-311++G(d,p) empiricaldispersion=gd3bj scf=xqc pop=npa geom=c
 heck
 ----------------------------------------------------------------------

 ---------------------------------------
 CID_118935069_JID_3414_Energie_neutraal
 ---------------------------------------
 Structure from the checkpoint file:  "JID_3414.chk"
 Charge =  0 Multiplicity = 1

 SCF Done:  E(RB3LYP) =  -578.226035595     A.U. after   15 cycles
 Normal termination of Gaussian 16 at Wed Dec  9 23:19:17 2020.

 ----------------------------------------------------------------------
 # B3LYP/6-311++G(d,p) empiricaldispersion=gd3bj scf=xqc pop=npa geom=c
 heck
 ----------------------------------------------------------------------

 -------------------------------------
 CID_118935069_JID_3414_Energie_kation
 -------------------------------------
 Structure from the checkpoint file:  "JID_3414.chk"
 Charge =  1 Multiplicity = 2

 SCF Done:  E(UB3LYP) =  -577.915365926     A.U. after   29 cycles
 Normal termination of Gaussian 16 at Wed Dec  9 23:25:59 2020.
 Gaussian 16:  ES64L-G16RevA.03 25-Dec-2016

 ----------------------------------------------------------------------
 # B3LYP/6-311++G(d,p) empiricaldispersion=gd3bj scf=xqc pop=npa geom=c
 heck
 ----------------------------------------------------------------------

 ------------------------------------
 CID_118935069_JID_3414_Energie_anion
 ------------------------------------
 Structure from the checkpoint file:  "JID_3414.chk"
 Charge = -1 Multiplicity = 2

                         Standard orientation:
 ---------------------------------------------------------------------
 Center     Atomic      Atomic             Coordinates (Angstroms)
 Number     Number       Type             X           Y           Z
 ---------------------------------------------------------------------
      1          6           0       -1.234746    1.063446    1.361391
      2          6           0       -0.931625    0.509601   -0.042796
      3          6           0       -1.946697   -0.517662   -0.526170
      4          6           0       -2.682153   -1.471273    0.384553
      5          6           0       -3.423430   -0.349364   -0.299041
      6          6           0        0.488640   -0.086720   -0.041848
      7          6           0        0.719812   -1.465200   -0.042272
      8          6           0        2.007732   -2.004650   -0.025948
      9          6           0        3.110483   -1.155754   -0.008891
     10          6           0        2.914399    0.224388    0.001106
     11          6           0        1.622130    0.746671   -0.009533
     12          8           0        1.419490    2.114308    0.022949
     13          8           0       -1.034979    1.562960   -1.010884
     14          1           0       -1.192251    0.279297    2.123843
     15          1           0       -2.222198    1.533554    1.381588
     16          1           0       -0.493466    1.823478    1.621933
     17          1           0       -1.673895   -0.910961   -1.502759
     18          1           0       -2.839635   -2.489331    0.038051
     19          1           0       -2.522140   -1.391217    1.455517
     20          1           0       -3.763829    0.481482    0.310252
     21          1           0       -4.087961   -0.592321   -1.122854
     22          1           0       -0.133754   -2.132565   -0.054173
     23          1           0        2.143140   -3.081947   -0.029579
     24          1           0        4.119939   -1.556217   -0.000163
     25          1           0        3.766673    0.901856    0.019531
     26          1           0        2.277535    2.562810   -0.026805
     27          1           0       -0.321514    2.193041   -0.814212
 ---------------------------------------------------------------------

 SCF Done:  E(UB3LYP) =  -578.214567868     A.U. after   33 cycles
 SCF Done:  E(UB3LYP) =  -578.214567867     a.u. after    1 cycles

 The electronic state is 2-A.
 Alpha  occ. eigenvalues --  -19.05300 -19.00769 -10.13991 -10.13552 -10.08375
 Alpha  occ. eigenvalues --  -10.08282 -10.08080 -10.07931 -10.07480 -10.07385
 Alpha  occ. eigenvalues --  -10.06976 -10.06867 -10.06193  -0.96265  -0.91493
 Alpha  occ. eigenvalues --   -0.77185  -0.75332  -0.67695  -0.64019  -0.62648
 Alpha  occ. eigenvalues --   -0.56262  -0.52802  -0.51558  -0.49940  -0.45677
 Alpha  occ. eigenvalues --   -0.44583  -0.41203  -0.40473  -0.38935  -0.37151
 Alpha  occ. eigenvalues --   -0.35766  -0.33489  -0.32496  -0.32158  -0.31549
 Alpha  occ. eigenvalues --   -0.29928  -0.28807  -0.27355  -0.26858  -0.26190
 Alpha  occ. eigenvalues --   -0.25307  -0.23965  -0.22491  -0.20451  -0.20260
 Alpha  occ. eigenvalues --   -0.17095  -0.15250  -0.12876   0.04516
 Alpha virt. eigenvalues --    0.06147   0.07089   0.08018   0.08366   0.08642
 Alpha virt. eigenvalues --    0.09198   0.09740   0.10290   0.11051   0.11327
 Alpha virt. eigenvalues --    0.11833   0.12938   0.13825   0.14191   0.14396

  Beta  occ. eigenvalues --  -19.05225 -19.00762 -10.13990 -10.13552 -10.08371
  Beta  occ. eigenvalues --  -10.08268 -10.08074 -10.07924 -10.07470 -10.07381
  Beta  occ. eigenvalues --  -10.06932 -10.06856 -10.06179  -0.96134  -0.91473
  Beta  occ. eigenvalues --   -0.77175  -0.75299  -0.67670  -0.63970  -0.62613
  Beta  occ. eigenvalues --   -0.56231  -0.52728  -0.51526  -0.49888  -0.45651
  Beta  occ. eigenvalues --   -0.44478  -0.41167  -0.40440  -0.38901  -0.37107
  Beta  occ. eigenvalues --   -0.35718  -0.33442  -0.32455  -0.32131  -0.31519
  Beta  occ. eigenvalues --   -0.29887  -0.28777  -0.27338  -0.26825  -0.26158
  Beta  occ. eigenvalues --   -0.25277  -0.23933  -0.22470  -0.20437  -0.20244
  Beta  occ. eigenvalues --   -0.17086  -0.15235  -0.12849
  Beta virt. eigenvalues --    0.06430   0.07499   0.07917   0.08363   0.08537
  Beta virt. eigenvalues --    0.09165   0.09686   0.09754   0.10607   0.11185
  Beta virt. eigenvalues --    0.11785   0.12058   0.13118   0.13900   0.14594

 Mulliken charges and spin densities:
               1          2
     1  C   -0.012629  -0.574384
     2  C    2.800770  -2.856844
     3  C   -1.187675   1.240390
     4  C    0.090456  -0.534594
     5  C    0.171838  -0.518417
     6  C    0.161504   0.664061
     7  C   -1.441422   1.116099
     8  C   -1.269420   0.810120
     9  C    2.427510  -2.620069
    10  C    0.354733  -0.675901
    11  C   -0.477050   0.224532
    12  O   -0.331926   0.091758
    13  O   -0.122191  -0.026294
    14  H    0.027215   0.108043
    15  H    0.096558   0.022517
    16  H    0.005259   0.165197
    17  H    0.043932   0.200881
    18  H   -0.204277   0.352018
    19  H    0.030517   0.109724
    20  H    0.062598   0.063556
    21  H    0.039616   0.097398
    22  H    0.252989  -0.084554
    23  H   -0.589521   0.757080
    24  H   -0.125290   0.282814
    25  H   -1.499924   1.676492
    26  H   -0.564013   0.871147
    27  H    0.259843   0.037230
 Sum of Mulliken charges =  -1.00000   1.00000

 Dipole moment (field-independent basis, Debye):
    X=             -7.7819    Y=             -3.2637    Z=              0.6906  Tot=              8.4668
 Quadrupole moment (field-independent basis, Debye-Ang):
   XX=           -150.0774   YY=           -129.2526   ZZ=           -103.7774
   XY=            -15.5923   XZ=             -1.9028   YZ=              0.7355

 Summary of Natural Population Analysis:

                                       Natural Population
                Natural  -----------------------------------------------
    Atom  No    Charge         Core      Valence    Rydberg      Total
 -----------------------------------------------------------------------
      C    1   -0.29726      0.99962     2.29175    0.00589     3.29726
      C    2    0.12569      0.99948     1.85819    0.01664     2.87431
      C    3   -0.11726      0.99956     2.10355    0.01416     3.11726
      C    4   -0.20263      0.99962     2.19553    0.00748     3.20263
      C    5   -0.19115      0.99961     2.18487    0.00667     3.19115
      C    6   -0.04656      0.99943     2.03351    0.01361     3.04656
      C    7   -0.09396      0.99952     2.08564    0.00879     3.09396
      C    8   -0.11451      0.99956     2.10478    0.01017     3.11451
      C    9   -0.09299      0.99957     2.08316    0.01027     3.09299
      C   10   -0.12850      0.99951     2.11693    0.01206     3.12850
      C   11    0.16202      0.99933     1.82519    0.01345     2.83798
      O   12   -0.36035      0.99987     3.35234    0.00814     4.36035
      O   13   -0.38074      0.99989     3.37485    0.00599     4.38074
      H   14    0.09980      0.00000     0.39916    0.00103     0.40020
      H   15    0.09851      0.00000     0.40034    0.00115     0.40149
      H   16    0.11175      0.00000     0.38698    0.00127     0.38825
      H   17    0.11101      0.00000     0.38791    0.00108     0.38899
      H   18    0.10184      0.00000     0.39712    0.00104     0.39816
      H   19    0.10268      0.00000     0.39632    0.00101     0.39732
      H   20    0.10185      0.00000     0.39713    0.00103     0.39815
      H   21    0.10058      0.00000     0.39857    0.00086     0.39942
      H   22    0.10422      0.00000     0.39413    0.00165     0.39578
      H   23    0.10032      0.00000     0.39853    0.00115     0.39968
      H   24    0.10191      0.00000     0.39689    0.00120     0.39809
      H   25    0.10963      0.00000     0.38400    0.00637     0.39037
      H   26    0.25253      0.00000     0.21536    0.03212     0.24747
      H   27    0.24157      0.00000     0.25531    0.00312     0.25843
 =======================================================================
   * Total *   -0.00000     12.99457    34.81802    0.18741    48.00000

 Normal termination of Gaussian 16 at Wed Dec  9 23:33:41 2020.
