 Gaussian 16, Revision A.03,

 -----------------------------------------------------------
 # opt freq B3LYP/6-31G(d) empiricaldispersion=gd3bj scf=xqc
 -----------------------------------------------------------

 -------------------------------
 CID_105617433_JID_7723_neutraal
 -------------------------------
 Symbolic Z-matrix:
 Charge =  0 Multiplicity = 1

 SCF Done:  E(RB3LYP) =  -852.738192770     A.U. after   15 cycles
 SCF Done:  E(RB3LYP) =  -852.745404725     A.U. after   15 cycles
 SCF Done:  E(RB3LYP) =  -852.741605870     A.U. after   15 cycles
 SCF Done:  E(RB3LYP) =  -852.750368971     A.U. after   14 cycles
 SCF Done:  E(RB3LYP) =  -852.753543676     A.U. after   14 cycles
 SCF Done:  E(RB3LYP) =  -852.755304404     A.U. after   14 cycles
 SCF Done:  E(RB3LYP) =  -852.757377940     A.U. after   13 cycles
 SCF Done:  E(RB3LYP) =  -852.758339806     A.U. after   13 cycles
 SCF Done:  E(RB3LYP) =  -852.758793542     A.U. after   14 cycles
 SCF Done:  E(RB3LYP) =  -852.759126295     A.U. after   14 cycles
 SCF Done:  E(RB3LYP) =  -852.759971917     A.U. after   11 cycles
 SCF Done:  E(RB3LYP) =  -852.759972355     A.U. after    9 cycles
 SCF Done:  E(RB3LYP) =  -852.759972679     A.U. after    8 cycles
 SCF Done:  E(RB3LYP) =  -852.759972742     A.U. after    8 cycles
 SCF Done:  E(RB3LYP) =  -852.759972771     A.U. after    8 cycles
 SCF Done:  E(RB3LYP) =  -852.759972782     A.U. after    7 cycles
 Optimization completed.
    -- Stationary point found.
 Normal termination of Gaussian 16 at Fri Dec 11 13:13:07 2020.

 --------------------------------------------------------------------
 #N Geom=AllCheck Guess=TCheck SCRF=Check GenChk RB3LYP/6-31G(d) Freq
 --------------------------------------------------------------------

 Structure from the checkpoint file:  "JID_7723.chk"
 -------------------------------
 CID_105617433_JID_7723_neutraal
 -------------------------------
 Charge =  0 Multiplicity = 1

 SCF Done:  E(RB3LYP) =  -852.759972782     A.U. after    1 cycles

  Exact polarizability: 233.763  11.045 141.655  -1.130   5.455  79.245
 Approx polarizability: 342.120  22.216 249.367  -5.519  22.149 129.069

                      1                      2                      3
                      A                      A                      A
 Frequencies --     32.5196                34.4888                45.0796
 Red. masses --      4.4650                 5.0420                 3.7069
 Frc consts  --      0.0028                 0.0035                 0.0044
 IR Inten    --      0.4912                 0.3824                 0.5349

                      4                      5                      6
                      A                      A                      A
 Frequencies --     86.4737               100.6522               122.4202
 Red. masses --      4.6595                10.1869                 2.5273
 Frc consts  --      0.0205                 0.0608                 0.0223
 IR Inten    --      0.1433                 1.1805                 1.5363

                      7                      8                      9
                      A                      A                      A
 Frequencies --    123.7017               160.4017               183.5987
 Red. masses --      5.5424                 2.6874                 7.2428
 Frc consts  --      0.0500                 0.0407                 0.1438
 IR Inten    --      0.4247                 2.0364                 2.8922

                     10                     11                     12
                      A                      A                      A
 Frequencies --    212.8245               240.4956               286.5199
 Red. masses --      3.0566                 4.8595                 4.8499
 Frc consts  --      0.0816                 0.1656                 0.2346
 IR Inten    --      3.1112                 2.5782                 0.1974

                     13                     14                     15
                      A                      A                      A
 Frequencies --    290.6985               325.2118               340.8044
 Red. masses --      2.7062                 3.8165                 6.0447
 Frc consts  --      0.1347                 0.2378                 0.4137
 IR Inten    --      0.7853                 0.5290                 6.0944

                     16                     17                     18
                      A                      A                      A
 Frequencies --    372.7064               426.7872               470.3060
 Red. masses --      8.1582                 2.7877                 4.4184
 Frc consts  --      0.6677                 0.2992                 0.5758
 IR Inten    --      4.7918                 2.6937                 4.6562

                     19                     20                     21
                      A                      A                      A
 Frequencies --    477.7172               490.8071               546.6988
 Red. masses --      4.1511                 3.5107                 2.4134
 Frc consts  --      0.5582                 0.4983                 0.4250
 IR Inten    --      1.4594                 2.7276                19.4376

                     22                     23                     24
                      A                      A                      A
 Frequencies --    615.2486               637.9414               642.9404
 Red. masses --      2.1120                 3.4236                 4.3316
 Frc consts  --      0.4710                 0.8209                 1.0550
 IR Inten    --     54.9832                 9.1206                64.0811

                     25                     26                     27
                      A                      A                      A
 Frequencies --    673.8625               734.4728               739.7394
 Red. masses --      7.3589                 4.5822                 4.7397
 Frc consts  --      1.9688                 1.4564                 1.5281
 IR Inten    --      0.2438                 4.5365                 3.6522

                     28                     29                     30
                      A                      A                      A
 Frequencies --    766.7862               777.0061               786.8136
 Red. masses --      7.3862                 1.8894                 3.1929
 Frc consts  --      2.5587                 0.6721                 1.1646
 IR Inten    --     30.5175                19.1538                17.5920

                     31                     32                     33
                      A                      A                      A
 Frequencies --    807.9080               824.3671               863.5185
 Red. masses --      2.2187                 1.3075                 8.5759
 Frc consts  --      0.8532                 0.5235                 3.7677
 IR Inten    --     35.8463                 8.7449                11.3891

                     34                     35                     36
                      A                      A                      A
 Frequencies --    868.5364               919.2189               942.8293
 Red. masses --      1.7550                 3.6273                 3.3996
 Frc consts  --      0.7800                 1.8058                 1.7805
 IR Inten    --     22.5681                 3.8446                12.5209

                     37                     38                     39
                      A                      A                      A
 Frequencies --    978.4007               999.0810              1066.0003
 Red. masses --      1.4113                 2.3439                 1.4545
 Frc consts  --      0.7960                 1.3785                 0.9738
 IR Inten    --      5.0450                15.1110                 0.2140

                     40                     41                     42
                      A                      A                      A
 Frequencies --   1077.7736              1088.8882              1096.5501
 Red. masses --      1.3832                 1.8680                 5.5638
 Frc consts  --      0.9466                 1.3050                 3.9417
 IR Inten    --      1.9660                42.8010               125.5839

                     43                     44                     45
                      A                      A                      A
 Frequencies --   1150.5664              1158.1507              1178.5227
 Red. masses --      1.2196                 1.1565                 2.2021
 Frc consts  --      0.9512                 0.9140                 1.8020
 IR Inten    --      0.2739                 0.6756                55.6684

                     46                     47                     48
                      A                      A                      A
 Frequencies --   1196.5544              1209.7539              1224.6499
 Red. masses --      2.2483                 1.3914                 2.0671
 Frc consts  --      1.8966                 1.1998                 1.8265
 IR Inten    --     85.6327                 0.6689               108.0125

                     49                     50                     51
                      A                      A                      A
 Frequencies --   1230.1652              1287.7708              1323.4153
 Red. masses --      2.4827                 2.3886                 1.5831
 Frc consts  --      2.2136                 2.3338                 1.6336
 IR Inten    --     61.8359                17.7540               112.5589

                     52                     53                     54
                      A                      A                      A
 Frequencies --   1362.2546              1380.1511              1384.6298
 Red. masses --      5.8770                 2.8718                 3.1905
 Frc consts  --      6.4257                 3.2229                 3.6039
 IR Inten    --     77.6854               146.0806               243.5541

                     55                     56                     57
                      A                      A                      A
 Frequencies --   1402.8451              1434.6203              1484.1245
 Red. masses --      4.7886                 1.7697                 1.7285
 Frc consts  --      5.5524                 2.1460                 2.2431
 IR Inten    --    485.1093                45.9724               162.2176

                     58                     59                     60
                      A                      A                      A
 Frequencies --   1490.8516              1508.1150              1527.6018
 Red. masses --      1.0875                 1.7974                 1.0540
 Frc consts  --      1.4241                 2.4086                 1.4491
 IR Inten    --      8.0992                30.7438                 2.9860

                     61                     62                     63
                      A                      A                      A
 Frequencies --   1531.1681              1545.3243              1567.3976
 Red. masses --      1.3521                 1.9766                 1.7739
 Frc consts  --      1.8677                 2.7810                 2.5677
 IR Inten    --     17.6778                26.6103               239.7920

                     64                     65                     66
                      A                      A                      A
 Frequencies --   1584.6711              1632.1571              1662.5653
 Red. masses --      7.0987                12.1429                 6.7386
 Frc consts  --     10.5029                19.0589                10.9742
 IR Inten    --     21.6352               332.1250               424.1285

                     67                     68                     69
                      A                      A                      A
 Frequencies --   1845.8493              3043.7377              3096.6460
 Red. masses --     10.6457                 1.0411                 1.1048
 Frc consts  --     21.3707                 5.6827                 6.2422
 IR Inten    --    273.2577                42.3693                18.5018

                     70                     71                     72
                      A                      A                      A
 Frequencies --   3152.0817              3153.9965              3186.9006
 Red. masses --      1.0511                 1.0592                 1.0949
 Frc consts  --      6.1532                 6.2079                 6.5518
 IR Inten    --     15.1084                 8.8086                13.6523

                     73                     74                     75
                      A                      A                      A
 Frequencies --   3219.5856              3225.1019              3235.6484
 Red. masses --      1.0915                 1.1194                 1.1153
 Frc consts  --      6.6660                 6.8597                 6.8799
 IR Inten    --      1.1952                 0.3510                15.5410

                     76                     77                     78
                      A                      A                      A
 Frequencies --   3256.0389              3263.2871              3686.8067
 Red. masses --      1.0904                 1.0893                 1.0639
 Frc consts  --      6.8108                 6.8346                 8.5199
 IR Inten    --      1.4303                15.0962                81.7002

 - Thermochemistry -
 -------------------
 Temperature   298.150 Kelvin.  Pressure   1.00000 Atm.
 Atom     1 has atomic number  6 and mass  12.00000

 Molecular mass:   237.07496 amu.
 Principal axes and moments of inertia in atomic units:
                           1         2         3
     Eigenvalues --  1907.213076890.102398373.52331
           X            1.00000  -0.00017   0.00210
           Y            0.00018   0.99999  -0.00401
           Z           -0.00210   0.00401   0.99999
 This molecule is an asymmetric top.
 Rotational symmetry number  1.
 Warning -- assumption of classical behavior for rotation
           may cause significant error
 Rotational temperatures (Kelvin)      0.04541     0.01257     0.01034
 Rotational constants (GHZ):           0.94627     0.26193     0.21553
 Zero-point vibrational energy     562858.0 (Joules/Mol)
                                  134.52628 (Kcal/Mol)
 Warning -- explicit consideration of  22 degrees of freedom as
           vibrations may cause significant error
 Vibrational temperatures:     46.79    49.62    64.86   124.42   144.82
          (Kelvin)            176.14   177.98   230.78   264.16   306.21
                              346.02   412.24   418.25   467.91   490.34
                              536.24   614.05   676.67   687.33   706.16
                              786.58   885.21   917.86   925.05   969.54
                             1056.74  1064.32  1103.23  1117.94  1132.05
                             1162.40  1186.08  1242.41  1249.63  1322.55
                             1356.52  1407.70  1437.45  1533.74  1550.68
                             1566.67  1577.69  1655.41  1666.32  1695.63
                             1721.57  1740.57  1762.00  1769.93  1852.82
                             1904.10  1959.98  1985.73  1992.17  2018.38
                             2064.10  2135.32  2145.00  2169.84  2197.88
                             2203.01  2223.38  2255.14  2279.99  2348.31
                             2392.06  2655.77  4379.26  4455.38  4535.14
                             4537.90  4585.24  4632.27  4640.20  4655.38
                             4684.71  4695.14  5304.49

 Zero-point correction=                           0.214381 (Hartree/Particle)
 Thermal correction to Energy=                    0.229872
 Thermal correction to Enthalpy=                  0.230817
 Thermal correction to Gibbs Free Energy=         0.169843
 Sum of electronic and zero-point Energies=           -852.545592
 Sum of electronic and thermal Energies=              -852.530100
 Sum of electronic and thermal Enthalpies=            -852.529156
 Sum of electronic and thermal Free Energies=         -852.590129

                     E (Thermal)             CV                S
                      KCal/Mol        Cal/Mol-Kelvin    Cal/Mol-Kelvin
 Total                  144.247             57.160            128.329
 Electronic               0.000              0.000              0.000
 Translational            0.889              2.981             42.291
 Rotational               0.889              2.981             33.064
 Vibrational            142.470             51.198             52.974
 Vibration     1          0.594              1.983              5.669
 Vibration     2          0.594              1.983              5.553
 Vibration     3          0.595              1.979              5.022
 Vibration     4          0.601              1.959              3.738
 Vibration     5          0.604              1.949              3.442
 Vibration     6          0.610              1.930              3.062
 Vibration     7          0.610              1.929              3.042
 Vibration     8          0.622              1.891              2.545
 Vibration     9          0.631              1.862              2.292
 Vibration    10          0.644              1.821              2.019
 Vibration    11          0.658              1.778              1.799
 Vibration    12          0.684              1.699              1.494
 Vibration    13          0.687              1.691              1.470
 Vibration    14          0.709              1.625              1.284
 Vibration    15          0.720              1.594              1.208
 Vibration    16          0.744              1.528              1.069
 Vibration    17          0.788              1.412              0.869
 Vibration    18          0.827              1.316              0.737
 Vibration    19          0.834              1.299              0.716
 Vibration    20          0.847              1.270              0.682
 Vibration    21          0.902              1.147              0.551
 Vibration    22          0.975              1.000              0.424

 Optimization completed.
    -- Stationary point found.
 Normal termination of Gaussian 16 at Fri Dec 11 13:21:51 2020.

 ----------------------------------------------------------------------
 # B3LYP/6-311++G(d,p) empiricaldispersion=gd3bj scf=xqc pop=npa geom=c
 heck
 ----------------------------------------------------------------------

 ---------------------------------------
 CID_105617433_JID_7723_Energie_neutraal
 ---------------------------------------
 Structure from the checkpoint file:  "JID_7723.chk"
 Charge =  0 Multiplicity = 1

 SCF Done:  E(RB3LYP) =  -853.007422558     A.U. after   17 cycles
 Normal termination of Gaussian 16 at Fri Dec 11 13:25:25 2020.

 ----------------------------------------------------------------------
 # B3LYP/6-311++G(d,p) empiricaldispersion=gd3bj scf=xqc pop=npa geom=c
 heck
 ----------------------------------------------------------------------

 -------------------------------------
 CID_105617433_JID_7723_Energie_kation
 -------------------------------------
 Structure from the checkpoint file:  "JID_7723.chk"
 Charge =  1 Multiplicity = 2

 SCF Done:  E(UB3LYP) =  -852.713110990     A.U. after   25 cycles
 Normal termination of Gaussian 16 at Fri Dec 11 13:32:34 2020.
 Gaussian 16:  ES64L-G16RevA.03 25-Dec-2016

 ----------------------------------------------------------------------
 # B3LYP/6-311++G(d,p) empiricaldispersion=gd3bj scf=xqc pop=npa geom=c
 heck
 ----------------------------------------------------------------------

 ------------------------------------
 CID_105617433_JID_7723_Energie_anion
 ------------------------------------
 Structure from the checkpoint file:  "JID_7723.chk"
 Charge = -1 Multiplicity = 2

                         Standard orientation:
 ---------------------------------------------------------------------
 Center     Atomic      Atomic             Coordinates (Angstroms)
 Number     Number       Type             X           Y           Z
 ---------------------------------------------------------------------
      1          6           0        2.739872    1.796991    0.080507
      2          7           0        2.407625    0.382384    0.016171
      3          6           0        3.456733   -0.612828   -0.046705
      4          6           0        4.743742   -0.375782   -0.790935
      5          6           0        4.743530   -0.473546    0.721742
      6          6           0        1.099188   -0.000465    0.004994
      7          7           0        0.833253   -1.327498   -0.031686
      8          6           0       -0.430331   -1.724276   -0.023164
      9          6           0       -1.514473   -0.846163    0.012238
     10          6           0       -1.262563    0.535873    0.018030
     11          6           0        0.050738    0.961301    0.026084
     12          6           0       -2.327428    1.594632   -0.031643
     13          8           0       -2.422510    2.491051    0.773503
     14          8           0       -3.076482    1.493104   -1.146848
     15          7           0       -2.851208   -1.381176    0.140877
     16          8           0       -3.025473   -2.570074   -0.139166
     17          8           0       -3.734357   -0.622344    0.552451
     18          1           0        3.820446    1.918207    0.129882
     19          1           0        2.308645    2.263790    0.973302
     20          1           0        2.380097    2.333879   -0.805815
     21          1           0        3.024614   -1.600715   -0.108760
     22          1           0        5.146045   -1.198460   -1.374916
     23          1           0        4.921253    0.601688   -1.230538
     24          1           0        4.920643    0.438964    1.284132
     25          1           0        5.145358   -1.364750    1.194913
     26          1           0       -0.616737   -2.793813   -0.028838
     27          1           0        0.252108    2.023378    0.031590
     28          1           0       -3.753628    2.193553   -1.088908
 ---------------------------------------------------------------------

 SCF Done:  E(UB3LYP) =  -853.044979637     A.U. after   23 cycles

 The electronic state is 2-A.
 Alpha  occ. eigenvalues --  -19.04577 -18.98629 -18.94947 -18.94691 -14.32822
 Alpha  occ. eigenvalues --  -14.22940 -14.17774 -10.17989 -10.11775 -10.11380
 Alpha  occ. eigenvalues --  -10.11320 -10.09108 -10.09073 -10.07762 -10.06564
 Alpha  occ. eigenvalues --  -10.05949 -10.05289  -1.02840  -0.98565  -0.89719
 Alpha  occ. eigenvalues --   -0.87026  -0.85639  -0.80636  -0.75884  -0.69719
 Alpha  occ. eigenvalues --   -0.64887  -0.61845  -0.57111  -0.53547  -0.52617
 Alpha  occ. eigenvalues --   -0.50715  -0.47625  -0.45696  -0.43770  -0.41375
 Alpha  occ. eigenvalues --   -0.39464  -0.37269  -0.36836  -0.36292  -0.36102
 Alpha  occ. eigenvalues --   -0.34847  -0.34239  -0.32905  -0.31922  -0.30886
 Alpha  occ. eigenvalues --   -0.30253  -0.29513  -0.29223  -0.28515  -0.27589
 Alpha  occ. eigenvalues --   -0.26714  -0.24589  -0.22209  -0.20314  -0.18093
 Alpha  occ. eigenvalues --   -0.17040  -0.15489  -0.14407  -0.13629  -0.12233
 Alpha  occ. eigenvalues --   -0.10817  -0.08906   0.02490
 Alpha virt. eigenvalues --    0.06075   0.07532   0.08126   0.08560   0.09037
 Alpha virt. eigenvalues --    0.09809   0.10987   0.11644   0.11903   0.12906
 Alpha virt. eigenvalues --    0.13085   0.13587   0.14603   0.15014   0.15528

  Beta  occ. eigenvalues --  -19.04563 -18.98535 -18.94515 -18.94217 -14.32239
  Beta  occ. eigenvalues --  -14.22840 -14.17824 -10.17956 -10.11783 -10.11324
  Beta  occ. eigenvalues --  -10.11119 -10.09097 -10.09062 -10.07711 -10.06523
  Beta  occ. eigenvalues --  -10.05614 -10.05374  -1.01861  -0.98470  -0.89586
  Beta  occ. eigenvalues --   -0.86813  -0.84785  -0.80541  -0.75822  -0.69277
  Beta  occ. eigenvalues --   -0.64553  -0.61658  -0.56578  -0.53286  -0.52591
  Beta  occ. eigenvalues --   -0.50559  -0.47348  -0.45420  -0.43604  -0.41300
  Beta  occ. eigenvalues --   -0.39289  -0.36811  -0.36437  -0.36052  -0.35952
  Beta  occ. eigenvalues --   -0.34046  -0.32813  -0.32333  -0.31444  -0.30589
  Beta  occ. eigenvalues --   -0.30131  -0.29460  -0.29181  -0.28009  -0.27382
  Beta  occ. eigenvalues --   -0.26566  -0.24300  -0.22171  -0.20024  -0.17401
  Beta  occ. eigenvalues --   -0.16480  -0.15070  -0.14165  -0.11881  -0.10581
  Beta  occ. eigenvalues --   -0.10335  -0.08159
  Beta virt. eigenvalues --    0.06052   0.07516   0.08085   0.08631   0.09042
  Beta virt. eigenvalues --    0.09824   0.09982   0.11020   0.11634   0.11872
  Beta virt. eigenvalues --    0.13014   0.13091   0.14467   0.14739   0.15392

 Mulliken charges and spin densities:
               1          2
     1  C   -0.407664  -0.009549
     2  N    0.252023   0.028862
     3  C   -0.420713  -0.009298
     4  C   -0.197922   0.003493
     5  C   -0.199415   0.004609
     6  C   -1.187322   0.156704
     7  N   -0.173527  -0.023625
     8  C    0.450806   0.073096
     9  C   -2.097060  -0.057630
    10  C    1.374708   0.270133
    11  C    0.251533  -0.070810
    12  C    0.455145   0.039927
    13  O   -0.290835   0.028247
    14  O   -0.085550  -0.007404
    15  N   -0.252156   0.183999
    16  O   -0.166089   0.178061
    17  O   -0.159349   0.169196
    18  H    0.074497   0.000551
    19  H    0.160938   0.010452
    20  H    0.152288   0.009737
    21  H    0.296665  -0.000215
    22  H    0.132611   0.003951
    23  H    0.133715  -0.001169
    24  H    0.135398  -0.000482
    25  H    0.131695   0.003053
    26  H    0.246982  -0.001746
    27  H    0.153061   0.004251
    28  H    0.235536   0.013603
 Sum of Mulliken charges =  -1.00000   1.00000

 Dipole moment (field-independent basis, Debye):
    X=             11.1238    Y=              4.4292    Z=             -1.7247  Tot=             12.0967
 Quadrupole moment (field-independent basis, Debye-Ang):
   XX=           -148.6016   YY=           -120.7269   ZZ=           -107.7877
   XY=            -11.6013   XZ=              7.0499   YZ=             -5.5827

 Summary of Natural Population Analysis:

                                       Natural Population
                Natural  -----------------------------------------------
    Atom  No    Charge         Core      Valence    Rydberg      Total
 -----------------------------------------------------------------------
      C    1   -0.17748      0.99966     2.17125    0.00658     3.17748
      N    2   -0.23206      0.99961     2.72145    0.01100     3.73206
      C    3   -0.00577      0.99956     1.99514    0.01106     3.00577
      C    4   -0.20959      0.99964     2.20356    0.00639     3.20959
      C    5   -0.20950      0.99964     2.20342    0.00644     3.20950
      C    6    0.25271      0.99955     1.73568    0.01207     2.74729
      N    7   -0.28413      0.99967     2.77448    0.00998     3.78413
      C    8    0.05632      0.99957     1.93029    0.01382     2.94368
      C    9    0.01316      0.99937     1.97254    0.01493     2.98684
      C   10    0.02337      0.99941     1.96593    0.01129     2.97663
      C   11   -0.16062      0.99951     2.15406    0.00705     3.16062
      C   12    0.41730      0.99967     1.55710    0.02593     2.58270
      O   13   -0.30536      0.99986     3.29886    0.00663     4.30536
      O   14   -0.33624      0.99987     3.32943    0.00693     4.33624
      N   15    0.30132      0.99971     2.17268    0.02630     3.19868
      O   16   -0.19464      0.99990     3.18726    0.00748     4.19464
      O   17   -0.19132      0.99990     3.18359    0.00784     4.19132
      H   18    0.09267      0.00000     0.40634    0.00099     0.40733
      H   19    0.09593      0.00000     0.40252    0.00155     0.40407
      H   20    0.09256      0.00000     0.40582    0.00162     0.40744
      H   21    0.12709      0.00000     0.37168    0.00123     0.37291
      H   22    0.09999      0.00000     0.39895    0.00106     0.40001
      H   23    0.09875      0.00000     0.40019    0.00106     0.40125
      H   24    0.09878      0.00000     0.40015    0.00107     0.40122
      H   25    0.10012      0.00000     0.39882    0.00106     0.39988
      H   26    0.10116      0.00000     0.39744    0.00140     0.39884
      H   27    0.10367      0.00000     0.39509    0.00124     0.39633
      H   28    0.23181      0.00000     0.26364    0.00455     0.26819
 =======================================================================
   * Total *   -0.00000     16.99410    44.79735    0.20855    62.00000

 Normal termination of Gaussian 16 at Fri Dec 11 13:39:10 2020.
