 Gaussian 16, Revision A.03,

 -----------------------------------------------------------
 # opt freq B3LYP/6-31G(d) empiricaldispersion=gd3bj scf=xqc
 -----------------------------------------------------------

 ------------------------------
 CID_91249361_JID_9798_neutraal
 ------------------------------
 Symbolic Z-matrix:
 Charge =  0 Multiplicity = 1

 SCF Done:  E(RB3LYP) =  -855.852166881     A.U. after   16 cycles
 SCF Done:  E(RB3LYP) =  -855.858052237     A.U. after   15 cycles
 SCF Done:  E(RB3LYP) =  -855.857292786     A.U. after   14 cycles
 SCF Done:  E(RB3LYP) =  -855.860447774     A.U. after   13 cycles
 SCF Done:  E(RB3LYP) =  -855.861664639     A.U. after   13 cycles
 SCF Done:  E(RB3LYP) =  -855.862457065     A.U. after   13 cycles
 SCF Done:  E(RB3LYP) =  -855.862819464     A.U. after   13 cycles
 SCF Done:  E(RB3LYP) =  -855.862982222     A.U. after   12 cycles
 SCF Done:  E(RB3LYP) =  -855.863075490     A.U. after   12 cycles
 SCF Done:  E(RB3LYP) =  -855.863108863     A.U. after   11 cycles
 SCF Done:  E(RB3LYP) =  -855.863152839     A.U. after   10 cycles
 SCF Done:  E(RB3LYP) =  -855.863154999     A.U. after    9 cycles
 SCF Done:  E(RB3LYP) =  -855.863156028     A.U. after    8 cycles
 SCF Done:  E(RB3LYP) =  -855.863156653     A.U. after    8 cycles
 SCF Done:  E(RB3LYP) =  -855.863156993     A.U. after    8 cycles
 SCF Done:  E(RB3LYP) =  -855.863156987     A.U. after    7 cycles
 Optimization completed.
    -- Stationary point found.
 Normal termination of Gaussian 16 at Sat Dec 12 10:11:48 2020.

 --------------------------------------------------------------------
 #N Geom=AllCheck Guess=TCheck SCRF=Check GenChk RB3LYP/6-31G(d) Freq
 --------------------------------------------------------------------

 Structure from the checkpoint file:  "JID_9798.chk"
 ------------------------------
 CID_91249361_JID_9798_neutraal
 ------------------------------
 Charge =  0 Multiplicity = 1

 SCF Done:  E(RB3LYP) =  -855.863156987     A.U. after    1 cycles

  Exact polarizability: 204.117  -8.009 163.259 -21.484   3.009 125.860
 Approx polarizability: 273.448 -26.970 268.601 -53.266  11.662 204.699

                      1                      2                      3
                      A                      A                      A
 Frequencies --     23.3681                35.4183                46.7268
 Red. masses --      7.1220                 4.7778                 2.8775
 Frc consts  --      0.0023                 0.0035                 0.0037
 IR Inten    --      0.6325                 0.2507                 0.2028

                      4                      5                      6
                      A                      A                      A
 Frequencies --     70.1514                83.2243               104.2975
 Red. masses --      7.5799                 2.6666                 4.2988
 Frc consts  --      0.0220                 0.0109                 0.0276
 IR Inten    --      2.8206                 0.7043                 0.3630

                      7                      8                      9
                      A                      A                      A
 Frequencies --    133.8681               170.4466               185.2221
 Red. masses --     10.4584                 5.6932                 3.6993
 Frc consts  --      0.1104                 0.0974                 0.0748
 IR Inten    --      7.5224                 0.9141                 4.8129

                     10                     11                     12
                      A                      A                      A
 Frequencies --    205.9098               211.8280               228.3945
 Red. masses --      2.9386                 4.7983                 1.4324
 Frc consts  --      0.0734                 0.1269                 0.0440
 IR Inten    --      0.7514                 1.5557                 0.3345

                     13                     14                     15
                      A                      A                      A
 Frequencies --    236.4185               249.5428               277.2477
 Red. masses --      3.2825                 1.0607                 2.0062
 Frc consts  --      0.1081                 0.0389                 0.0909
 IR Inten    --      0.6508                 0.0030                 0.4055

                     16                     17                     18
                      A                      A                      A
 Frequencies --    285.6487               321.1801               364.5117
 Red. masses --      3.8182                 2.3721                 2.9483
 Frc consts  --      0.1836                 0.1442                 0.2308
 IR Inten    --      2.4934                 0.3858                 2.3234

                     19                     20                     21
                      A                      A                      A
 Frequencies --    375.1175               416.8028               438.8195
 Red. masses --      3.4361                 3.5626                 3.5570
 Frc consts  --      0.2849                 0.3647                 0.4036
 IR Inten    --      2.5386                 9.7647                 2.5720

                     22                     23                     24
                      A                      A                      A
 Frequencies --    463.4343               488.9524               506.8908
 Red. masses --      2.6167                 2.9203                 3.2906
 Frc consts  --      0.3311                 0.4113                 0.4981
 IR Inten    --      5.6905                 0.8603                 3.5322

                     25                     26                     27
                      A                      A                      A
 Frequencies --    515.2737               533.4859               576.1693
 Red. masses --      6.4327                 3.7621                 4.0810
 Frc consts  --      1.0063                 0.6309                 0.7982
 IR Inten    --      1.3025                 5.8164                 3.6893

                     28                     29                     30
                      A                      A                      A
 Frequencies --    598.8893               610.6449               641.9883
 Red. masses --      3.1469                 4.8415                 2.9656
 Frc consts  --      0.6650                 1.0637                 0.7201
 IR Inten    --      0.7880                 4.7293                 6.2021

                     31                     32                     33
                      A                      A                      A
 Frequencies --    644.9097               713.7417               725.2942
 Red. masses --      2.4889                 1.9591                 2.3331
 Frc consts  --      0.6099                 0.5880                 0.7231
 IR Inten    --     35.1612                10.6125                52.8778

                     34                     35                     36
                      A                      A                      A
 Frequencies --    729.1199               760.8529               774.1149
 Red. masses --      2.4471                 2.6694                 6.6685
 Frc consts  --      0.7665                 0.9105                 2.3545
 IR Inten    --     82.4343                13.1904                17.9571

                     37                     38                     39
                      A                      A                      A
 Frequencies --    837.8789               862.1625               877.5112
 Red. masses --      1.4774                 2.6141                 1.3360
 Frc consts  --      0.6111                 1.1448                 0.6061
 IR Inten    --      0.6171                 3.1597                17.0853

                     40                     41                     42
                      A                      A                      A
 Frequencies --    893.6577               935.3012               953.9678
 Red. masses --      2.3012                 1.2549                 1.6949
 Frc consts  --      1.0828                 0.6468                 0.9088
 IR Inten    --      4.4331                 0.6635                 1.9996

                     43                     44                     45
                      A                      A                      A
 Frequencies --    957.5955               964.8900               990.4464
 Red. masses --      1.4482                 5.2728                 2.0763
 Frc consts  --      0.7824                 2.8923                 1.2000
 IR Inten    --      0.6435                47.7855                12.0085

                     46                     47                     48
                      A                      A                      A
 Frequencies --   1013.4461              1031.5141              1084.3217
 Red. masses --      1.5063                 2.5152                 1.8624
 Frc consts  --      0.9115                 1.5768                 1.2901
 IR Inten    --      5.1568                16.5183                13.9881

                     49                     50                     51
                      A                      A                      A
 Frequencies --   1105.5761              1126.0137              1138.1620
 Red. masses --      3.0166                 2.8783                 2.4326
 Frc consts  --      2.1724                 2.1502                 1.8566
 IR Inten    --     10.4720                12.6767                36.1024

                     52                     53                     54
                      A                      A                      A
 Frequencies --   1146.1157              1150.0922              1164.7210
 Red. masses --      2.2247                 2.2027                 4.1007
 Frc consts  --      1.7218                 1.7166                 3.2775
 IR Inten    --     17.9451                 4.5894                33.8847

                     55                     56                     57
                      A                      A                      A
 Frequencies --   1180.8346              1189.0395              1219.6383
 Red. masses --      2.3145                 1.3843                 2.0414
 Frc consts  --      1.9015                 1.1532                 1.7891
 IR Inten    --     21.4309                 1.3037                28.8306

                     58                     59                     60
                      A                      A                      A
 Frequencies --   1236.2568              1238.1436              1287.9461
 Red. masses --      2.0316                 1.7312                 1.8057
 Frc consts  --      1.8294                 1.5636                 1.7648
 IR Inten    --     10.2795                13.4058                 4.9688

                     61                     62                     63
                      A                      A                      A
 Frequencies --   1290.8944              1299.7839              1336.0338
 Red. masses --      1.6328                 1.6764                 1.4274
 Frc consts  --      1.6031                 1.6687                 1.5012
 IR Inten    --     28.4645                 8.4223                24.7973

                     64                     65                     66
                      A                      A                      A
 Frequencies --   1347.4050              1364.8566              1369.2539
 Red. masses --      1.2979                 1.3510                 2.3723
 Frc consts  --      1.3883                 1.4827                 2.6206
 IR Inten    --      7.1893                18.8016                31.2771

                     67                     68                     69
                      A                      A                      A
 Frequencies --   1371.7625              1389.2392              1391.0924
 Red. masses --      1.7392                 1.3288                 1.4237
 Frc consts  --      1.9282                 1.5110                 1.6232
 IR Inten    --     31.3672                17.9774                 3.3131

                     70                     71                     72
                      A                      A                      A
 Frequencies --   1405.4581              1416.1427              1423.1971
 Red. masses --      4.3531                 1.5037                 1.3511
 Frc consts  --      5.0663                 1.7767                 1.6124
 IR Inten    --     73.3363                 5.6415                18.8873

                     73                     74                     75
                      A                      A                      A
 Frequencies --   1424.5803              1446.4968              1447.1600
 Red. masses --      1.2974                 1.2980                 1.3902
 Frc consts  --      1.5513                 1.6001                 1.7154
 IR Inten    --     12.0628                44.5754                 6.5093

                     76                     77                     78
                      A                      A                      A
 Frequencies --   1461.7153              1500.4439              1503.1942
 Red. masses --      3.3343                 1.3968                 2.1874
 Frc consts  --      4.1974                 1.8527                 2.9122
 IR Inten    --    136.7568                18.5085                34.3524

                     79                     80                     81
                      A                      A                      A
 Frequencies --   1503.7863              1515.8149              1518.9407
 Red. masses --      1.7226                 1.0474                 1.1261
 Frc consts  --      2.2952                 1.4179                 1.5308
 IR Inten    --     28.1999                 0.6029                19.2631

                     82                     83                     84
                      A                      A                      A
 Frequencies --   1521.4916              1530.6643              1533.3025
 Red. masses --      1.0790                 1.0670                 1.0486
 Frc consts  --      1.4716                 1.4729                 1.4525
 IR Inten    --      4.8440                 1.6123                 6.2347

                     85                     86                     87
                      A                      A                      A
 Frequencies --   1536.3320              1546.6842              1596.2408
 Red. masses --      1.0797                 1.0819                 4.7604
 Frc consts  --      1.5015                 1.5250                 7.1464
 IR Inten    --      1.6161                 9.9446                20.3421

                     88                     89                     90
                      A                      A                      A
 Frequencies --   1748.0110              2349.6376              2923.3504
 Red. masses --      7.5228                12.6533                 1.0734
 Frc consts  --     13.5430                41.1582                 5.4047
 IR Inten    --    431.2481                51.1841                46.0682

                     91                     92                     93
                      A                      A                      A
 Frequencies --   2948.6993              3035.9650              3044.3677
 Red. masses --      1.0720                 1.0848                 1.0606
 Frc consts  --      5.4917                 5.8908                 5.7918
 IR Inten    --     47.5192                16.3078                16.6364

                     94                     95                     96
                      A                      A                      A
 Frequencies --   3049.5290              3050.7286              3054.6082
 Red. masses --      1.0361                 1.0658                 1.0364
 Frc consts  --      5.6769                 5.8445                 5.6976
 IR Inten    --     12.4109                34.3713                16.6737

                     97                     98                     99
                      A                      A                      A
 Frequencies --   3086.8301              3090.5749              3106.8976
 Red. masses --      1.0890                 1.1035                 1.0918
 Frc consts  --      6.1135                 6.2103                 6.2095
 IR Inten    --     41.0592                20.5552                27.1397

                    100                    101                    102
                      A                      A                      A
 Frequencies --   3114.2284              3120.8121              3123.5556
 Red. masses --      1.0981                 1.0992                 1.1020
 Frc consts  --      6.2747                 6.3074                 6.3346
 IR Inten    --     10.1735                76.2213                30.6323

                    103                    104                    105
                      A                      A                      A
 Frequencies --   3125.8714              3134.3192              3141.9146
 Red. masses --      1.0948                 1.1030                 1.0858
 Frc consts  --      6.3026                 6.3841                 6.3152
 IR Inten    --     13.3384                26.4835                22.4713

                    106                    107                    108
                      A                      A                      A
 Frequencies --   3279.9429              3560.2497              3632.7605
 Red. masses --      1.0975                 1.0747                 1.0815
 Frc consts  --      6.9563                 8.0256                 8.4089
 IR Inten    --      0.8467                26.2350               139.4971

 - Thermochemistry -
 -------------------
 Temperature   298.150 Kelvin.  Pressure   1.00000 Atm.
 Atom     1 has atomic number  6 and mass  12.00000

 Molecular mass:   261.15896 amu.
 Principal axes and moments of inertia in atomic units:
                           1         2         3
     Eigenvalues --  2415.465819360.98701**********
           X            0.99998  -0.00289   0.00638
           Y            0.00293   0.99997  -0.00654
           Z           -0.00636   0.00656   0.99996
 This molecule is an asymmetric top.
 Rotational symmetry number  1.
 Warning -- assumption of classical behavior for rotation
           may cause significant error
 Rotational temperatures (Kelvin)      0.03586     0.00925     0.00837
 Rotational constants (GHZ):           0.74716     0.19279     0.17441
 Zero-point vibrational energy     849635.5 (Joules/Mol)
                                  203.06775 (Kcal/Mol)
 Warning -- explicit consideration of  29 degrees of freedom as
           vibrations may cause significant error
 Vibrational temperatures:     33.62    50.96    67.23   100.93   119.74
          (Kelvin)            150.06   192.61   245.23   266.49   296.26
                              304.77   328.61   340.15   359.04   398.90
                              410.98   462.11   524.45   539.71   599.69
                              631.36   666.78   703.49   729.30   741.36
                              767.57   828.98   861.67   878.58   923.68
                              927.88  1026.92  1043.54  1049.04  1094.70
                             1113.78  1205.52  1240.46  1262.54  1285.77
                             1345.69  1372.55  1377.77  1388.26  1425.03
                             1458.12  1484.12  1560.10  1590.68  1620.08
                             1637.56  1649.00  1654.73  1675.77  1698.96
                             1710.76  1754.79  1778.70  1781.41  1853.07
                             1857.31  1870.10  1922.25  1938.62  1963.72
                             1970.05  1973.66  1998.81  2001.47  2022.14
                             2037.51  2047.66  2049.65  2081.19  2082.14
                             2103.08  2158.80  2162.76  2163.61  2180.92
                             2185.42  2189.09  2202.28  2206.08  2210.44
                             2225.33  2296.63  2515.00  3380.60  4206.05
                             4242.52  4368.08  4380.17  4387.59  4389.32
                             4394.90  4441.26  4446.65  4470.13  4480.68
                             4490.15  4494.10  4497.43  4509.59  4520.51
                             4719.11  5122.41  5226.73

 Zero-point correction=                           0.323609 (Hartree/Particle)
 Thermal correction to Energy=                    0.341648
 Thermal correction to Enthalpy=                  0.342592
 Thermal correction to Gibbs Free Energy=         0.276527
 Sum of electronic and zero-point Energies=           -855.539548
 Sum of electronic and thermal Energies=              -855.521509
 Sum of electronic and thermal Enthalpies=            -855.520565
 Sum of electronic and thermal Free Energies=         -855.586630

                     E (Thermal)             CV                S
                      KCal/Mol        Cal/Mol-Kelvin    Cal/Mol-Kelvin
 Total                  214.387             68.906            139.046
 Electronic               0.000              0.000              0.000
 Translational            0.889              2.981             42.579
 Rotational               0.889              2.981             33.814
 Vibrational            212.610             62.944             62.653
 Vibration     1          0.593              1.985              6.325
 Vibration     2          0.594              1.982              5.500
 Vibration     3          0.595              1.979              4.951
 Vibration     4          0.598              1.968              4.149
 Vibration     5          0.600              1.961              3.813
 Vibration     6          0.605              1.946              3.372
 Vibration     7          0.613              1.920              2.890
 Vibration     8          0.626              1.879              2.431
 Vibration     9          0.631              1.860              2.275
 Vibration    10          0.640              1.831              2.080
 Vibration    11          0.643              1.823              2.028
 Vibration    12          0.651              1.798              1.892
 Vibration    13          0.655              1.785              1.830
 Vibration    14          0.662              1.764              1.734
 Vibration    15          0.678              1.716              1.551
 Vibration    16          0.683              1.700              1.500
 Vibration    17          0.707              1.633              1.304
 Vibration    18          0.738              1.545              1.103
 Vibration    19          0.746              1.523              1.059
 Vibration    20          0.780              1.434              0.903
 Vibration    21          0.799              1.386              0.830
 Vibration    22          0.821              1.331              0.756
 Vibration    23          0.845              1.275              0.686
 Vibration    24          0.862              1.235              0.641
 Vibration    25          0.870              1.216              0.621
 Vibration    26          0.888              1.176              0.579
 Vibration    27          0.933              1.083              0.493
 Vibration    28          0.957              1.034              0.452
 Vibration    29          0.970              1.009              0.432

 Optimization completed.
    -- Stationary point found.
 Normal termination of Gaussian 16 at Sat Dec 12 10:29:40 2020.

 ----------------------------------------------------------------------
 # B3LYP/6-311++G(d,p) empiricaldispersion=gd3bj scf=xqc pop=npa geom=c
 heck
 ----------------------------------------------------------------------

 --------------------------------------
 CID_91249361_JID_9798_Energie_neutraal
 --------------------------------------
 Structure from the checkpoint file:  "JID_9798.chk"
 Charge =  0 Multiplicity = 1

 SCF Done:  E(RB3LYP) =  -856.100436747     A.U. after   16 cycles
 Normal termination of Gaussian 16 at Sat Dec 12 10:38:23 2020.

 ----------------------------------------------------------------------
 # B3LYP/6-311++G(d,p) empiricaldispersion=gd3bj scf=xqc pop=npa geom=c
 heck
 ----------------------------------------------------------------------

 ------------------------------------
 CID_91249361_JID_9798_Energie_kation
 ------------------------------------
 Structure from the checkpoint file:  "JID_9798.chk"
 Charge =  1 Multiplicity = 2

 SCF Done:  E(UB3LYP) =  -855.805828117     A.U. after   26 cycles
 Normal termination of Gaussian 16 at Sat Dec 12 10:58:40 2020.
 Gaussian 16:  ES64L-G16RevA.03 25-Dec-2016

 ----------------------------------------------------------------------
 # B3LYP/6-311++G(d,p) empiricaldispersion=gd3bj scf=xqc pop=npa geom=c
 heck
 ----------------------------------------------------------------------

 -----------------------------------
 CID_91249361_JID_9798_Energie_anion
 -----------------------------------
 Structure from the checkpoint file:  "JID_9798.chk"
 Charge = -1 Multiplicity = 2

                         Standard orientation:
 ---------------------------------------------------------------------
 Center     Atomic      Atomic             Coordinates (Angstroms)
 Number     Number       Type             X           Y           Z
 ---------------------------------------------------------------------
      1          6           0       -4.297960    1.632785   -0.883707
      2          6           0       -4.298946    0.332248   -0.060157
      3          6           0       -5.244393   -0.708616   -0.668309
      4          7           0       -2.965715   -0.247894    0.180485
      5          6           0       -2.198595   -0.560565   -1.020665
      6          6           0       -0.985947   -1.426074   -0.664377
      7          6           0       -0.105886   -0.704393    0.364396
      8          6           0       -0.941469   -0.290091    1.576923
      9          6           0       -2.159516    0.519516    1.127914
     10          7           0        1.030720   -1.537422    0.766809
     11          6           0        2.322583   -1.484839    0.353669
     12          8           0        3.074565   -2.460603    0.396642
     13          6           0        2.897643   -0.201626   -0.151663
     14          6           0        2.716481    1.182695   -0.003617
     15          6           0        3.786653    1.768162   -0.734450
     16          7           0        4.565796    0.842155   -1.282928
     17          7           0        4.009308   -0.322093   -0.913347
     18          6           0        1.743874    1.885810    0.747264
     19          7           0        0.952692    2.486382    1.354662
     20          1           0       -3.982944    1.449847   -1.917426
     21          1           0       -3.627215    2.383264   -0.452342
     22          1           0       -5.304775    2.063592   -0.917130
     23          1           0       -4.683970    0.571766    0.939764
     24          1           0       -4.990056   -0.935794   -1.709937
     25          1           0       -5.205370   -1.638872   -0.093425
     26          1           0       -6.273668   -0.333775   -0.661823
     27          1           0       -1.843222    0.351182   -1.540952
     28          1           0       -2.834958   -1.102567   -1.725335
     29          1           0       -0.401735   -1.651940   -1.564503
     30          1           0       -1.337512   -2.376483   -0.242310
     31          1           0        0.294485    0.192839   -0.109566
     32          1           0       -1.282256   -1.191441    2.102978
     33          1           0       -0.330668    0.300416    2.265092
     34          1           0       -2.781054    0.759329    1.997218
     35          1           0       -1.807152    1.480596    0.707573
     36          1           0        0.791342   -2.465879    1.101602
     37          1           0        4.000178    2.819910   -0.862634
     38          1           0        4.447296   -1.209121   -1.129065
 ---------------------------------------------------------------------

 SCF Done:  E(UB3LYP) =  -856.116048726     A.U. after   32 cycles

 The electronic state is 2-A.
 Alpha  occ. eigenvalues --  -18.94208 -14.24174 -14.20921 -14.20845 -14.20265
 Alpha  occ. eigenvalues --  -14.16943 -10.12630 -10.11713 -10.09998 -10.09985
 Alpha  occ. eigenvalues --  -10.09208 -10.07891 -10.07658 -10.07595 -10.07537
 Alpha  occ. eigenvalues --  -10.07249 -10.06958 -10.06154 -10.05951  -0.92634
 Alpha  occ. eigenvalues --   -0.89605  -0.83890  -0.79904  -0.77248  -0.70830
 Alpha  occ. eigenvalues --   -0.69766  -0.67138  -0.66172  -0.65645  -0.60711
 Alpha  occ. eigenvalues --   -0.55569  -0.53587  -0.53142  -0.49620  -0.49173
 Alpha  occ. eigenvalues --   -0.48456  -0.45773  -0.41782  -0.40445  -0.38280
 Alpha  occ. eigenvalues --   -0.37111  -0.35858  -0.35510  -0.34954  -0.34444
 Alpha  occ. eigenvalues --   -0.33126  -0.32961  -0.32172  -0.31459  -0.31226
 Alpha  occ. eigenvalues --   -0.30420  -0.29356  -0.29066  -0.27641  -0.27174
 Alpha  occ. eigenvalues --   -0.26682  -0.25572  -0.24823  -0.24681  -0.23813
 Alpha  occ. eigenvalues --   -0.23611  -0.22522  -0.22203  -0.20896  -0.17292
 Alpha  occ. eigenvalues --   -0.14634  -0.13743  -0.12975  -0.12495  -0.12181
 Alpha  occ. eigenvalues --    0.03888
 Alpha virt. eigenvalues --    0.05211   0.07412   0.07594   0.08294   0.09639
 Alpha virt. eigenvalues --    0.09758   0.10208   0.10635   0.11190   0.11474
 Alpha virt. eigenvalues --    0.11734   0.12391   0.12629   0.13506   0.13918

  Beta  occ. eigenvalues --  -18.93903 -14.23817 -14.20920 -14.20785 -14.20170
  Beta  occ. eigenvalues --  -14.16728 -10.12379 -10.11710 -10.09993 -10.09982
  Beta  occ. eigenvalues --  -10.09206 -10.07879 -10.07650 -10.07640 -10.07522
  Beta  occ. eigenvalues --  -10.06952 -10.06941 -10.06010 -10.05948  -0.92202
  Beta  occ. eigenvalues --   -0.89087  -0.83879  -0.79648  -0.76925  -0.70786
  Beta  occ. eigenvalues --   -0.69333  -0.66686  -0.66127  -0.65601  -0.60692
  Beta  occ. eigenvalues --   -0.55445  -0.53393  -0.52626  -0.49294  -0.49122
  Beta  occ. eigenvalues --   -0.48312  -0.45701  -0.41636  -0.40335  -0.38227
  Beta  occ. eigenvalues --   -0.37073  -0.35793  -0.35277  -0.34750  -0.34322
  Beta  occ. eigenvalues --   -0.33030  -0.32358  -0.31645  -0.31323  -0.30992
  Beta  occ. eigenvalues --   -0.30380  -0.29301  -0.28982  -0.27427  -0.26648
  Beta  occ. eigenvalues --   -0.26559  -0.25243  -0.24587  -0.24429  -0.23454
  Beta  occ. eigenvalues --   -0.23173  -0.22213  -0.21804  -0.20751  -0.17150
  Beta  occ. eigenvalues --   -0.13671  -0.12877  -0.12425  -0.11698  -0.11215
  Beta virt. eigenvalues --    0.05390   0.07397   0.07527   0.08270   0.09579
  Beta virt. eigenvalues --    0.09753   0.10002   0.10151   0.10546   0.11108
  Beta virt. eigenvalues --    0.11428   0.11735   0.12508   0.12972   0.13446

 Mulliken charges and spin densities:
               1          2
     1  C   -0.182369  -0.353339
     2  C   -0.385871   0.454345
     3  C   -0.117489  -0.397257
     4  N    0.281956  -0.014602
     5  C   -0.520500  -0.019053
     6  C   -0.044680  -0.310560
     7  C   -0.329026   0.061922
     8  C   -0.285017   0.112143
     9  C   -0.394082  -0.045101
    10  N    0.066033   0.034133
    11  C   -0.792655   0.102943
    12  O   -0.420001   0.105780
    13  C    0.106250   0.226046
    14  C    2.168193   0.150982
    15  C    0.174238  -0.016448
    16  N   -0.251436   0.034864
    17  N    0.001154   0.126242
    18  C   -2.187716  -0.023897
    19  N   -0.251334   0.114375
    20  H    0.090534   0.054185
    21  H    0.139036   0.012834
    22  H    0.012044   0.136791
    23  H    0.048571   0.095679
    24  H    0.006964   0.119290
    25  H    0.121956   0.024245
    26  H   -0.042277   0.176132
    27  H    0.088820   0.021602
    28  H    0.143299   0.000597
    29  H    0.170430   0.022889
    30  H    0.133259  -0.012813
    31  H    0.150794  -0.049442
    32  H    0.095261   0.022675
    33  H    0.231579  -0.003784
    34  H    0.125962   0.021807
    35  H    0.101795   0.018650
    36  H    0.276444  -0.000172
    37  H    0.150471   0.003734
    38  H    0.319409  -0.008415
 Sum of Mulliken charges =  -1.00000   1.00000

 Dipole moment (field-independent basis, Debye):
    X=             -7.3234    Y=             -1.0994    Z=             -1.4143  Tot=              7.5393
 Quadrupole moment (field-independent basis, Debye-Ang):
   XX=           -191.0125   YY=           -146.2471   ZZ=           -130.8984
   XY=              4.8137   XZ=             -1.3573   YZ=             -1.6290

 Summary of Natural Population Analysis:

                                       Natural Population
                Natural  -----------------------------------------------
    Atom  No    Charge         Core      Valence    Rydberg      Total
 -----------------------------------------------------------------------
      C    1   -0.29811      0.99965     2.29389    0.00457     3.29811
      C    2   -0.00522      0.99961     1.99248    0.01313     3.00522
      C    3   -0.28765      0.99964     2.28305    0.00496     3.28765
      N    4   -0.28692      0.99970     2.77381    0.01341     3.78692
      C    5   -0.08720      0.99962     2.07774    0.00985     3.08720
      C    6   -0.19040      0.99961     2.18288    0.00791     3.19040
      C    7   -0.01749      0.99956     2.00534    0.01259     3.01749
      C    8   -0.19461      0.99961     2.18599    0.00902     3.19461
      C    9   -0.08484      0.99962     2.07601    0.00921     3.08484
      N   10   -0.30612      0.99966     2.79450    0.01196     3.80612
      C   11    0.35919      0.99963     1.62068    0.02049     2.64081
      O   12   -0.31434      0.99988     3.30857    0.00589     4.31434
      C   13    0.11592      0.99950     1.87366    0.01093     2.88408
      C   14   -0.13005      0.99939     2.12005    0.01060     3.13005
      C   15   -0.01162      0.99962     1.99777    0.01424     3.01162
      N   16   -0.15172      0.99974     2.63834    0.01364     3.65172
      N   17   -0.10871      0.99965     2.59705    0.01202     3.60871
      C   18    0.15030      0.99964     1.83296    0.01710     2.84970
      N   19   -0.18118      0.99979     2.67092    0.01047     3.68118
      H   20    0.09727      0.00000     0.40189    0.00084     0.40273
      H   21    0.10369      0.00000     0.39551    0.00080     0.39631
      H   22    0.09793      0.00000     0.40101    0.00106     0.40207
      H   23    0.08946      0.00000     0.40815    0.00239     0.41054
      H   24    0.09504      0.00000     0.40382    0.00114     0.40496
      H   25    0.10319      0.00000     0.39538    0.00143     0.39681
      H   26    0.09772      0.00000     0.40137    0.00091     0.40228
      H   27    0.08114      0.00000     0.41702    0.00184     0.41886
      H   28    0.09477      0.00000     0.40371    0.00153     0.40523
      H   29    0.10188      0.00000     0.39683    0.00129     0.39812
      H   30    0.09377      0.00000     0.40469    0.00154     0.40623
      H   31    0.10785      0.00000     0.38923    0.00292     0.39215
      H   32    0.09219      0.00000     0.40646    0.00135     0.40781
      H   33    0.11390      0.00000     0.38470    0.00140     0.38610
      H   34    0.09320      0.00000     0.40570    0.00109     0.40680
      H   35    0.08964      0.00000     0.40846    0.00190     0.41036
      H   36    0.18425      0.00000     0.31424    0.00151     0.31575
      H   37    0.09359      0.00000     0.40543    0.00098     0.40641
      H   38    0.20028      0.00000     0.29773    0.00199     0.29972
 =======================================================================
   * Total *   -0.00000     18.99311    50.76697    0.23992    70.00000

 Normal termination of Gaussian 16 at Sat Dec 12 11:23:14 2020.
