 Gaussian 16, Revision A.03,

 -----------------------------------------------------------
 # opt freq B3LYP/6-31G(d) empiricaldispersion=gd3bj scf=xqc
 -----------------------------------------------------------

 -------------------------------
 CID_130007763_JID_4499_neutraal
 -------------------------------
 Symbolic Z-matrix:
 Charge =  0 Multiplicity = 1

 SCF Done:  E(RB3LYP) =  -609.757765627     A.U. after   15 cycles
 SCF Done:  E(RB3LYP) =  -609.763871967     A.U. after   12 cycles
 SCF Done:  E(RB3LYP) =  -609.763870330     A.U. after   12 cycles
 SCF Done:  E(RB3LYP) =  -609.763794019     A.U. after   12 cycles
 SCF Done:  E(RB3LYP) =  -609.763234869     A.U. after   12 cycles
 SCF Done:  E(RB3LYP) =  -609.764087936     A.U. after    9 cycles
 SCF Done:  E(RB3LYP) =  -609.764864644     A.U. after   12 cycles
 SCF Done:  E(RB3LYP) =  -609.764784811     A.U. after   11 cycles
 SCF Done:  E(RB3LYP) =  -609.765023747     A.U. after   10 cycles
 SCF Done:  E(RB3LYP) =  -609.765066491     A.U. after   11 cycles
 SCF Done:  E(RB3LYP) =  -609.765109202     A.U. after    9 cycles
 SCF Done:  E(RB3LYP) =  -609.765111205     A.U. after    9 cycles
 SCF Done:  E(RB3LYP) =  -609.765112044     A.U. after    8 cycles
 SCF Done:  E(RB3LYP) =  -609.765112440     A.U. after    8 cycles
 SCF Done:  E(RB3LYP) =  -609.765112585     A.U. after    7 cycles
 Optimization completed.
    -- Stationary point found.
 Normal termination of Gaussian 16 at Thu Dec 10 09:59:01 2020.

 --------------------------------------------------------------------
 #N Geom=AllCheck Guess=TCheck SCRF=Check GenChk RB3LYP/6-31G(d) Freq
 --------------------------------------------------------------------

 Structure from the checkpoint file:  "JID_4499.chk"
 -------------------------------
 CID_130007763_JID_4499_neutraal
 -------------------------------
 Charge =  0 Multiplicity = 1

 SCF Done:  E(RB3LYP) =  -609.765112585     A.U. after    1 cycles

  Exact polarizability: 188.767  -3.635 136.723  -1.856  -1.341  75.558
 Approx polarizability: 249.385  -2.742 229.351  -3.697  -4.232 109.929

                      1                      2                      3
                      A                      A                      A
 Frequencies --     34.5030                40.8828                91.0046
 Red. masses --      3.8227                 3.5883                 4.0688
 Frc consts  --      0.0027                 0.0035                 0.0199
 IR Inten    --      0.2985                 1.0957                 1.3748

                      4                      5                      6
                      A                      A                      A
 Frequencies --    102.6632               132.3977               191.2522
 Red. masses --      3.1096                 3.4297                 1.1469
 Frc consts  --      0.0193                 0.0354                 0.0247
 IR Inten    --      5.6840                 1.3473                 1.4932

                      7                      8                      9
                      A                      A                      A
 Frequencies --    207.5341               232.8936               239.6394
 Red. masses --      2.2190                 4.1639                 1.2540
 Frc consts  --      0.0563                 0.1331                 0.0424
 IR Inten    --      1.5891                 0.4599                 0.0813

                     10                     11                     12
                      A                      A                      A
 Frequencies --    273.0841               287.5913               326.7637
 Red. masses --      4.3298                 1.0335                 2.8747
 Frc consts  --      0.1902                 0.0504                 0.1808
 IR Inten    --      6.8890                 2.2280                 8.5335

                     13                     14                     15
                      A                      A                      A
 Frequencies --    353.2221               364.7582               378.2443
 Red. masses --      1.4358                 2.9243                 1.9146
 Frc consts  --      0.1055                 0.2292                 0.1614
 IR Inten    --     21.5373                 0.9782                12.7336

                     16                     17                     18
                      A                      A                      A
 Frequencies --    422.2734               433.3175               455.8392
 Red. masses --      3.6540                 2.8534                 2.9244
 Frc consts  --      0.3839                 0.3157                 0.3580
 IR Inten    --      0.8388                 0.5566                 5.8086

                     19                     20                     21
                      A                      A                      A
 Frequencies --    483.1816               520.8584               577.5892
 Red. masses --      3.1176                 2.0925                 1.4823
 Frc consts  --      0.4288                 0.3345                 0.2913
 IR Inten    --      1.2539                32.0028                57.7535

                     22                     23                     24
                      A                      A                      A
 Frequencies --    614.2779               632.6413               648.5424
 Red. masses --      1.6015                 6.0347                 3.3129
 Frc consts  --      0.3560                 1.4231                 0.8210
 IR Inten    --    168.5725                 2.8220                26.8557

                     25                     26                     27
                      A                      A                      A
 Frequencies --    685.6324               739.9927               759.4609
 Red. masses --      4.3306                 3.6176                 2.6699
 Frc consts  --      1.1994                 1.1672                 0.9073
 IR Inten    --     11.0309               100.5873                 1.0184

                     28                     29                     30
                      A                      A                      A
 Frequencies --    781.4378               789.4452               847.1744
 Red. masses --      4.1755                 1.6761                 3.4375
 Frc consts  --      1.5023                 0.6154                 1.4536
 IR Inten    --      4.7360                50.7969                 1.6567

                     31                     32                     33
                      A                      A                      A
 Frequencies --    898.8363               917.2982               925.5712
 Red. masses --      1.3418                 3.4687                 1.7004
 Frc consts  --      0.6387                 1.7196                 0.8583
 IR Inten    --      3.2058                 2.1422                 0.0586

                     34                     35                     36
                      A                      A                      A
 Frequencies --    931.1399               969.2247               973.4632
 Red. masses --      1.7101                 1.3757                 1.1953
 Frc consts  --      0.8736                 0.7614                 0.6674
 IR Inten    --      0.0716                 0.4200                 0.4177

                     37                     38                     39
                      A                      A                      A
 Frequencies --   1003.7396              1007.8034              1056.9893
 Red. masses --      1.2885                 6.1535                 1.8080
 Frc consts  --      0.7649                 3.6823                 1.1901
 IR Inten    --      0.7475                11.2213                11.7174

                     40                     41                     42
                      A                      A                      A
 Frequencies --   1061.7532              1072.3882              1085.0667
 Red. masses --      1.3970                 2.0400                 1.9493
 Frc consts  --      0.9279                 1.3822                 1.3522
 IR Inten    --      2.4891                 3.5235                 2.5817

                     43                     44                     45
                      A                      A                      A
 Frequencies --   1127.9101              1138.2264              1182.2577
 Red. masses --      1.5214                 1.8570                 1.1158
 Frc consts  --      1.1404                 1.4175                 0.9189
 IR Inten    --      7.0309                24.5825                 7.5671

                     46                     47                     48
                      A                      A                      A
 Frequencies --   1253.4200              1255.6208              1257.2690
 Red. masses --      2.7011                 2.4178                 2.7308
 Frc consts  --      2.5003                 2.2459                 2.5433
 IR Inten    --      5.5166               165.0003                17.8057

                     49                     50                     51
                      A                      A                      A
 Frequencies --   1296.2440              1331.0878              1342.2006
 Red. masses --      3.0268                 2.0588                 2.4964
 Frc consts  --      2.9964                 2.1492                 2.6497
 IR Inten    --     14.7346                16.0595                52.4427

                     52                     53                     54
                      A                      A                      A
 Frequencies --   1363.7186              1423.7760              1427.8758
 Red. masses --      2.6109                 1.2486                 1.2203
 Frc consts  --      2.8608                 1.4912                 1.4658
 IR Inten    --    105.8106                 7.2257                 7.2356

                     55                     56                     57
                      A                      A                      A
 Frequencies --   1455.4788              1486.1594              1502.4570
 Red. masses --      1.2201                 2.2982                 2.2299
 Frc consts  --      1.5229                 2.9907                 2.9658
 IR Inten    --      7.8321               225.6872                62.5625

                     58                     59                     60
                      A                      A                      A
 Frequencies --   1505.1112              1513.6753              1516.7141
 Red. masses --      1.0539                 1.0462                 1.0495
 Frc consts  --      1.4066                 1.4123                 1.4225
 IR Inten    --      1.1226                 0.6045                 0.2800

                     61                     62                     63
                      A                      A                      A
 Frequencies --   1531.6066              1532.9803              1546.0266
 Red. masses --      1.0640                 1.0721                 1.0592
 Frc consts  --      1.4706                 1.4844                 1.4917
 IR Inten    --      1.8914                 8.4591                 1.3963

                     64                     65                     66
                      A                      A                      A
 Frequencies --   1578.7804              1636.7079              1656.4407
 Red. masses --      2.4446                 4.8276                 5.1931
 Frc consts  --      3.5901                 7.6194                 8.3951
 IR Inten    --    610.6763               115.5631               141.9568

                     67                     68                     69
                      A                      A                      A
 Frequencies --   1684.2935              1756.7389              3048.1587
 Red. masses --      1.1866                 6.1848                 1.0346
 Frc consts  --      1.9833                11.2458                 5.6639
 IR Inten    --     49.6324               399.2472                27.4230

                     70                     71                     72
                      A                      A                      A
 Frequencies --   3050.9333              3058.4535              3112.0220
 Red. masses --      1.0351                 1.0361                 1.1010
 Frc consts  --      5.6766                 5.7102                 6.2826
 IR Inten    --     22.8865                27.1127                19.1785

                     73                     74                     75
                      A                      A                      A
 Frequencies --   3116.9805              3121.7441              3127.1949
 Red. masses --      1.1022                 1.1016                 1.1027
 Frc consts  --      6.3092                 6.3250                 6.3534
 IR Inten    --     10.5319                52.4525                23.3568

                     76                     77                     78
                      A                      A                      A
 Frequencies --   3129.1090              3132.3754              3168.5196
 Red. masses --      1.1024                 1.1021                 1.0891
 Frc consts  --      6.3597                 6.3710                 6.4422
 IR Inten    --     54.9666                50.0977                33.0581

                     79                     80                     81
                      A                      A                      A
 Frequencies --   3192.0484              3218.0505              3277.4960
 Red. masses --      1.0894                 1.0960                 1.0925
 Frc consts  --      6.5397                 6.6869                 6.9147
 IR Inten    --     15.1534                23.4197                 8.9245

                     82                     83                     84
                      A                      A                      A
 Frequencies --   3551.9486              3598.7432              3687.8657
 Red. masses --      1.0550                 1.0755                 1.0900
 Frc consts  --      7.8420                 8.2068                 8.7341
 IR Inten    --     11.3982                38.2590                18.7779

 - Thermochemistry -
 -------------------
 Temperature   298.150 Kelvin.  Pressure   1.00000 Atm.
 Atom     1 has atomic number  6 and mass  12.00000

 Molecular mass:   192.13750 amu.
 Principal axes and moments of inertia in atomic units:
                           1         2         3
     Eigenvalues --  1258.379614924.960625761.30555
           X            1.00000   0.00142  -0.00070
           Y           -0.00142   0.99999   0.00513
           Z            0.00071  -0.00513   0.99999
 This molecule is an asymmetric top.
 Rotational symmetry number  1.
 Warning -- assumption of classical behavior for rotation
           may cause significant error
 Rotational temperatures (Kelvin)      0.06883     0.01759     0.01503
 Rotational constants (GHZ):           1.43418     0.36645     0.31325
 Zero-point vibrational energy     678556.5 (Joules/Mol)
                                  162.17890 (Kcal/Mol)
 Warning -- explicit consideration of  22 degrees of freedom as
           vibrations may cause significant error
 Vibrational temperatures:     49.64    58.82   130.94   147.71   190.49
          (Kelvin)            275.17   298.60   335.08   344.79   392.91
                              413.78   470.14   508.21   524.81   544.21
                              607.56   623.45   655.85   695.19   749.40
                              831.02   883.81   910.23   933.11   986.47
                             1064.68  1092.69  1124.31  1135.84  1218.89
                             1293.22  1319.79  1331.69  1339.70  1394.50
                             1400.60  1444.16  1450.00  1520.77  1527.63
                             1542.93  1561.17  1622.81  1637.65  1701.01
                             1803.39  1806.56  1808.93  1865.01  1915.14
                             1931.13  1962.09  2048.50  2054.39  2094.11
                             2138.25  2161.70  2165.52  2177.84  2182.21
                             2203.64  2205.62  2224.39  2271.51  2354.86
                             2383.25  2423.32  2527.56  4385.62  4389.61
                             4400.43  4477.51  4484.64  4491.49  4499.34
                             4502.09  4506.79  4558.79  4592.65  4630.06
                             4715.59  5110.46  5177.79  5306.02

 Zero-point correction=                           0.258449 (Hartree/Particle)
 Thermal correction to Energy=                    0.272699
 Thermal correction to Enthalpy=                  0.273643
 Thermal correction to Gibbs Free Energy=         0.217308
 Sum of electronic and zero-point Energies=           -609.506664
 Sum of electronic and thermal Energies=              -609.492413
 Sum of electronic and thermal Enthalpies=            -609.491469
 Sum of electronic and thermal Free Energies=         -609.547805

                     E (Thermal)             CV                S
                      KCal/Mol        Cal/Mol-Kelvin    Cal/Mol-Kelvin
 Total                  171.121             55.090            118.568
 Electronic               0.000              0.000              0.000
 Translational            0.889              2.981             41.665
 Rotational               0.889              2.981             31.946
 Vibrational            169.344             49.129             44.957
 Vibration     1          0.594              1.983              5.552
 Vibration     2          0.594              1.981              5.216
 Vibration     3          0.602              1.956              3.638
 Vibration     4          0.605              1.947              3.403
 Vibration     5          0.613              1.921              2.911
 Vibration     6          0.634              1.852              2.216
 Vibration     7          0.641              1.829              2.065
 Vibration     8          0.654              1.791              1.857
 Vibration     9          0.657              1.780              1.806
 Vibration    10          0.676              1.723              1.577
 Vibration    11          0.685              1.697              1.488
 Vibration    12          0.710              1.622              1.276
 Vibration    13          0.729              1.569              1.152
 Vibration    14          0.738              1.545              1.102
 Vibration    15          0.749              1.517              1.046
 Vibration    16          0.785              1.422              0.884
 Vibration    17          0.794              1.398              0.848
 Vibration    18          0.814              1.348              0.778
 Vibration    19          0.839              1.287              0.702
 Vibration    20          0.876              1.204              0.608
 Vibration    21          0.934              1.080              0.490
 Vibration    22          0.974              1.002              0.426

                           ! Non-Optimized Parameters !
 Normal termination of Gaussian 16 at Thu Dec 10 10:06:51 2020.

 ----------------------------------------------------------------------
 # B3LYP/6-311++G(d,p) empiricaldispersion=gd3bj scf=xqc pop=npa geom=c
 heck
 ----------------------------------------------------------------------

 ---------------------------------------
 CID_130007763_JID_4499_Energie_neutraal
 ---------------------------------------
 Structure from the checkpoint file:  "JID_4499.chk"
 Charge =  0 Multiplicity = 1

 SCF Done:  E(RB3LYP) =  -609.940124085     A.U. after   16 cycles
 Normal termination of Gaussian 16 at Thu Dec 10 10:13:25 2020.

 ----------------------------------------------------------------------
 # B3LYP/6-311++G(d,p) empiricaldispersion=gd3bj scf=xqc pop=npa geom=c
 heck
 ----------------------------------------------------------------------

 -------------------------------------
 CID_130007763_JID_4499_Energie_kation
 -------------------------------------
 Structure from the checkpoint file:  "JID_4499.chk"
 Charge =  1 Multiplicity = 2

 SCF Done:  E(UB3LYP) =  -609.657438303     A.U. after   23 cycles
 Normal termination of Gaussian 16 at Thu Dec 10 10:21:01 2020.
 Gaussian 16:  ES64L-G16RevA.03 25-Dec-2016

 ----------------------------------------------------------------------
 # B3LYP/6-311++G(d,p) empiricaldispersion=gd3bj scf=xqc pop=npa geom=c
 heck
 ----------------------------------------------------------------------

 ------------------------------------
 CID_130007763_JID_4499_Energie_anion
 ------------------------------------
 Structure from the checkpoint file:  "JID_4499.chk"
 Charge = -1 Multiplicity = 2

                         Standard orientation:
 ---------------------------------------------------------------------
 Center     Atomic      Atomic             Coordinates (Angstroms)
 Number     Number       Type             X           Y           Z
 ---------------------------------------------------------------------
      1          6           0        2.570631    2.084292    0.182245
      2          6           0        2.571024    0.550319    0.045033
      3          6           0        3.224949    0.197812   -1.308060
      4          6           0        3.374415   -0.033824    1.225440
      5          7           0        1.157700    0.160322    0.099755
      6          6           0        0.727170   -1.036498   -0.013361
      7          7           0        1.451845   -2.239916   -0.084863
      8          7           0       -0.638520   -1.313449   -0.024984
      9          6           0       -1.735691   -0.454226   -0.007206
     10          6           0       -1.658088    0.942055   -0.146521
     11          6           0       -2.850918    1.654616   -0.142697
     12          6           0       -4.067847    0.984703    0.001139
     13          6           0       -4.026336   -0.400222    0.139330
     14          7           0       -2.897283   -1.114352    0.135865
     15          1           0        3.590570    2.485554    0.170706
     16          1           0        2.088054    2.375734    1.120385
     17          1           0        2.008313    2.536742   -0.641434
     18          1           0        4.228170    0.633654   -1.371308
     19          1           0        3.329551   -0.879903   -1.473447
     20          1           0        2.622250    0.600989   -2.128356
     21          1           0        2.885602    0.226098    2.169784
     22          1           0        3.459221   -1.124644    1.190273
     23          1           0        4.389905    0.378189    1.237934
     24          1           0        1.056375   -2.923745   -0.721322
     25          1           0        2.438471   -2.116414   -0.253611
     26          1           0       -0.911807   -2.267059    0.176279
     27          1           0       -0.690890    1.414296   -0.231624
     28          1           0       -2.827296    2.736085   -0.247857
     29          1           0       -5.014233    1.515202    0.010845
     30          1           0       -4.944302   -0.973167    0.260279
 ---------------------------------------------------------------------

 SCF Done:  E(UB3LYP) =  -609.928822258     A.U. after   33 cycles
 SCF Done:  E(UB3LYP) =  -609.928822258     a.u. after    1 cycles

 The electronic state is 2-A.
 Alpha  occ. eigenvalues --  -14.24212 -14.21909 -14.21026 -14.17081 -10.17365
 Alpha  occ. eigenvalues --  -10.15207 -10.11257 -10.11000 -10.09227 -10.07996
 Alpha  occ. eigenvalues --  -10.07332 -10.05833 -10.05513 -10.05327  -0.89784
 Alpha  occ. eigenvalues --   -0.85265  -0.79033  -0.77276  -0.70696  -0.68431
 Alpha  occ. eigenvalues --   -0.65541  -0.58893  -0.58384  -0.55966  -0.53955
 Alpha  occ. eigenvalues --   -0.50195  -0.47012  -0.43508  -0.42042  -0.40785
 Alpha  occ. eigenvalues --   -0.38179  -0.37564  -0.36297  -0.34838  -0.34102
 Alpha  occ. eigenvalues --   -0.33550  -0.32685  -0.30606  -0.30272  -0.29449
 Alpha  occ. eigenvalues --   -0.28212  -0.27725  -0.27231  -0.26522  -0.23908
 Alpha  occ. eigenvalues --   -0.23295  -0.21238  -0.18964  -0.17380  -0.15275
 Alpha  occ. eigenvalues --   -0.14001  -0.12105   0.04314
 Alpha virt. eigenvalues --    0.05878   0.06309   0.07033   0.07872   0.08126
 Alpha virt. eigenvalues --    0.08637   0.08895   0.09901   0.10343   0.10656
 Alpha virt. eigenvalues --    0.11379   0.11818   0.12999   0.13413   0.13616

  Beta  occ. eigenvalues --  -14.24198 -14.21832 -14.20995 -14.17078 -10.17355
  Beta  occ. eigenvalues --  -10.15208 -10.11242 -10.11000 -10.09194 -10.07994
  Beta  occ. eigenvalues --  -10.07321 -10.05808 -10.05467 -10.05307  -0.89750
  Beta  occ. eigenvalues --   -0.85216  -0.79000  -0.77195  -0.70644  -0.68397
  Beta  occ. eigenvalues --   -0.65503  -0.58832  -0.58329  -0.55932  -0.53887
  Beta  occ. eigenvalues --   -0.50154  -0.46959  -0.43435  -0.41957  -0.40730
  Beta  occ. eigenvalues --   -0.38139  -0.37509  -0.36263  -0.34791  -0.34075
  Beta  occ. eigenvalues --   -0.33505  -0.32641  -0.30562  -0.30224  -0.29418
  Beta  occ. eigenvalues --   -0.28182  -0.27668  -0.27205  -0.26488  -0.23875
  Beta  occ. eigenvalues --   -0.23261  -0.21174  -0.18827  -0.17339  -0.15235
  Beta  occ. eigenvalues --   -0.13967  -0.12067
  Beta virt. eigenvalues --    0.06236   0.06525   0.06950   0.07813   0.08175
  Beta virt. eigenvalues --    0.08595   0.09029   0.09188   0.10379   0.10637
  Beta virt. eigenvalues --    0.11160   0.11562   0.12163   0.13094   0.13644

 Mulliken charges and spin densities:
               1          2
     1  C   -0.075968  -0.360250
     2  C   -1.575743   1.312130
     3  C    1.139926  -1.527216
     4  C    0.788924  -1.146671
     5  N    0.173134  -0.129864
     6  C    0.886829  -0.953876
     7  N   -0.371980   0.136195
     8  N   -0.064858  -0.154033
     9  C   -1.709106   0.559390
    10  C    0.869008   0.215351
    11  C   -0.484600  -0.285777
    12  C    1.198379  -1.135011
    13  C   -0.346604   0.182818
    14  N   -0.114157   0.085406
    15  H    0.024199   0.093105
    16  H    0.001857   0.147348
    17  H   -0.054901   0.194329
    18  H   -0.205462   0.356602
    19  H   -0.633500   0.754659
    20  H   -0.079417   0.236595
    21  H    0.091953   0.053709
    22  H   -0.329547   0.448570
    23  H   -0.044652   0.191275
    24  H   -0.541149   0.802417
    25  H    0.263107  -0.000119
    26  H    0.121449   0.177954
    27  H    0.542617  -0.235125
    28  H   -0.296644   0.469727
    29  H   -0.136367   0.288465
    30  H   -0.036726   0.221896
 Sum of Mulliken charges =  -1.00000   1.00000

 Dipole moment (field-independent basis, Debye):
    X=             -3.2974    Y=              3.3914    Z=              2.2586  Tot=              5.2418
 Quadrupole moment (field-independent basis, Debye-Ang):
   XX=           -157.3302   YY=           -133.5312   ZZ=           -115.3149
   XY=              9.2944   XZ=              5.8781   YZ=             -5.6851

 Summary of Natural Population Analysis:

                                       Natural Population
                Natural  -----------------------------------------------
    Atom  No    Charge         Core      Valence    Rydberg      Total
 -----------------------------------------------------------------------
      C    1   -0.27779      0.99962     2.27175    0.00642     3.27779
      C    2    0.04229      0.99959     1.94407    0.01405     2.95771
      C    3   -0.28869      0.99962     2.28209    0.00699     3.28869
      C    4   -0.28900      0.99962     2.28268    0.00670     3.28900
      N    5   -0.31168      0.99962     2.79947    0.01259     3.81168
      C    6    0.31817      0.99958     1.66627    0.01597     2.68183
      N    7   -0.41517      0.99972     2.90543    0.01001     3.91517
      N    8   -0.30588      0.99963     2.79541    0.01084     3.80588
      C    9    0.20443      0.99953     1.78125    0.01478     2.79557
      C   10   -0.13542      0.99951     2.12777    0.00814     3.13542
      C   11   -0.07361      0.99957     2.06450    0.00954     3.07361
      C   12   -0.14730      0.99956     2.13788    0.00986     3.14730
      C   13    0.03193      0.99959     1.95416    0.01431     2.96807
      N   14   -0.25333      0.99968     2.74320    0.01045     3.75333
      H   15    0.09409      0.00000     0.40512    0.00080     0.40591
      H   16    0.10042      0.00000     0.39856    0.00102     0.39958
      H   17    0.10039      0.00000     0.39855    0.00106     0.39961
      H   18    0.09977      0.00000     0.39905    0.00119     0.40023
      H   19    0.09760      0.00000     0.40015    0.00225     0.40240
      H   20    0.10317      0.00000     0.39570    0.00113     0.39683
      H   21    0.10159      0.00000     0.39755    0.00086     0.39841
      H   22    0.09876      0.00000     0.40010    0.00115     0.40124
      H   23    0.09879      0.00000     0.40031    0.00090     0.40121
      H   24    0.19397      0.00000     0.29727    0.00876     0.30603
      H   25    0.19436      0.00000     0.30161    0.00403     0.30564
      H   26    0.19923      0.00000     0.29709    0.00369     0.30077
      H   27    0.12840      0.00000     0.37010    0.00150     0.37160
      H   28    0.10026      0.00000     0.39886    0.00089     0.39974
      H   29    0.10205      0.00000     0.39692    0.00103     0.39795
      H   30    0.08819      0.00000     0.41074    0.00106     0.41181
 =======================================================================
   * Total *    0.00000     13.99444    37.82359    0.18197    52.00000

 Normal termination of Gaussian 16 at Thu Dec 10 10:36:39 2020.
