 Gaussian 16, Revision A.03,

 -----------------------------------------------------------
 # opt freq B3LYP/6-31G(d) empiricaldispersion=gd3bj scf=xqc
 -----------------------------------------------------------

 ------------------------------
 CID_66440710_JID_9763_neutraal
 ------------------------------
 Symbolic Z-matrix:
 Charge =  0 Multiplicity = 1

 SCF Done:  E(RB3LYP) =  -787.872928273     A.U. after   15 cycles
 SCF Done:  E(RB3LYP) =  -787.879942681     A.U. after   12 cycles
 SCF Done:  E(RB3LYP) =  -787.880721753     A.U. after   12 cycles
 SCF Done:  E(RB3LYP) =  -787.881739718     A.U. after   11 cycles
 SCF Done:  E(RB3LYP) =  -787.882131435     A.U. after   11 cycles
 SCF Done:  E(RB3LYP) =  -787.882323169     A.U. after   12 cycles
 SCF Done:  E(RB3LYP) =  -787.882400389     A.U. after   10 cycles
 SCF Done:  E(RB3LYP) =  -787.882436757     A.U. after   10 cycles
 SCF Done:  E(RB3LYP) =  -787.882443657     A.U. after   10 cycles
 SCF Done:  E(RB3LYP) =  -787.882446363     A.U. after    8 cycles
 SCF Done:  E(RB3LYP) =  -787.882526838     A.U. after   10 cycles
 SCF Done:  E(RB3LYP) =  -787.882527434     A.U. after   10 cycles
 SCF Done:  E(RB3LYP) =  -787.882529324     A.U. after    9 cycles
 SCF Done:  E(RB3LYP) =  -787.882529730     A.U. after    8 cycles
 SCF Done:  E(RB3LYP) =  -787.882529731     A.U. after    6 cycles
 Optimization completed.
    -- Stationary point found.
 Normal termination of Gaussian 16 at Sat Dec 12 10:31:19 2020.

 --------------------------------------------------------------------
 #N Geom=AllCheck Guess=TCheck SCRF=Check GenChk RB3LYP/6-31G(d) Freq
 --------------------------------------------------------------------

 Structure from the checkpoint file:  "JID_9763.chk"
 ------------------------------
 CID_66440710_JID_9763_neutraal
 ------------------------------
 Charge =  0 Multiplicity = 1

 SCF Done:  E(RB3LYP) =  -787.882529731     A.U. after    1 cycles

  Exact polarizability: 252.004  -6.828 182.991  -9.453  -1.599 132.346
 Approx polarizability: 333.570 -11.724 296.043 -14.931  -1.749 194.121

                      1                      2                      3
                      A                      A                      A
 Frequencies --     26.5619                27.0061                32.6844
 Red. masses --      2.7878                 1.1117                 3.4267
 Frc consts  --      0.0012                 0.0005                 0.0022
 IR Inten    --      0.2070                 0.0942                 0.2407

                      4                      5                      6
                      A                      A                      A
 Frequencies --     37.2346                45.5356                58.6145
 Red. masses --      3.5232                 1.0221                 3.7597
 Frc consts  --      0.0029                 0.0012                 0.0076
 IR Inten    --      0.2989                 0.4436                 2.2697

                      7                      8                      9
                      A                      A                      A
 Frequencies --     77.9679                91.7494               106.8179
 Red. masses --      2.7601                 2.2634                 2.5352
 Frc consts  --      0.0099                 0.0112                 0.0170
 IR Inten    --      2.0327                 0.8698                 0.8005

                     10                     11                     12
                      A                      A                      A
 Frequencies --    123.9598               148.1685               188.0438
 Red. masses --      4.0119                 2.1093                 3.2315
 Frc consts  --      0.0363                 0.0273                 0.0673
 IR Inten    --      0.3020                 0.6332                 2.2111

                     13                     14                     15
                      A                      A                      A
 Frequencies --    221.1689               221.7563               240.7082
 Red. masses --      2.9937                 1.9467                 2.8948
 Frc consts  --      0.0863                 0.0564                 0.0988
 IR Inten    --      0.5349                 0.0507                 1.3427

                     16                     17                     18
                      A                      A                      A
 Frequencies --    250.9477               255.3149               273.4022
 Red. masses --      2.0497                 1.3149                 2.0384
 Frc consts  --      0.0761                 0.0505                 0.0898
 IR Inten    --      0.9013                 1.0937                 1.1410

                     19                     20                     21
                      A                      A                      A
 Frequencies --    300.0157               320.2586               337.5280
 Red. masses --      2.9793                 3.4161                 3.1531
 Frc consts  --      0.1580                 0.2064                 0.2116
 IR Inten    --      0.1355                 1.3046                 0.1696

                     22                     23                     24
                      A                      A                      A
 Frequencies --    354.7399               412.9830               432.4771
 Red. masses --      3.6815                 4.1039                 2.4488
 Frc consts  --      0.2730                 0.4124                 0.2699
 IR Inten    --      0.2535                 0.3830                 0.3233

                     25                     26                     27
                      A                      A                      A
 Frequencies --    467.8899               514.7770               525.7664
 Red. masses --      3.3810                 4.1161                 3.2231
 Frc consts  --      0.4361                 0.6427                 0.5249
 IR Inten    --      0.0480                 3.0891                 0.3482

                     28                     29                     30
                      A                      A                      A
 Frequencies --    535.1764               558.4276               605.5158
 Red. masses --      4.2698                 4.3595                 3.8444
 Frc consts  --      0.7205                 0.8010                 0.8305
 IR Inten    --      0.8934                 1.9559                 1.8033

                     31                     32                     33
                      A                      A                      A
 Frequencies --    663.8417               678.0844               697.1027
 Red. masses --      4.1160                 4.1035                 3.6543
 Frc consts  --      1.0687                 1.1117                 1.0463
 IR Inten    --      3.3635                 5.1382                 9.6841

                     34                     35                     36
                      A                      A                      A
 Frequencies --    716.7893               776.7210               816.0484
 Red. masses --      2.6990                 2.5204                 1.3466
 Frc consts  --      0.8170                 0.8959                 0.5284
 IR Inten    --      4.3551                 5.4291                75.9884

                     37                     38                     39
                      A                      A                      A
 Frequencies --    825.4872               866.4138               869.7401
 Red. masses --      1.6642                 2.0811                 1.6155
 Frc consts  --      0.6681                 0.9204                 0.7200
 IR Inten    --     14.9078                15.5786                14.1276

                     40                     41                     42
                      A                      A                      A
 Frequencies --    872.1451               874.5995               892.0472
 Red. masses --      2.0021                 1.8638                 1.3282
 Frc consts  --      0.8972                 0.8400                 0.6227
 IR Inten    --     10.5293                12.9484                 0.0910

                     43                     44                     45
                      A                      A                      A
 Frequencies --    906.8188               913.3285               975.0707
 Red. masses --      1.5739                 1.4057                 3.7245
 Frc consts  --      0.7625                 0.6909                 2.0864
 IR Inten    --      8.4963                 6.3524                 3.3410

                     46                     47                     48
                      A                      A                      A
 Frequencies --    982.2077               998.2781              1002.8960
 Red. masses --      2.1336                 1.5461                 2.0512
 Frc consts  --      1.2128                 0.9078                 1.2155
 IR Inten    --      2.8085                34.8229                10.5676

                     49                     50                     51
                      A                      A                      A
 Frequencies --   1024.8278              1031.2741              1048.3882
 Red. masses --      5.3942                 1.6914                 1.4759
 Frc consts  --      3.3380                 1.0598                 0.9557
 IR Inten    --      0.1951                 2.4205                 0.8230

                     52                     53                     54
                      A                      A                      A
 Frequencies --   1056.5066              1075.1132              1076.7401
 Red. masses --      1.9257                 1.5250                 1.5125
 Frc consts  --      1.2664                 1.0386                 1.0331
 IR Inten    --      3.7398                13.6134                 2.5461

                     55                     56                     57
                      A                      A                      A
 Frequencies --   1106.0143              1126.1756              1136.7246
 Red. masses --      1.9752                 1.6616                 2.2685
 Frc consts  --      1.4236                 1.2416                 1.7270
 IR Inten    --      0.9279                 2.6757                11.3478

                     58                     59                     60
                      A                      A                      A
 Frequencies --   1158.7751              1162.3839              1181.6350
 Red. masses --      1.9658                 2.4085                 2.1314
 Frc consts  --      1.5552                 1.9173                 1.7534
 IR Inten    --      2.2456                39.9057                 3.1661

                     61                     62                     63
                      A                      A                      A
 Frequencies --   1194.9352              1201.6789              1226.5668
 Red. masses --      1.6888                 1.4127                 1.8037
 Frc consts  --      1.4207                 1.2020                 1.5988
 IR Inten    --      8.9569                 0.1033                14.6554

                     64                     65                     66
                      A                      A                      A
 Frequencies --   1259.3666              1273.1713              1296.2001
 Red. masses --      1.9161                 1.9317                 1.3368
 Frc consts  --      1.7905                 1.8449                 1.3233
 IR Inten    --      3.0645                 1.6318                 3.3458

                     67                     68                     69
                      A                      A                      A
 Frequencies --   1306.7021              1317.9994              1339.6914
 Red. masses --      1.2402                 1.5130                 3.3481
 Frc consts  --      1.2476                 1.5486                 3.5404
 IR Inten    --      1.3403                 1.7439                 3.4397

                     70                     71                     72
                      A                      A                      A
 Frequencies --   1362.6640              1376.3040              1382.2651
 Red. masses --      4.1474                 1.6126                 1.5210
 Frc consts  --      4.5374                 1.7997                 1.7123
 IR Inten    --      1.8476                14.2759                 8.0010

                     73                     74                     75
                      A                      A                      A
 Frequencies --   1395.3354              1436.1642              1440.5019
 Red. masses --      1.4420                 3.1623                 1.6472
 Frc consts  --      1.6541                 3.8429                 2.0138
 IR Inten    --      9.2134                60.6556                 5.4461

                     76                     77                     78
                      A                      A                      A
 Frequencies --   1441.6342              1442.8446              1446.9040
 Red. masses --      1.2497                 1.2852                 1.9625
 Frc consts  --      1.5302                 1.5764                 2.4207
 IR Inten    --      0.3395                 5.1367                11.9417

                     79                     80                     81
                      A                      A                      A
 Frequencies --   1481.4222              1488.2899              1495.9082
 Red. masses --      1.2624                 1.9500                 2.3037
 Frc consts  --      1.6324                 2.5449                 3.0373
 IR Inten    --      0.9962                36.1531                 6.9462

                     82                     83                     84
                      A                      A                      A
 Frequencies --   1501.6298              1514.6781              1518.2027
 Red. masses --      1.3034                 1.6963                 1.0501
 Frc consts  --      1.7316                 2.2930                 1.4260
 IR Inten    --     29.4555                11.3587                13.2488

                     85                     86                     87
                      A                      A                      A
 Frequencies --   1518.6222              1519.2654              1522.9588
 Red. masses --      1.1223                 1.0685                 1.0826
 Frc consts  --      1.5250                 1.4531                 1.4794
 IR Inten    --      0.1819                 0.4044                 0.2428

                     88                     89                     90
                      A                      A                      A
 Frequencies --   1523.9739              1532.2505              1533.6070
 Red. masses --      1.1639                 1.4148                 1.1130
 Frc consts  --      1.5927                 1.9571                 1.5423
 IR Inten    --      1.6561                 1.2645                15.6049

                     91                     92                     93
                      A                      A                      A
 Frequencies --   1537.6311              1541.5529              1542.4121
 Red. masses --      1.0895                 1.4159                 1.2206
 Frc consts  --      1.5176                 1.9825                 1.7110
 IR Inten    --     18.0490                63.5045                16.0191

                     94                     95                     96
                      A                      A                      A
 Frequencies --   1550.1360              1620.5600              1660.5361
 Red. masses --      1.0729                 6.5591                 5.6521
 Frc consts  --      1.5190                10.1490                 9.1824
 IR Inten    --      1.1076                26.5890                80.1010

                     97                     98                     99
                      A                      A                      A
 Frequencies --   1668.2931              2934.6157              2952.9244
 Red. masses --      6.1547                 1.0739                 1.0611
 Frc consts  --     10.0925                 5.4491                 5.4513
 IR Inten    --     31.5840                64.5999               147.7645

                    100                    101                    102
                      A                      A                      A
 Frequencies --   3027.9067              3043.1338              3044.9683
 Red. masses --      1.0852                 1.0407                 1.0404
 Frc consts  --      5.8618                 5.6782                 5.6833
 IR Inten    --     30.0464                30.0429                29.6534

                    103                    104                    105
                      A                      A                      A
 Frequencies --   3045.2951              3045.5458              3071.8920
 Red. masses --      1.0530                 1.0449                 1.0714
 Frc consts  --      5.7535                 5.7105                 5.9571
 IR Inten    --     20.3029                35.4581                23.2898

                    106                    107                    108
                      A                      A                      A
 Frequencies --   3072.2135              3082.3904              3101.1455
 Red. masses --      1.0734                 1.0912                 1.0955
 Frc consts  --      5.9689                 6.1085                 6.2075
 IR Inten    --     32.8199                19.5720                19.6019

                    109                    110                    111
                      A                      A                      A
 Frequencies --   3102.9058              3109.7399              3117.7393
 Red. masses --      1.0963                 1.1020                 1.1011
 Frc consts  --      6.2188                 6.2791                 6.3061
 IR Inten    --     19.9845                30.7067                24.7819

                    112                    113                    114
                      A                      A                      A
 Frequencies --   3121.4637              3121.5237              3128.3990
 Red. masses --      1.1022                 1.1021                 1.1028
 Frc consts  --      6.3274                 6.3269                 6.3590
 IR Inten    --     42.8575                33.7210                12.0635

                    115                    116                    117
                      A                      A                      A
 Frequencies --   3128.7928              3174.2006              3211.4195
 Red. masses --      1.1029                 1.0899                 1.0907
 Frc consts  --      6.3615                 6.4702                 6.6274
 IR Inten    --     19.7054                21.7795                 6.6715

                    118                    119                    120
                      A                      A                      A
 Frequencies --   3220.7080              3242.6880              3492.8468
 Red. masses --      1.0912                 1.0958                 1.0743
 Frc consts  --      6.6691                 6.7888                 7.7222
 IR Inten    --      1.6188                11.9768                 0.2005

 - Thermochemistry -
 -------------------
 Temperature   298.150 Kelvin.  Pressure   1.00000 Atm.
 Atom     1 has atomic number  6 and mass  12.00000

 Molecular mass:   257.18920 amu.
 Principal axes and moments of inertia in atomic units:
                           1         2         3
     Eigenvalues --  2678.494149041.254439492.81445
           X            1.00000   0.00278   0.00033
           Y           -0.00274   0.99720  -0.07474
           Z           -0.00054   0.07474   0.99720
 This molecule is an asymmetric top.
 Rotational symmetry number  1.
 Warning -- assumption of classical behavior for rotation
           may cause significant error
 Rotational temperatures (Kelvin)      0.03234     0.00958     0.00912
 Rotational constants (GHZ):           0.67379     0.19961     0.19012
 Zero-point vibrational energy     964864.2 (Joules/Mol)
                                  230.60807 (Kcal/Mol)
 Warning -- explicit consideration of  30 degrees of freedom as
           vibrations may cause significant error
 Vibrational temperatures:     38.22    38.86    47.03    53.57    65.52
          (Kelvin)             84.33   112.18   132.01   153.69   178.35
                              213.18   270.55   318.21   319.06   346.33
                              361.06   367.34   393.36   431.66   460.78
                              485.63   510.39   594.19   622.24   673.19
                              740.65   756.46   770.00   803.45   871.20
                              955.12   975.61  1002.98  1031.30  1117.53
                             1174.11  1187.69  1246.58  1251.36  1254.82
                             1258.35  1283.46  1304.71  1314.08  1402.91
                             1413.18  1436.30  1442.94  1474.50  1483.77
                             1508.40  1520.08  1546.85  1549.19  1591.31
                             1620.32  1635.49  1667.22  1672.41  1700.11
                             1719.25  1728.95  1764.76  1811.95  1831.81
                             1864.94  1880.05  1896.31  1927.52  1960.57
                             1980.19  1988.77  2007.58  2066.32  2072.56
                             2074.19  2075.93  2081.77  2131.44  2141.32
                             2152.28  2160.51  2179.28  2184.36  2184.96
                             2185.88  2191.20  2192.66  2204.57  2206.52
                             2212.31  2217.95  2219.19  2230.30  2331.62
                             2389.14  2400.30  4222.26  4248.60  4356.48
                             4378.39  4381.03  4381.50  4381.86  4419.77
                             4420.23  4434.87  4461.86  4464.39  4474.22
                             4485.73  4491.09  4491.18  4501.07  4501.63
                             4566.97  4620.52  4633.88  4665.50  5025.43

 Zero-point correction=                           0.367497 (Hartree/Particle)
 Thermal correction to Energy=                    0.387788
 Thermal correction to Enthalpy=                  0.388732
 Thermal correction to Gibbs Free Energy=         0.315729
 Sum of electronic and zero-point Energies=           -787.515032
 Sum of electronic and thermal Energies=              -787.494742
 Sum of electronic and thermal Enthalpies=            -787.493798
 Sum of electronic and thermal Free Energies=         -787.566801

                     E (Thermal)             CV                S
                      KCal/Mol        Cal/Mol-Kelvin    Cal/Mol-Kelvin
 Total                  243.340             73.999            153.648
 Electronic               0.000              0.000              0.000
 Translational            0.889              2.981             42.534
 Rotational               0.889              2.981             33.796
 Vibrational            241.563             68.037             77.317
 Vibration     1          0.593              1.984              6.071
 Vibration     2          0.593              1.984              6.038
 Vibration     3          0.594              1.983              5.659
 Vibration     4          0.594              1.982              5.401
 Vibration     5          0.595              1.979              5.002
 Vibration     6          0.596              1.974              4.503
 Vibration     7          0.599              1.964              3.941
 Vibration     8          0.602              1.955              3.622
 Vibration     9          0.606              1.944              3.326
 Vibration    10          0.610              1.929              3.038
 Vibration    11          0.618              1.905              2.696
 Vibration    12          0.633              1.856              2.247
 Vibration    13          0.648              1.809              1.950
 Vibration    14          0.648              1.808              1.945
 Vibration    15          0.658              1.778              1.798
 Vibration    16          0.663              1.761              1.724
 Vibration    17          0.666              1.754              1.694
 Vibration    18          0.676              1.722              1.575
 Vibration    19          0.693              1.674              1.417
 Vibration    20          0.706              1.635              1.309
 Vibration    21          0.718              1.601              1.224
 Vibration    22          0.731              1.566              1.145
 Vibration    23          0.777              1.442              0.916
 Vibration    24          0.793              1.399              0.851
 Vibration    25          0.825              1.321              0.743
 Vibration    26          0.870              1.217              0.622
 Vibration    27          0.881              1.193              0.597
 Vibration    28          0.890              1.172              0.576
 Vibration    29          0.914              1.121              0.527
 Vibration    30          0.964              1.020              0.440

 Optimization completed.
    -- Stationary point found.
 Normal termination of Gaussian 16 at Sat Dec 12 10:51:37 2020.

 ----------------------------------------------------------------------
 # B3LYP/6-311++G(d,p) empiricaldispersion=gd3bj scf=xqc pop=npa geom=c
 heck
 ----------------------------------------------------------------------

 --------------------------------------
 CID_66440710_JID_9763_Energie_neutraal
 --------------------------------------
 Structure from the checkpoint file:  "JID_9763.chk"
 Charge =  0 Multiplicity = 1

 SCF Done:  E(RB3LYP) =  -788.089651557     A.U. after   16 cycles
 Normal termination of Gaussian 16 at Sat Dec 12 11:00:23 2020.

 ----------------------------------------------------------------------
 # B3LYP/6-311++G(d,p) empiricaldispersion=gd3bj scf=xqc pop=npa geom=c
 heck
 ----------------------------------------------------------------------

 ------------------------------------
 CID_66440710_JID_9763_Energie_kation
 ------------------------------------
 Structure from the checkpoint file:  "JID_9763.chk"
 Charge =  1 Multiplicity = 2

 SCF Done:  E(UB3LYP) =  -787.805654125     A.U. after   32 cycles
 Normal termination of Gaussian 16 at Sat Dec 12 11:23:53 2020.
 Gaussian 16:  ES64L-G16RevA.03 25-Dec-2016

 ----------------------------------------------------------------------
 # B3LYP/6-311++G(d,p) empiricaldispersion=gd3bj scf=xqc pop=npa geom=c
 heck
 ----------------------------------------------------------------------

 -----------------------------------
 CID_66440710_JID_9763_Energie_anion
 -----------------------------------
 Structure from the checkpoint file:  "JID_9763.chk"
 Charge = -1 Multiplicity = 2

                         Standard orientation:
 ---------------------------------------------------------------------
 Center     Atomic      Atomic             Coordinates (Angstroms)
 Number     Number       Type             X           Y           Z
 ---------------------------------------------------------------------
      1          6           0        1.393047   -0.050606    2.941145
      2          6           0        0.595073    0.978039    2.137613
      3          6           0        1.161358    1.211541    0.721319
      4          6           0        1.174861   -0.030360   -0.118332
      5          6           0        2.246046   -0.846319   -0.462555
      6          6           0        1.661766   -1.951176   -1.124745
      7          7           0        0.338132   -1.859198   -1.191180
      8          7           0        0.051775   -0.673675   -0.579811
      9          6           0       -1.308824   -0.285119   -0.443271
     10          6           0       -2.225960   -1.212110    0.052505
     11          6           0       -3.568479   -0.856793    0.199409
     12          6           0       -3.961814    0.442681   -0.141294
     13          6           0       -3.053331    1.378127   -0.645890
     14          6           0       -1.718350    0.996642   -0.809751
     15          6           0       -3.496667    2.777693   -0.996865
     16          6           0       -4.577119   -1.863711    0.696339
     17          6           0        3.697877   -0.614893   -0.172136
     18          7           0        4.148768    0.687332   -0.670163
     19          6           0        5.584237    0.880767   -0.515146
     20          1           0        1.394213   -1.025548    2.441706
     21          1           0        0.970728   -0.184982    3.943044
     22          1           0        2.437385    0.265110    3.056086
     23          1           0       -0.451368    0.658316    2.061938
     24          1           0        0.589760    1.939910    2.666202
     25          1           0        0.589559    2.008686    0.235558
     26          1           0        2.196140    1.563419    0.778338
     27          1           0        2.161715   -2.809777   -1.556318
     28          1           0       -1.877738   -2.206645    0.309264
     29          1           0       -5.003882    0.730043   -0.018200
     30          1           0       -1.002768    1.687153   -1.243111
     31          1           0       -4.555867    2.804340   -1.271750
     32          1           0       -3.361413    3.459882   -0.147242
     33          1           0       -2.917638    3.182219   -1.833638
     34          1           0       -5.415315   -1.373894    1.202421
     35          1           0       -4.991876   -2.447600   -0.135628
     36          1           0       -4.122618   -2.572766    1.395739
     37          1           0        3.884172   -0.627138    0.911530
     38          1           0        4.283739   -1.456611   -0.589572
     39          1           0        3.892512    0.760349   -1.653060
     40          1           0        6.201432    0.086870   -0.976571
     41          1           0        5.875001    1.841559   -0.951660
     42          1           0        5.831079    0.909480    0.552938
 ---------------------------------------------------------------------

 SCF Done:  E(UB3LYP) =  -788.078246722     A.U. after   33 cycles
 SCF Done:  E(UB3LYP) =  -788.078246722     a.u. after    1 cycles

 The electronic state is 2-A.
 Alpha  occ. eigenvalues --  -14.28716 -14.22333 -14.20615 -10.11628 -10.10541
 Alpha  occ. eigenvalues --  -10.10476 -10.09421 -10.09153 -10.09104 -10.08795
 Alpha  occ. eigenvalues --  -10.08283 -10.07691 -10.07648 -10.07478 -10.07380
 Alpha  occ. eigenvalues --  -10.07183 -10.07074 -10.06677 -10.06275  -0.94641
 Alpha  occ. eigenvalues --   -0.81333  -0.78084  -0.73774  -0.71654  -0.69349
 Alpha  occ. eigenvalues --   -0.67225  -0.65456  -0.61390  -0.60118  -0.59407
 Alpha  occ. eigenvalues --   -0.58763  -0.54824  -0.52618  -0.50166  -0.49351
 Alpha  occ. eigenvalues --   -0.47469  -0.45012  -0.41127  -0.40050  -0.39582
 Alpha  occ. eigenvalues --   -0.39082  -0.36473  -0.35690  -0.35028  -0.34586
 Alpha  occ. eigenvalues --   -0.34150  -0.33627  -0.32806  -0.32663  -0.32228
 Alpha  occ. eigenvalues --   -0.31618  -0.30953  -0.30729  -0.29984  -0.28837
 Alpha  occ. eigenvalues --   -0.28190  -0.28062  -0.27470  -0.26188  -0.26013
 Alpha  occ. eigenvalues --   -0.25432  -0.24802  -0.24057  -0.23685  -0.19153
 Alpha  occ. eigenvalues --   -0.17844  -0.15092  -0.14224  -0.13689  -0.13282
 Alpha  occ. eigenvalues --    0.04057
 Alpha virt. eigenvalues --    0.05552   0.06331   0.06643   0.06918   0.07510
 Alpha virt. eigenvalues --    0.07876   0.07946   0.08724   0.09050   0.09297
 Alpha virt. eigenvalues --    0.09937   0.09959   0.10623   0.10871   0.11033

  Beta  occ. eigenvalues --  -14.28711 -14.22278 -14.20601 -10.11544 -10.10485
  Beta  occ. eigenvalues --  -10.10467 -10.09386 -10.09150 -10.09104 -10.08796
  Beta  occ. eigenvalues --  -10.08271 -10.07663 -10.07628 -10.07467 -10.07376
  Beta  occ. eigenvalues --  -10.07113 -10.07057 -10.06674 -10.06259  -0.94577
  Beta  occ. eigenvalues --   -0.81309  -0.77993  -0.73697  -0.71581  -0.69304
  Beta  occ. eigenvalues --   -0.67183  -0.65392  -0.61339  -0.60044  -0.59349
  Beta  occ. eigenvalues --   -0.58713  -0.54737  -0.52532  -0.50107  -0.49313
  Beta  occ. eigenvalues --   -0.47425  -0.44943  -0.41074  -0.39990  -0.39527
  Beta  occ. eigenvalues --   -0.39028  -0.36414  -0.35649  -0.34991  -0.34511
  Beta  occ. eigenvalues --   -0.34082  -0.33575  -0.32751  -0.32626  -0.32174
  Beta  occ. eigenvalues --   -0.31589  -0.30914  -0.30690  -0.29952  -0.28793
  Beta  occ. eigenvalues --   -0.28157  -0.28012  -0.27432  -0.26139  -0.25863
  Beta  occ. eigenvalues --   -0.25384  -0.24750  -0.24023  -0.23639  -0.19090
  Beta  occ. eigenvalues --   -0.17589  -0.14945  -0.14072  -0.13524  -0.13108
  Beta virt. eigenvalues --    0.05918   0.06243   0.06842   0.07014   0.07327
  Beta virt. eigenvalues --    0.07614   0.08000   0.08338   0.08874   0.09294
  Beta virt. eigenvalues --    0.09585   0.10052   0.10119   0.10881   0.10917

 Mulliken charges and spin densities:
               1          2
     1  C   -0.180051  -0.501713
     2  C   -0.017826  -0.274596
     3  C    0.294120  -0.348180
     4  C   -0.799542   0.450574
     5  C    0.804018   0.023706
     6  C   -0.033123  -0.277973
     7  N   -0.098877   0.014065
     8  N    0.459776   0.048820
     9  C   -0.398534  -0.128023
    10  C   -0.419294  -0.015684
    11  C    0.240106   0.325161
    12  C   -0.331208   0.114451
    13  C   -0.272407   0.788933
    14  C   -0.309988   0.113191
    15  C    0.984638  -1.584339
    16  C   -0.019407  -0.541476
    17  C   -1.070535  -0.172075
    18  N   -0.240696   0.204066
    19  C    0.692877  -1.052580
    20  H    0.085715   0.074753
    21  H   -0.061298   0.202317
    22  H   -0.002748   0.145289
    23  H    0.331094  -0.199128
    24  H   -0.254879   0.411464
    25  H   -0.127920   0.234637
    26  H    0.199226   0.055730
    27  H    0.031304   0.097649
    28  H    0.183465  -0.014684
    29  H   -0.214351   0.369713
    30  H    0.161122   0.018595
    31  H   -0.223017   0.363982
    32  H    0.003384   0.170177
    33  H   -0.112914   0.266120
    34  H    0.036008   0.103263
    35  H    0.084829   0.078895
    36  H   -0.023012   0.167088
    37  H    0.118350   0.056016
    38  H    0.169328  -0.053117
    39  H    0.071486   0.136115
    40  H   -0.285605   0.401749
    41  H   -0.226557   0.358426
    42  H   -0.227058   0.368623
 Sum of Mulliken charges =  -1.00000   1.00000

 Dipole moment (field-independent basis, Debye):
    X=             -1.7888    Y=             -3.0551    Z=              0.5314  Tot=              3.5799
 Quadrupole moment (field-independent basis, Debye-Ang):
   XX=           -218.8439   YY=           -157.2531   ZZ=           -153.6713
   XY=             -1.8988   XZ=             -5.2168   YZ=             -2.8642

 Summary of Natural Population Analysis:

                                       Natural Population
                Natural  -----------------------------------------------
    Atom  No    Charge         Core      Valence    Rydberg      Total
 -----------------------------------------------------------------------
      C    1   -0.28827      0.99967     2.28307    0.00553     3.28827
      C    2   -0.18626      0.99963     2.17926    0.00736     3.18626
      C    3   -0.21556      0.99959     2.20610    0.00987     3.21556
      C    4    0.11208      0.99947     1.87647    0.01198     2.88792
      C    5   -0.08241      0.99945     2.07182    0.01114     3.08241
      C    6   -0.00922      0.99958     1.99564    0.01400     3.00922
      N    7   -0.14829      0.99974     2.63809    0.01046     3.64829
      N    8   -0.11244      0.99958     2.60011    0.01275     3.61244
      C    9    0.09772      0.99946     1.89062    0.01220     2.90228
      C   10   -0.10147      0.99947     2.09437    0.00763     3.10147
      C   11   -0.01055      0.99952     2.00295    0.00808     3.01055
      C   12   -0.09607      0.99947     2.08716    0.00944     3.09607
      C   13   -0.00932      0.99953     2.00028    0.00951     3.00932
      C   14   -0.10758      0.99947     2.09966    0.00845     3.10758
      C   15   -0.29034      0.99964     2.28578    0.00493     3.29034
      C   16   -0.29054      0.99964     2.28601    0.00489     3.29054
      C   17   -0.09337      0.99959     2.08154    0.01223     3.09337
      N   18   -0.33355      0.99975     2.82338    0.01041     3.83355
      C   19   -0.17617      0.99967     2.16966    0.00685     3.17617
      H   20    0.09926      0.00000     0.39973    0.00101     0.40074
      H   21    0.09706      0.00000     0.40225    0.00069     0.40294
      H   22    0.09561      0.00000     0.40323    0.00116     0.40439
      H   23    0.09830      0.00000     0.40030    0.00140     0.40170
      H   24    0.09540      0.00000     0.40343    0.00118     0.40460
      H   25    0.10795      0.00000     0.39054    0.00151     0.39205
      H   26    0.11726      0.00000     0.38091    0.00183     0.38274
      H   27    0.09472      0.00000     0.40428    0.00100     0.40528
      H   28    0.10799      0.00000     0.39070    0.00130     0.39201
      H   29    0.09673      0.00000     0.40231    0.00096     0.40327
      H   30    0.10371      0.00000     0.39473    0.00156     0.39629
      H   31    0.10318      0.00000     0.39549    0.00133     0.39682
      H   32    0.10479      0.00000     0.39405    0.00116     0.39521
      H   33    0.10255      0.00000     0.39640    0.00105     0.39745
      H   34    0.10070      0.00000     0.39834    0.00096     0.39930
      H   35    0.10358      0.00000     0.39511    0.00131     0.39642
      H   36    0.10168      0.00000     0.39728    0.00104     0.39832
      H   37    0.09508      0.00000     0.40343    0.00150     0.40492
      H   38    0.08241      0.00000     0.41614    0.00145     0.41759
      H   39    0.17086      0.00000     0.32604    0.00310     0.32914
      H   40    0.07661      0.00000     0.42086    0.00253     0.42339
      H   41    0.09497      0.00000     0.40386    0.00117     0.40503
      H   42    0.09118      0.00000     0.40723    0.00159     0.40882
 =======================================================================
   * Total *   -0.00000     18.99191    50.79860    0.20949    70.00000

 Normal termination of Gaussian 16 at Sat Dec 12 11:48:48 2020.
