 Gaussian 16, Revision A.03,

 -----------------------------------------------------------
 # opt freq B3LYP/6-31G(d) empiricaldispersion=gd3bj scf=xqc
 -----------------------------------------------------------

 ------------------------------
 CID_64737959_JID_7212_neutraal
 ------------------------------
 Symbolic Z-matrix:
 Charge =  0 Multiplicity = 1

 SCF Done:  E(RB3LYP) =  -1056.93257719     A.U. after   14 cycles
 SCF Done:  E(RB3LYP) =  -1056.93651955     A.U. after   12 cycles
 SCF Done:  E(RB3LYP) =  -1056.93739868     A.U. after   12 cycles
 SCF Done:  E(RB3LYP) =  -1056.93808743     A.U. after   13 cycles
 SCF Done:  E(RB3LYP) =  -1056.93860411     A.U. after   12 cycles
 SCF Done:  E(RB3LYP) =  -1056.93889972     A.U. after   11 cycles
 SCF Done:  E(RB3LYP) =  -1056.93892817     A.U. after   10 cycles
 SCF Done:  E(RB3LYP) =  -1056.93896097     A.U. after   11 cycles
 SCF Done:  E(RB3LYP) =  -1056.93896054     A.U. after   10 cycles
 SCF Done:  E(RB3LYP) =  -1056.93896457     A.U. after    9 cycles
 SCF Done:  E(RB3LYP) =  -1056.93896544     A.U. after    7 cycles
 SCF Done:  E(RB3LYP) =  -1056.93896559     A.U. after    7 cycles
 SCF Done:  E(RB3LYP) =  -1056.93896566     A.U. after    7 cycles
 SCF Done:  E(RB3LYP) =  -1056.93896575     A.U. after    7 cycles
 SCF Done:  E(RB3LYP) =  -1056.93896579     A.U. after    7 cycles
 Optimization completed.
    -- Stationary point found.
 Normal termination of Gaussian 16 at Fri Dec 11 12:05:40 2020.

 --------------------------------------------------------------------
 #N Geom=AllCheck Guess=TCheck SCRF=Check GenChk RB3LYP/6-31G(d) Freq
 --------------------------------------------------------------------

 Structure from the checkpoint file:  "JID_7212.chk"
 ------------------------------
 CID_64737959_JID_7212_neutraal
 ------------------------------
 Charge =  0 Multiplicity = 1

 SCF Done:  E(RB3LYP) =  -1056.93896579     A.U. after    1 cycles

  Exact polarizability: 222.918  -4.698 159.427  -3.406   2.042 138.937
 Approx polarizability: 293.939 -19.683 233.941 -12.380   5.057 218.490

                      1                      2                      3
                      A                      A                      A
 Frequencies --     18.3569                33.3232                36.6594
 Red. masses --      7.1612                 5.2095                 3.2420
 Frc consts  --      0.0014                 0.0034                 0.0026
 IR Inten    --      5.9810                 1.1996                 0.2858

                      4                      5                      6
                      A                      A                      A
 Frequencies --     74.2443               124.9141               146.5462
 Red. masses --      2.9323                 4.3807                 2.2570
 Frc consts  --      0.0095                 0.0403                 0.0286
 IR Inten    --      0.0200                 4.0549                 0.1824

                      7                      8                      9
                      A                      A                      A
 Frequencies --    175.6964               184.4607               196.0373
 Red. masses --      2.3073                 3.5606                 3.3399
 Frc consts  --      0.0420                 0.0714                 0.0756
 IR Inten    --      0.1060                 0.4962                 0.1213

                     10                     11                     12
                      A                      A                      A
 Frequencies --    217.4724               237.7230               257.6927
 Red. masses --      1.2479                 1.8362                 1.4778
 Frc consts  --      0.0348                 0.0611                 0.0578
 IR Inten    --      0.1616                 0.3524                 0.0358

                     13                     14                     15
                      A                      A                      A
 Frequencies --    269.0177               290.0207               300.8020
 Red. masses --      3.1223                 1.8980                 1.2142
 Frc consts  --      0.1331                 0.0941                 0.0647
 IR Inten    --      1.7247                 0.0463               151.8614

                     16                     17                     18
                      A                      A                      A
 Frequencies --    303.8463               338.0679               355.8366
 Red. masses --      2.8328                 2.5735                 2.2143
 Frc consts  --      0.1541                 0.1733                 0.1652
 IR Inten    --     10.9362                 0.5938                 1.2994

                     19                     20                     21
                      A                      A                      A
 Frequencies --    377.5104               401.3856               416.4786
 Red. masses --      2.0903                 2.1610                 3.4879
 Frc consts  --      0.1755                 0.2051                 0.3565
 IR Inten    --      0.1707                 0.3453                 0.6708

                     22                     23                     24
                      A                      A                      A
 Frequencies --    458.9628               464.7832               471.7203
 Red. masses --      2.5931                 2.6747                 3.3511
 Frc consts  --      0.3218                 0.3404                 0.4393
 IR Inten    --     10.4619                 0.9396                 1.2838

                     25                     26                     27
                      A                      A                      A
 Frequencies --    498.8710               515.0029               539.9019
 Red. masses --      2.6987                 2.6321                 2.2042
 Frc consts  --      0.3957                 0.4113                 0.3786
 IR Inten    --      1.7983                 1.5549                 0.2834

                     28                     29                     30
                      A                      A                      A
 Frequencies --    595.5019               607.8528               622.2722
 Red. masses --      2.5576                 1.1250                 2.3439
 Frc consts  --      0.5344                 0.2449                 0.5347
 IR Inten    --      7.9725                11.3445                 3.2731

                     31                     32                     33
                      A                      A                      A
 Frequencies --    652.1686               756.5164               796.1183
 Red. masses --      5.3077                 2.6812                 2.2609
 Frc consts  --      1.3301                 0.9041                 0.8443
 IR Inten    --      0.9871                 1.3182                 0.8753

                     34                     35                     36
                      A                      A                      A
 Frequencies --    818.4977               820.1074               837.9867
 Red. masses --      1.8307                 1.8396                 2.4284
 Frc consts  --      0.7226                 0.7290                 1.0047
 IR Inten    --      0.6559                 0.3251                 1.7152

                     37                     38                     39
                      A                      A                      A
 Frequencies --    857.4211               879.1537               899.5054
 Red. masses --      2.6714                 2.6797                 1.6614
 Frc consts  --      1.1571                 1.2203                 0.7920
 IR Inten    --      1.8774                 6.5871                 0.5326

                     40                     41                     42
                      A                      A                      A
 Frequencies --    929.3840               941.1952               961.7317
 Red. masses --      2.0559                 1.9989                 1.7135
 Frc consts  --      1.0463                 1.0433                 0.9338
 IR Inten    --      0.8232                 2.1930                 1.8468

                     43                     44                     45
                      A                      A                      A
 Frequencies --    983.8589               988.1825               993.9167
 Red. masses --      2.0715                 1.9873                 1.5385
 Frc consts  --      1.1814                 1.1434                 0.8954
 IR Inten    --     50.1830                 1.8487                 2.4436

                     46                     47                     48
                      A                      A                      A
 Frequencies --   1005.5219              1012.5281              1026.2145
 Red. masses --      1.5113                 1.8610                 1.5972
 Frc consts  --      0.9003                 1.1241                 0.9910
 IR Inten    --      1.7478                 3.0733                 3.9510

                     49                     50                     51
                      A                      A                      A
 Frequencies --   1045.4011              1060.4163              1077.8005
 Red. masses --      1.6031                 2.3152                 2.2516
 Frc consts  --      1.0323                 1.5339                 1.5411
 IR Inten    --      6.2806                10.1827                10.3570

                     52                     53                     54
                      A                      A                      A
 Frequencies --   1089.5670              1099.1248              1113.7649
 Red. masses --      1.9972                 3.3234                 1.4068
 Frc consts  --      1.3970                 2.3655                 1.0282
 IR Inten    --     11.6370                 1.3621                 3.4751

                     55                     56                     57
                      A                      A                      A
 Frequencies --   1125.1079              1159.2647              1169.8462
 Red. masses --      2.2370                 2.2060                 1.7824
 Frc consts  --      1.6684                 1.7467                 1.4372
 IR Inten    --      8.6595                11.9624                40.8131

                     58                     59                     60
                      A                      A                      A
 Frequencies --   1178.3011              1200.0756              1213.5129
 Red. masses --      1.9639                 1.2674                 2.2369
 Frc consts  --      1.6065                 1.0754                 1.9408
 IR Inten    --     52.0208                 6.1821                 8.0337

                     61                     62                     63
                      A                      A                      A
 Frequencies --   1215.0986              1261.9249              1267.0389
 Red. masses --      2.0754                 1.3000                 1.6446
 Frc consts  --      1.8054                 1.2197                 1.5555
 IR Inten    --      2.7311                 0.2914                62.7151

                     64                     65                     66
                      A                      A                      A
 Frequencies --   1277.7104              1296.2586              1297.6935
 Red. masses --      1.3803                 1.2680                 1.4030
 Frc consts  --      1.3276                 1.2553                 1.3920
 IR Inten    --      4.1393                12.8366                 3.2191

                     67                     68                     69
                      A                      A                      A
 Frequencies --   1318.4260              1345.0392              1349.0550
 Red. masses --      1.3043                 1.2768                 1.2898
 Frc consts  --      1.3358                 1.3609                 1.3830
 IR Inten    --      6.3645                 0.7903                 0.6572

                     70                     71                     72
                      A                      A                      A
 Frequencies --   1353.2806              1363.3932              1371.0233
 Red. masses --      2.3000                 1.3926                 1.4851
 Frc consts  --      2.4817                 1.5252                 1.6448
 IR Inten    --     49.9079                 3.4643                 1.2651

                     73                     74                     75
                      A                      A                      A
 Frequencies --   1383.1137              1386.6244              1390.2230
 Red. masses --      2.0567                 1.4066                 1.3994
 Frc consts  --      2.3181                 1.5934                 1.5935
 IR Inten    --     45.0460                 0.9486                18.1051

                     76                     77                     78
                      A                      A                      A
 Frequencies --   1392.5206              1396.5805              1406.6648
 Red. masses --      1.4121                 1.2250                 1.4394
 Frc consts  --      1.6133                 1.4077                 1.6781
 IR Inten    --      1.3339                 9.2955                 1.0068

                     79                     80                     81
                      A                      A                      A
 Frequencies --   1414.4405              1416.2358              1425.2637
 Red. masses --      1.3769                 1.2206                 1.5471
 Frc consts  --      1.6231                 1.4425                 1.8517
 IR Inten    --      0.6060                13.3154                58.2484

                     82                     83                     84
                      A                      A                      A
 Frequencies --   1436.8347              1441.3892              1446.3888
 Red. masses --      1.2736                 1.3494                 1.6937
 Frc consts  --      1.5492                 1.6518                 2.0876
 IR Inten    --      5.1541                22.5898                96.3919

                     85                     86                     87
                      A                      A                      A
 Frequencies --   1448.0960              1504.1152              1507.9809
 Red. masses --      1.4146                 1.0884                 1.0839
 Frc consts  --      1.7478                 1.4508                 1.4522
 IR Inten    --     32.7509                 0.5790                 4.9818

                     88                     89                     90
                      A                      A                      A
 Frequencies --   1512.4501              1513.9216              1516.4521
 Red. masses --      1.0986                 1.0827                 1.0796
 Frc consts  --      1.4807                 1.4621                 1.4628
 IR Inten    --      7.8069                 4.1276                 0.6393

                     91                     92                     93
                      A                      A                      A
 Frequencies --   1522.6285              1526.5535              1527.2748
 Red. masses --      1.0998                 1.0715                 1.0497
 Frc consts  --      1.5022                 1.4711                 1.4426
 IR Inten    --      7.1729                 7.1024                 6.6874

                     94                     95                     96
                      A                      A                      A
 Frequencies --   1537.3018              1538.8871              1544.1716
 Red. masses --      1.0792                 1.0579                 1.0554
 Frc consts  --      1.5027                 1.4761                 1.4827
 IR Inten    --      4.2156                 0.8353                 0.8401

                     97                     98                     99
                      A                      A                      A
 Frequencies --   1663.9506              2994.9405              2999.4255
 Red. masses --      1.2731                 1.0827                 1.0709
 Frc consts  --      2.0768                 5.7218                 5.6765
 IR Inten    --    162.3216                16.0913                38.3607

                    100                    101                    102
                      A                      A                      A
 Frequencies --   3007.4492              3015.1942              3020.0090
 Red. masses --      1.0727                 1.0772                 1.0831
 Frc consts  --      5.7165                 5.7699                 5.8201
 IR Inten    --     59.9663                15.6363                 8.7363

                    103                    104                    105
                      A                      A                      A
 Frequencies --   3031.3276              3034.1218              3042.2170
 Red. masses --      1.0715                 1.0570                 1.0378
 Frc consts  --      5.8008                 5.7334                 5.6593
 IR Inten    --     89.3938                28.1503                23.4644

                    106                    107                    108
                      A                      A                      A
 Frequencies --   3046.2949              3047.8239              3055.1049
 Red. masses --      1.0620                 1.0613                 1.0511
 Frc consts  --      5.8065                 5.8084                 5.7804
 IR Inten    --     25.7855                18.3452                 3.4534

                    109                    110                    111
                      A                      A                      A
 Frequencies --   3056.1156              3071.5526              3075.7294
 Red. masses --      1.0513                 1.0947                 1.1006
 Frc consts  --      5.7851                 6.0853                 6.1344
 IR Inten    --     33.4842                30.1732                71.8238

                    112                    113                    114
                      A                      A                      A
 Frequencies --   3080.0365              3090.7548              3094.9773
 Red. masses --      1.0908                 1.0943                 1.1012
 Frc consts  --      6.0967                 6.1592                 6.2151
 IR Inten    --      4.4963                40.3344                 9.5389

                    115                    116                    117
                      A                      A                      A
 Frequencies --   3096.7170              3103.6985              3105.4102
 Red. masses --      1.0986                 1.0968                 1.1017
 Frc consts  --      6.2071                 6.2250                 6.2597
 IR Inten    --     41.1095                45.6473                44.2259

                    118                    119                    120
                      A                      A                      A
 Frequencies --   3109.4463              3110.3106              3116.4163
 Red. masses --      1.1016                 1.0948                 1.1001
 Frc consts  --      6.2752                 6.2401                 6.2949
 IR Inten    --     40.8052                71.0124                47.4238

                    121                    122                    123
                      A                      A                      A
 Frequencies --   3126.3923              3570.0845              3696.0573
 Red. masses --      1.1011                 1.0445                 1.1050
 Frc consts  --      6.3412                 7.8435                 8.8935
 IR Inten    --     30.8983                32.3815                46.2396

 - Thermochemistry -
 -------------------
 Temperature   298.150 Kelvin.  Pressure   1.00000 Atm.
 Atom     1 has atomic number  6 and mass  12.00000

 Molecular mass:   254.18167 amu.
 Principal axes and moments of inertia in atomic units:
                           1         2         3
     Eigenvalues --  2142.502419104.19201**********
           X            0.99993  -0.00994   0.00572
           Y            0.00992   0.99994   0.00455
           Z           -0.00577  -0.00449   0.99997
 This molecule is an asymmetric top.
 Rotational symmetry number  1.
 Warning -- assumption of classical behavior for rotation
           may cause significant error
 Rotational temperatures (Kelvin)      0.04043     0.00951     0.00863
 Rotational constants (GHZ):           0.84235     0.19823     0.17984
 Zero-point vibrational energy    1031999.0 (Joules/Mol)
                                  246.65369 (Kcal/Mol)
 Warning -- explicit consideration of  29 degrees of freedom as
           vibrations may cause significant error
 Vibrational temperatures:     26.41    47.94    52.74   106.82   179.72
          (Kelvin)            210.85   252.79   265.40   282.05   312.89
                              342.03   370.76   387.06   417.28   432.79
                              437.17   486.40   511.97   543.15   577.50
                              599.22   660.35   668.72   678.70   717.76
                              740.97   776.80   856.79   874.56   895.31
                              938.33  1088.46  1145.44  1177.64  1179.95
                             1205.68  1233.64  1264.91  1294.19  1337.18
                             1354.17  1383.72  1415.55  1421.77  1430.02
                             1446.72  1456.80  1476.49  1504.10  1525.70
                             1550.71  1567.64  1581.40  1602.46  1618.78
                             1667.92  1683.15  1695.31  1726.64  1745.97
                             1748.26  1815.63  1822.99  1838.34  1865.03
                             1867.09  1896.92  1935.21  1940.99  1947.07
                             1961.62  1972.60  1989.99  1995.04  2000.22
                             2003.53  2009.37  2023.88  2035.06  2037.65
                             2050.64  2067.28  2073.84  2081.03  2083.49
                             2164.09  2169.65  2176.08  2178.20  2181.84
                             2190.72  2196.37  2197.41  2211.83  2214.12
                             2221.72  2394.05  4309.05  4315.50  4327.05
                             4338.19  4345.12  4361.40  4365.42  4377.07
                             4382.94  4385.14  4395.61  4397.07  4419.28
                             4425.29  4431.49  4446.91  4452.98  4455.49
                             4465.53  4467.99  4473.80  4475.04  4483.83
                             4498.18  5136.56  5317.80

 Zero-point correction=                           0.393068 (Hartree/Particle)
 Thermal correction to Energy=                    0.410771
 Thermal correction to Enthalpy=                  0.411715
 Thermal correction to Gibbs Free Energy=         0.346744
 Sum of electronic and zero-point Energies=          -1056.545898
 Sum of electronic and thermal Energies=             -1056.528195
 Sum of electronic and thermal Enthalpies=           -1056.527251
 Sum of electronic and thermal Free Energies=        -1056.592222

                     E (Thermal)             CV                S
                      KCal/Mol        Cal/Mol-Kelvin    Cal/Mol-Kelvin
 Total                  257.763             69.926            136.742
 Electronic               0.000              0.000              0.000
 Translational            0.889              2.981             42.499
 Rotational               0.889              2.981             33.637
 Vibrational            255.985             63.965             60.607
 Vibration     1          0.593              1.986              6.804
 Vibration     2          0.594              1.983              5.621
 Vibration     3          0.594              1.982              5.432
 Vibration     4          0.599              1.966              4.038
 Vibration     5          0.610              1.928              3.023
 Vibration     6          0.617              1.906              2.717
 Vibration     7          0.628              1.872              2.374
 Vibration     8          0.631              1.861              2.283
 Vibration     9          0.636              1.845              2.170
 Vibration    10          0.646              1.814              1.980
 Vibration    11          0.656              1.783              1.820
 Vibration    12          0.667              1.750              1.677
 Vibration    13          0.673              1.730              1.603
 Vibration    14          0.686              1.692              1.474
 Vibration    15          0.693              1.672              1.412
 Vibration    16          0.695              1.666              1.396
 Vibration    17          0.718              1.599              1.221
 Vibration    18          0.731              1.563              1.140
 Vibration    19          0.748              1.518              1.049
 Vibration    20          0.767              1.467              0.958
 Vibration    21          0.780              1.434              0.904
 Vibration    22          0.817              1.341              0.769
 Vibration    23          0.822              1.328              0.752
 Vibration    24          0.829              1.313              0.733
 Vibration    25          0.854              1.253              0.661
 Vibration    26          0.870              1.217              0.622
 Vibration    27          0.895              1.162              0.565
 Vibration    28          0.953              1.041              0.457
 Vibration    29          0.967              1.015              0.436

                           ! Non-Optimized Parameters !
 Normal termination of Gaussian 16 at Fri Dec 11 12:27:56 2020.

 ----------------------------------------------------------------------
 # B3LYP/6-311++G(d,p) empiricaldispersion=gd3bj scf=xqc pop=npa geom=c
 heck
 ----------------------------------------------------------------------

 --------------------------------------
 CID_64737959_JID_7212_Energie_neutraal
 --------------------------------------
 Structure from the checkpoint file:  "JID_7212.chk"
 Charge =  0 Multiplicity = 1

 SCF Done:  E(RB3LYP) =  -1057.14700321     A.U. after   15 cycles
 Normal termination of Gaussian 16 at Fri Dec 11 12:39:44 2020.

 ----------------------------------------------------------------------
 # B3LYP/6-311++G(d,p) empiricaldispersion=gd3bj scf=xqc pop=npa geom=c
 heck
 ----------------------------------------------------------------------

 ------------------------------------
 CID_64737959_JID_7212_Energie_kation
 ------------------------------------
 Structure from the checkpoint file:  "JID_7212.chk"
 Charge =  1 Multiplicity = 2

 SCF Done:  E(UB3LYP) =  -1056.88280466     A.U. after   25 cycles
 Normal termination of Gaussian 16 at Fri Dec 11 13:07:34 2020.
 Gaussian 16:  ES64L-G16RevA.03 25-Dec-2016

 ----------------------------------------------------------------------
 # B3LYP/6-311++G(d,p) empiricaldispersion=gd3bj scf=xqc pop=npa geom=c
 heck
 ----------------------------------------------------------------------

 -----------------------------------
 CID_64737959_JID_7212_Energie_anion
 -----------------------------------
 Structure from the checkpoint file:  "JID_7212.chk"
 Charge = -1 Multiplicity = 2

                         Standard orientation:
 ---------------------------------------------------------------------
 Center     Atomic      Atomic             Coordinates (Angstroms)
 Number     Number       Type             X           Y           Z
 ---------------------------------------------------------------------
      1          6           0       -4.019086    0.907063   -1.527917
      2          6           0       -3.985740    0.498901   -0.047247
      3          6           0       -3.941645   -1.031556    0.123161
      4          6           0       -2.592138   -1.637017   -0.284761
      5          6           0       -1.427400   -1.002970    0.494115
      6          6           0       -1.464097    0.533307    0.335728
      7          6           0       -2.819559    1.133183    0.748572
      8          6           0       -2.796166    2.662945    0.670763
      9          7           0       -0.164539   -1.672403    0.173999
     10          6           0        0.437740   -1.443412   -1.132627
     11          6           0        1.447751   -0.279787   -1.183381
     12          6           0        2.515818   -0.448497   -0.083576
     13          6           0        1.838808   -0.621304    1.291701
     14          6           0        0.832777   -1.784618    1.227501
     15          6           0        3.533836    0.678282   -0.086287
     16         16           0        5.158128    0.426307   -0.339794
     17          7           0        3.027537    1.906563    0.138314
     18          1           0       -3.096860    0.641704   -2.055572
     19          1           0       -4.167522    1.985107   -1.645244
     20          1           0       -4.845406    0.402237   -2.041353
     21          1           0       -4.920549    0.858427    0.406533
     22          1           0       -4.133195   -1.274863    1.178093
     23          1           0       -4.750862   -1.495584   -0.454737
     24          1           0       -2.436177   -1.499044   -1.362411
     25          1           0       -2.583415   -2.717463   -0.105990
     26          1           0       -1.605905   -1.218136    1.557086
     27          1           0       -1.252819    0.799525   -0.708153
     28          1           0       -0.670659    0.989181    0.941364
     29          1           0       -2.984022    0.859686    1.802828
     30          1           0       -3.770988    3.090552    0.934085
     31          1           0       -2.051734    3.076621    1.361373
     32          1           0       -2.539948    3.010923   -0.336497
     33          1           0        0.964212   -2.363016   -1.431582
     34          1           0       -0.353008   -1.283951   -1.871321
     35          1           0        0.919616    0.672001   -1.057430
     36          1           0        1.933734   -0.250740   -2.166152
     37          1           0        3.077079   -1.363649   -0.295591
     38          1           0        1.321167    0.300433    1.585351
     39          1           0        2.600693   -0.820985    2.054813
     40          1           0        0.318700   -1.896818    2.187814
     41          1           0        1.402476   -2.712672    1.060943
     42          1           0        2.039745    2.060112    0.287170
     43          1           0        3.649210    2.703268    0.150622
 ---------------------------------------------------------------------

 SCF Done:  E(UB3LYP) =  -1057.14212067     A.U. after   33 cycles
 SCF Done:  E(UB3LYP) =  -1057.14212067     a.u. after    1 cycles

 The electronic state is 2-A.
 Alpha  occ. eigenvalues --  -88.68719 -14.24355 -14.20717 -10.14443 -10.10676
 Alpha  occ. eigenvalues --  -10.10655 -10.10374 -10.08907 -10.07983 -10.07917
 Alpha  occ. eigenvalues --  -10.07760 -10.07527 -10.07404 -10.07166 -10.06862
 Alpha  occ. eigenvalues --  -10.06766 -10.06078  -7.77489  -5.73833  -5.73414
 Alpha  occ. eigenvalues --   -5.73006  -0.84685  -0.83649  -0.74873  -0.71430
 Alpha  occ. eigenvalues --   -0.67198  -0.66655  -0.66390  -0.63351  -0.60446
 Alpha  occ. eigenvalues --   -0.57602  -0.55421  -0.54274  -0.51073  -0.50260
 Alpha  occ. eigenvalues --   -0.48241  -0.46029  -0.44503  -0.44319  -0.40602
 Alpha  occ. eigenvalues --   -0.38983  -0.37712  -0.37067  -0.35799  -0.35427
 Alpha  occ. eigenvalues --   -0.34340  -0.33655  -0.32558  -0.32115  -0.31224
 Alpha  occ. eigenvalues --   -0.30446  -0.29911  -0.29133  -0.28991  -0.27901
 Alpha  occ. eigenvalues --   -0.27740  -0.26928  -0.26258  -0.26085  -0.25081
 Alpha  occ. eigenvalues --   -0.24558  -0.23919  -0.23197  -0.22505  -0.21877
 Alpha  occ. eigenvalues --   -0.21383  -0.20455  -0.13079  -0.11485  -0.10494
 Alpha  occ. eigenvalues --    0.03745
 Alpha virt. eigenvalues --    0.05464   0.06206   0.06651   0.06892   0.07966
 Alpha virt. eigenvalues --    0.08566   0.08804   0.09083   0.09319   0.10386
 Alpha virt. eigenvalues --    0.10598   0.10954   0.11284   0.11450   0.12002

  Beta  occ. eigenvalues --  -88.68713 -14.24283 -14.20716 -10.14185 -10.10668
  Beta  occ. eigenvalues --  -10.10651 -10.10369 -10.08923 -10.07974 -10.07895
  Beta  occ. eigenvalues --  -10.07751 -10.07500 -10.07392 -10.07163 -10.06842
  Beta  occ. eigenvalues --  -10.06749 -10.06044  -7.77483  -5.73838  -5.73387
  Beta  occ. eigenvalues --   -5.73000  -0.84481  -0.83605  -0.74846  -0.71360
  Beta  occ. eigenvalues --   -0.67159  -0.66624  -0.66341  -0.63138  -0.60405
  Beta  occ. eigenvalues --   -0.57552  -0.55375  -0.54231  -0.51008  -0.50203
  Beta  occ. eigenvalues --   -0.48076  -0.46000  -0.44430  -0.44259  -0.40563
  Beta  occ. eigenvalues --   -0.38946  -0.37679  -0.37039  -0.35781  -0.35342
  Beta  occ. eigenvalues --   -0.34275  -0.33556  -0.32488  -0.32080  -0.31181
  Beta  occ. eigenvalues --   -0.30400  -0.29821  -0.29060  -0.28956  -0.27834
  Beta  occ. eigenvalues --   -0.27543  -0.26853  -0.26201  -0.25847  -0.25036
  Beta  occ. eigenvalues --   -0.24509  -0.23849  -0.23127  -0.22401  -0.21831
  Beta  occ. eigenvalues --   -0.21349  -0.20424  -0.12742  -0.11463  -0.10465
  Beta virt. eigenvalues --    0.05787   0.06804   0.06960   0.07058   0.07477
  Beta virt. eigenvalues --    0.08259   0.08776   0.08913   0.09231   0.09697
  Beta virt. eigenvalues --    0.10463   0.10769   0.11101   0.11432   0.11621

 Mulliken charges and spin densities:
               1          2
     1  C    0.103005  -0.875874
     2  C   -0.391985   0.725369
     3  C   -0.008700  -0.710180
     4  C    0.286503   0.066749
     5  C   -2.040190   0.201020
     6  C    0.458242  -0.330049
     7  C   -0.528680   0.501206
     8  C    0.945426  -1.660515
     9  N    0.495641   0.027502
    10  C   -0.144132  -0.239715
    11  C   -0.326819   0.348691
    12  C    0.687754  -0.992490
    13  C   -0.226729   0.150808
    14  C    0.069431  -0.322870
    15  C    0.011504   0.508048
    16  S   -0.781554  -0.028857
    17  N   -0.207534  -0.053737
    18  H    0.008397   0.152228
    19  H   -0.000052   0.152130
    20  H   -0.000070   0.135477
    21  H   -0.210642   0.425208
    22  H   -0.010378   0.147547
    23  H   -0.060075   0.226590
    24  H    0.137651  -0.023077
    25  H    0.084570   0.110047
    26  H   -0.001988   0.115572
    27  H   -0.157623   0.290067
    28  H    1.281832  -1.138460
    29  H   -0.210977   0.417052
    30  H   -0.174901   0.325190
    31  H   -0.603105   0.751652
    32  H    0.033356   0.103441
    33  H    0.162670   0.009416
    34  H    0.119388   0.015581
    35  H    0.207178  -0.123848
    36  H    0.168691   0.041048
    37  H    0.140056  -0.003127
    38  H   -0.559132   0.709509
    39  H    0.092246   0.112043
    40  H   -0.045509   0.188433
    41  H    0.149636   0.011857
    42  H   -0.028041   0.314366
    43  H    0.075640   0.218953
 Sum of Mulliken charges =  -1.00000   1.00000

 Dipole moment (field-independent basis, Debye):
    X=             -2.0781    Y=             -4.5666    Z=             -2.9374  Tot=              5.8139
 Quadrupole moment (field-independent basis, Debye-Ang):
   XX=           -230.3787   YY=           -158.0392   ZZ=           -147.4233
   XY=              2.4553   XZ=              4.4883   YZ=             -6.1922

 Summary of Natural Population Analysis:

                                       Natural Population
                Natural  -----------------------------------------------
    Atom  No    Charge         Core      Valence    Rydberg      Total
 -----------------------------------------------------------------------
      C    1   -0.29005      0.99965     2.28403    0.00638     3.29005
      C    2   -0.10739      0.99958     2.09716    0.01065     3.10739
      C    3   -0.18716      0.99961     2.17819    0.00935     3.18716
      C    4   -0.19310      0.99960     2.18381    0.00969     3.19310
      C    5    0.00453      0.99956     1.98306    0.01285     2.99547
      C    6   -0.20136      0.99959     2.19182    0.00995     3.20136
      C    7   -0.10885      0.99958     2.09813    0.01114     3.10885
      C    8   -0.28317      0.99965     2.27727    0.00625     3.28317
      N    9   -0.28405      0.99971     2.77142    0.01293     3.78405
      C   10   -0.08163      0.99961     2.07231    0.00970     3.08163
      C   11   -0.19358      0.99961     2.18602    0.00795     3.19358
      C   12   -0.14406      0.99952     2.13319    0.01134     3.14406
      C   13   -0.19304      0.99961     2.18461    0.00883     3.19304
      C   14   -0.07786      0.99961     2.06725    0.01099     3.07786
      C   15    0.10801      0.99961     1.87032    0.02206     2.89199
      S   16   -0.12328      4.99952     3.11001    0.01375     8.12328
      N   17   -0.37462      0.99966     2.86283    0.01214     3.87462
      H   18    0.09525      0.00000     0.40390    0.00084     0.40475
      H   19    0.10206      0.00000     0.39721    0.00073     0.39794
      H   20    0.09825      0.00000     0.40091    0.00084     0.40175
      H   21    0.09748      0.00000     0.40092    0.00160     0.40252
      H   22    0.09664      0.00000     0.40220    0.00115     0.40336
      H   23    0.09710      0.00000     0.40208    0.00082     0.40290
      H   24    0.09217      0.00000     0.40658    0.00125     0.40783
      H   25    0.10216      0.00000     0.39663    0.00121     0.39784
      H   26    0.09312      0.00000     0.40484    0.00204     0.40688
      H   27    0.09300      0.00000     0.40539    0.00162     0.40700
      H   28    0.10209      0.00000     0.39586    0.00205     0.39791
      H   29    0.09531      0.00000     0.40279    0.00191     0.40469
      H   30    0.09881      0.00000     0.40010    0.00109     0.40119
      H   31    0.10376      0.00000     0.39480    0.00145     0.39624
      H   32    0.09576      0.00000     0.40318    0.00106     0.40424
      H   33    0.08940      0.00000     0.40957    0.00103     0.41060
      H   34    0.09725      0.00000     0.40180    0.00095     0.40275
      H   35    0.09453      0.00000     0.40371    0.00176     0.40547
      H   36    0.10157      0.00000     0.39758    0.00085     0.39843
      H   37    0.10771      0.00000     0.39050    0.00179     0.39229
      H   38    0.09584      0.00000     0.40205    0.00211     0.40416
      H   39    0.10246      0.00000     0.39657    0.00097     0.39754
      H   40    0.09835      0.00000     0.40077    0.00089     0.40165
      H   41    0.08748      0.00000     0.41148    0.00105     0.41252
      H   42    0.19496      0.00000     0.30214    0.00290     0.30504
      H   43    0.19819      0.00000     0.29988    0.00193     0.30181
 =======================================================================
   * Total *   -0.00000     20.99327    48.78490    0.22183    70.00000

 Normal termination of Gaussian 16 at Fri Dec 11 13:44:35 2020.
