 Gaussian 16, Revision A.03,

 -----------------------------------------------------------
 # opt freq B3LYP/6-31G(d) empiricaldispersion=gd3bj scf=xqc
 -----------------------------------------------------------

 -------------------------------
 CID_113776408_JID_8968_neutraal
 -------------------------------
 Symbolic Z-matrix:
 Charge =  0 Multiplicity = 1

 SCF Done:  E(RB3LYP) =  -770.856614630     A.U. after   15 cycles
 SCF Done:  E(RB3LYP) =  -770.861134070     A.U. after   12 cycles
 SCF Done:  E(RB3LYP) =  -770.858107092     A.U. after   12 cycles
 SCF Done:  E(RB3LYP) =  -770.860717722     A.U. after   13 cycles
 SCF Done:  E(RB3LYP) =  -770.861765791     A.U. after   10 cycles
 SCF Done:  E(RB3LYP) =  -770.862541377     A.U. after   13 cycles
 SCF Done:  E(RB3LYP) =  -770.862993391     A.U. after   13 cycles
 SCF Done:  E(RB3LYP) =  -770.863133810     A.U. after   11 cycles
 SCF Done:  E(RB3LYP) =  -770.863398982     A.U. after   12 cycles
 SCF Done:  E(RB3LYP) =  -770.863612308     A.U. after   11 cycles
 SCF Done:  E(RB3LYP) =  -770.876512158     A.U. after   10 cycles
 SCF Done:  E(RB3LYP) =  -770.876516856     A.U. after    9 cycles
 SCF Done:  E(RB3LYP) =  -770.876517840     A.U. after    8 cycles
 SCF Done:  E(RB3LYP) =  -770.876518127     A.U. after    7 cycles
 SCF Done:  E(RB3LYP) =  -770.876518225     A.U. after    7 cycles
 Optimization completed.
    -- Stationary point found.
 Normal termination of Gaussian 16 at Fri Dec 11 23:36:59 2020.

 --------------------------------------------------------------------
 #N Geom=AllCheck Guess=TCheck SCRF=Check GenChk RB3LYP/6-31G(d) Freq
 --------------------------------------------------------------------

 Structure from the checkpoint file:  "JID_8968.chk"
 -------------------------------
 CID_113776408_JID_8968_neutraal
 -------------------------------
 Charge =  0 Multiplicity = 1

 SCF Done:  E(RB3LYP) =  -770.876518225     A.U. after    1 cycles

  Exact polarizability: 231.086   3.508 168.201 -14.501  -8.114 123.151
 Approx polarizability: 290.420   8.378 278.666 -26.541 -21.692 183.258

                      1                      2                      3
                      A                      A                      A
 Frequencies --     28.2025                32.6222                52.4212
 Red. masses --      3.6682                 4.2955                 3.2505
 Frc consts  --      0.0017                 0.0027                 0.0053
 IR Inten    --      0.2552                 0.6145                 1.9541

                      4                      5                      6
                      A                      A                      A
 Frequencies --     62.2390                74.2017                87.6404
 Red. masses --      3.4743                 3.4999                 2.9871
 Frc consts  --      0.0079                 0.0114                 0.0135
 IR Inten    --      0.1457                 0.0448                 3.2162

                      7                      8                      9
                      A                      A                      A
 Frequencies --    118.5280               138.8090               146.9293
 Red. masses --      5.0603                 1.1661                 2.2545
 Frc consts  --      0.0419                 0.0132                 0.0287
 IR Inten    --      3.8616                 0.0228                 0.3834

                     10                     11                     12
                      A                      A                      A
 Frequencies --    159.7515               173.5838               198.5878
 Red. masses --      2.3197                 1.2339                 2.4876
 Frc consts  --      0.0349                 0.0219                 0.0578
 IR Inten    --      0.5234                 0.3820                 0.3221

                     13                     14                     15
                      A                      A                      A
 Frequencies --    217.3385               225.1671               235.7402
 Red. masses --      1.2866                 1.4125                 1.3845
 Frc consts  --      0.0358                 0.0422                 0.0453
 IR Inten    --      0.9659                 0.9366                 3.8946

                     16                     17                     18
                      A                      A                      A
 Frequencies --    253.7384               264.8551               290.8906
 Red. masses --      1.8507                 2.0527                 2.4574
 Frc consts  --      0.0702                 0.0848                 0.1225
 IR Inten    --      0.8091                 1.7530                 2.1529

                     19                     20                     21
                      A                      A                      A
 Frequencies --    302.6252               309.2762               350.5247
 Red. masses --      2.7649                 2.4909                 2.6988
 Frc consts  --      0.1492                 0.1404                 0.1954
 IR Inten    --      2.9856                 0.6422                10.1128

                     22                     23                     24
                      A                      A                      A
 Frequencies --    367.4589               432.6230               445.3680
 Red. masses --      3.4165                 2.3523                 2.8392
 Frc consts  --      0.2718                 0.2594                 0.3318
 IR Inten    --      0.4978                 8.6894                 1.3618

                     25                     26                     27
                      A                      A                      A
 Frequencies --    454.8990               461.8510               468.1170
 Red. masses --      2.7685                 3.0695                 3.9515
 Frc consts  --      0.3375                 0.3858                 0.5102
 IR Inten    --      0.8141                 7.0220                 2.3231

                     28                     29                     30
                      A                      A                      A
 Frequencies --    507.7402               522.8550               563.9459
 Red. masses --      3.4986                 4.3803                 4.3101
 Frc consts  --      0.5314                 0.7055                 0.8076
 IR Inten    --      6.2349                 6.6515                 0.9280

                     31                     32                     33
                      A                      A                      A
 Frequencies --    629.4683               635.6879               696.0949
 Red. masses --      2.3244                 3.7393                 3.9167
 Frc consts  --      0.5426                 0.8903                 1.1182
 IR Inten    --     11.3767                 2.9950                 1.2738

                     34                     35                     36
                      A                      A                      A
 Frequencies --    719.9043               741.1354               756.8817
 Red. masses --      3.8874                 3.3056                 4.2288
 Frc consts  --      1.1870                 1.0698                 1.4273
 IR Inten    --      2.9078                15.5975                15.9277

                     37                     38                     39
                      A                      A                      A
 Frequencies --    767.5334               797.5912               828.0052
 Red. masses --      4.1208                 1.1965                 1.9316
 Frc consts  --      1.4303                 0.4485                 0.7803
 IR Inten    --      2.2950                 2.3589                85.1048

                     40                     41                     42
                      A                      A                      A
 Frequencies --    857.5356               880.8816               899.4689
 Red. masses --      1.4858                 1.9413                 1.3890
 Frc consts  --      0.6437                 0.8875                 0.6621
 IR Inten    --     25.1089                10.5352                 1.9818

                     43                     44                     45
                      A                      A                      A
 Frequencies --    921.8504               953.7317               979.1289
 Red. masses --      1.8969                 2.8724                 1.3045
 Frc consts  --      0.9497                 1.5394                 0.7368
 IR Inten    --     16.4514                 1.0493                 8.5117

                     46                     47                     48
                      A                      A                      A
 Frequencies --   1006.7065              1016.7572              1030.0008
 Red. masses --      2.1688                 1.5984                 1.5025
 Frc consts  --      1.2950                 0.9736                 0.9392
 IR Inten    --      9.7412                 4.6957                12.8809

                     49                     50                     51
                      A                      A                      A
 Frequencies --   1039.6719              1046.1764              1059.9079
 Red. masses --      1.8103                 2.3347                 1.4305
 Frc consts  --      1.1529                 1.5055                 0.9469
 IR Inten    --      6.8093                26.0175                 5.2728

                     52                     53                     54
                      A                      A                      A
 Frequencies --   1085.6329              1094.1070              1106.3106
 Red. masses --      1.5958                 1.8787                 1.7902
 Frc consts  --      1.1081                 1.3250                 1.2909
 IR Inten    --      0.3163                82.3745                 9.5933

                     55                     56                     57
                      A                      A                      A
 Frequencies --   1123.8477              1136.8092              1159.8890
 Red. masses --      1.7224                 2.9141                 2.3816
 Frc consts  --      1.2817                 2.2188                 1.8878
 IR Inten    --     28.6972                15.3746                 4.0763

                     58                     59                     60
                      A                      A                      A
 Frequencies --   1163.0938              1171.4773              1197.5676
 Red. masses --      2.0927                 1.3590                 1.5430
 Frc consts  --      1.6680                 1.0989                 1.3038
 IR Inten    --     42.1338                11.5909                 1.2760

                     61                     62                     63
                      A                      A                      A
 Frequencies --   1213.6682              1247.2832              1270.1591
 Red. masses --      1.7763                 1.8949                 2.8599
 Frc consts  --      1.5416                 1.7369                 2.7184
 IR Inten    --     17.8522                 0.8181                12.5666

                     64                     65                     66
                      A                      A                      A
 Frequencies --   1279.6909              1281.8088              1334.5897
 Red. masses --      2.8819                 1.5545                 1.4283
 Frc consts  --      2.7806                 1.5048                 1.4989
 IR Inten    --      6.9059                 2.6280                 3.1972

                     67                     68                     69
                      A                      A                      A
 Frequencies --   1351.8139              1358.5150              1381.1262
 Red. masses --      1.6065                 3.2981                 1.5001
 Frc consts  --      1.7297                 3.5863                 1.6859
 IR Inten    --     58.9816                 6.3155                 7.6130

                     70                     71                     72
                      A                      A                      A
 Frequencies --   1384.7973              1393.5505              1406.7795
 Red. masses --      1.2873                 1.2727                 1.2526
 Frc consts  --      1.4544                 1.4561                 1.4606
 IR Inten    --     17.6443                 3.0527                 9.8918

                     73                     74                     75
                      A                      A                      A
 Frequencies --   1432.8729              1434.6582              1439.1051
 Red. masses --      1.2659                 1.2846                 1.2574
 Frc consts  --      1.5313                 1.5578                 1.5343
 IR Inten    --      3.3579                21.8359                 0.0898

                     76                     77                     78
                      A                      A                      A
 Frequencies --   1450.7768              1457.4915              1469.0956
 Red. masses --      1.2312                 1.8269                 2.3435
 Frc consts  --      1.5268                 2.2865                 2.9800
 IR Inten    --      0.1355                59.8774                 4.7389

                     79                     80                     81
                      A                      A                      A
 Frequencies --   1486.8615              1498.9343              1507.0352
 Red. masses --      1.2447                 1.1584                 1.1214
 Frc consts  --      1.6213                 1.5335                 1.5005
 IR Inten    --     23.3847                13.4871                 9.8903

                     82                     83                     84
                      A                      A                      A
 Frequencies --   1507.1730              1516.4499              1522.6343
 Red. masses --      1.0457                 1.1024                 1.0935
 Frc consts  --      1.3996                 1.4937                 1.4937
 IR Inten    --      0.0428                 6.4968                13.6870

                     85                     86                     87
                      A                      A                      A
 Frequencies --   1522.8926              1523.6892              1525.0857
 Red. masses --      1.1336                 1.0491                 1.1396
 Frc consts  --      1.5490                 1.4351                 1.5617
 IR Inten    --     17.7480                 4.2710                 0.4847

                     88                     89                     90
                      A                      A                      A
 Frequencies --   1527.8776              1534.3418              1536.5873
 Red. masses --      1.0688                 1.0785                 1.0806
 Frc consts  --      1.4700                 1.4960                 1.5033
 IR Inten    --      7.0425                 6.1035                12.2505

                     91                     92                     93
                      A                      A                      A
 Frequencies --   1551.2064              1554.4770              1555.3112
 Red. masses --      1.1141                 1.3241                 1.8339
 Frc consts  --      1.5795                 1.8852                 2.6137
 IR Inten    --     14.3744                41.5886                 6.1588

                     94                     95                     96
                      A                      A                      A
 Frequencies --   1632.6808              1676.6173              1727.8480
 Red. masses --      5.6266                 5.8109                 8.6124
 Frc consts  --      8.8368                 9.6241                15.1491
 IR Inten    --      2.0314                 2.6792               232.4284

                     97                     98                     99
                      A                      A                      A
 Frequencies --   3022.4836              3032.7627              3035.8062
 Red. masses --      1.0460                 1.0829                 1.0391
 Frc consts  --      5.6299                 5.8682                 5.6423
 IR Inten    --     78.1383                14.4429                10.8190

                    100                    101                    102
                      A                      A                      A
 Frequencies --   3036.9707              3054.1032              3054.7780
 Red. masses --      1.0380                 1.0367                 1.0388
 Frc consts  --      5.6408                 5.6976                 5.7115
 IR Inten    --     64.2183                25.5574                33.0782

                    103                    104                    105
                      A                      A                      A
 Frequencies --   3059.1434              3066.9372              3081.8555
 Red. masses --      1.0607                 1.0680                 1.1001
 Frc consts  --      5.8483                 5.9186                 6.1563
 IR Inten    --     27.6856                33.8488                39.2992

                    106                    107                    108
                      A                      A                      A
 Frequencies --   3083.8474              3085.9364              3103.7163
 Red. masses --      1.1001                 1.0949                 1.1048
 Frc consts  --      6.1640                 6.1433                 6.2704
 IR Inten    --      3.9073                44.8842                17.7297

                    109                    110                    111
                      A                      A                      A
 Frequencies --   3114.3624              3120.9133              3124.5601
 Red. masses --      1.1019                 1.0976                 1.0999
 Frc consts  --      6.2972                 6.2988                 6.3269
 IR Inten    --     26.3005                24.9019                24.9716

                    112                    113                    114
                      A                      A                      A
 Frequencies --   3127.5783              3138.6255              3146.5997
 Red. masses --      1.0995                 1.0974                 1.1027
 Frc consts  --      6.3365                 6.3694                 6.4328
 IR Inten    --     11.4415                18.2757                16.0952

                    115                    116                    117
                      A                      A                      A
 Frequencies --   3151.1120              3154.0040              3178.4077
 Red. masses --      1.1022                 1.0891                 1.0983
 Frc consts  --      6.4483                 6.3835                 6.5369
 IR Inten    --     21.6497                27.5418                17.1313

                    118                    119                    120
                      A                      A                      A
 Frequencies --   3179.0093              3202.5160              3470.9787
 Red. masses --      1.0888                 1.0940                 1.0738
 Frc consts  --      6.4828                 6.6105                 7.6223
 IR Inten    --     14.8424                 3.7709                 1.2921

 - Thermochemistry -
 -------------------
 Temperature   298.150 Kelvin.  Pressure   1.00000 Atm.
 Atom     1 has atomic number  6 and mass  12.00000

 Molecular mass:   248.18886 amu.
 Principal axes and moments of inertia in atomic units:
                           1         2         3
     Eigenvalues --  1915.842939601.15039**********
           X            0.99999   0.00132  -0.00311
           Y           -0.00129   0.99997   0.00744
           Z            0.00311  -0.00743   0.99997
 This molecule is an asymmetric top.
 Rotational symmetry number  1.
 Warning -- assumption of classical behavior for rotation
           may cause significant error
 Rotational temperatures (Kelvin)      0.04521     0.00902     0.00839
 Rotational constants (GHZ):           0.94201     0.18797     0.17481
 Zero-point vibrational energy     979585.3 (Joules/Mol)
                                  234.12651 (Kcal/Mol)
 Warning -- explicit consideration of  30 degrees of freedom as
           vibrations may cause significant error
 Vibrational temperatures:     40.58    46.94    75.42    89.55   106.76
          (Kelvin)            126.10   170.54   199.72   211.40   229.85
                              249.75   285.72   312.70   323.97   339.18
                              365.07   381.07   418.53   435.41   444.98
                              504.33   528.69   622.45   640.79   654.50
                              664.50   673.52   730.52   752.27   811.39
                              905.66   914.61  1001.53  1035.78  1066.33
                             1088.98  1104.31  1147.56  1191.31  1233.80
                             1267.39  1294.14  1326.34  1372.21  1408.75
                             1448.43  1462.89  1481.94  1495.86  1505.21
                             1524.97  1561.98  1574.18  1591.73  1616.97
                             1635.61  1668.82  1673.43  1685.49  1723.03
                             1746.20  1794.56  1827.48  1841.19  1844.24
                             1920.18  1944.96  1954.60  1987.13  1992.41
                             2005.01  2024.04  2061.58  2064.15  2070.55
                             2087.34  2097.01  2113.70  2139.26  2156.63
                             2168.29  2168.49  2181.83  2190.73  2191.10
                             2192.25  2194.26  2198.28  2207.58  2210.81
                             2231.84  2236.55  2237.75  2349.06  2412.28
                             2485.99  4348.68  4363.47  4367.85  4369.52
                             4394.17  4395.14  4401.43  4412.64  4434.10
                             4436.97  4439.97  4465.56  4480.87  4490.30
                             4495.55  4499.89  4515.78  4527.26  4533.75
                             4537.91  4573.02  4573.89  4607.71  4993.96

 Zero-point correction=                           0.373104 (Hartree/Particle)
 Thermal correction to Energy=                    0.392931
 Thermal correction to Enthalpy=                  0.393875
 Thermal correction to Gibbs Free Energy=         0.324320
 Sum of electronic and zero-point Energies=           -770.503414
 Sum of electronic and thermal Energies=              -770.483587
 Sum of electronic and thermal Enthalpies=            -770.482643
 Sum of electronic and thermal Free Energies=         -770.552199

                     E (Thermal)             CV                S
                      KCal/Mol        Cal/Mol-Kelvin    Cal/Mol-Kelvin
 Total                  246.568             74.069            146.392
 Electronic               0.000              0.000              0.000
 Translational            0.889              2.981             42.428
 Rotational               0.889              2.981             33.607
 Vibrational            244.791             68.108             70.358
 Vibration     1          0.593              1.984              5.952
 Vibration     2          0.594              1.983              5.663
 Vibration     3          0.596              1.977              4.724
 Vibration     4          0.597              1.972              4.385
 Vibration     5          0.599              1.966              4.039
 Vibration     6          0.601              1.958              3.712
 Vibration     7          0.609              1.934              3.124
 Vibration     8          0.614              1.915              2.820
 Vibration     9          0.617              1.906              2.712
 Vibration    10          0.622              1.892              2.553
 Vibration    11          0.627              1.875              2.396
 Vibration    12          0.637              1.842              2.146
 Vibration    13          0.646              1.815              1.981
 Vibration    14          0.650              1.803              1.917
 Vibration    15          0.655              1.786              1.835
 Vibration    16          0.665              1.756              1.704
 Vibration    17          0.671              1.737              1.630
 Vibration    18          0.687              1.691              1.469
 Vibration    19          0.694              1.669              1.402
 Vibration    20          0.699              1.656              1.366
 Vibration    21          0.727              1.574              1.164
 Vibration    22          0.740              1.539              1.090
 Vibration    23          0.794              1.399              0.850
 Vibration    24          0.805              1.371              0.810
 Vibration    25          0.813              1.350              0.781
 Vibration    26          0.820              1.335              0.761
 Vibration    27          0.825              1.321              0.743
 Vibration    28          0.863              1.233              0.639
 Vibration    29          0.878              1.199              0.603
 Vibration    30          0.920              1.109              0.516

                           ! Non-Optimized Parameters !
 Normal termination of Gaussian 16 at Fri Dec 11 23:55:31 2020.

 ----------------------------------------------------------------------
 # B3LYP/6-311++G(d,p) empiricaldispersion=gd3bj scf=xqc pop=npa geom=c
 heck
 ----------------------------------------------------------------------

 ---------------------------------------
 CID_113776408_JID_8968_Energie_neutraal
 ---------------------------------------
 Structure from the checkpoint file:  "JID_8968.chk"
 Charge =  0 Multiplicity = 1

 SCF Done:  E(RB3LYP) =  -771.088396922     A.U. after   15 cycles
 Normal termination of Gaussian 16 at Sat Dec 12 00:04:34 2020.

 ----------------------------------------------------------------------
 # B3LYP/6-311++G(d,p) empiricaldispersion=gd3bj scf=xqc pop=npa geom=c
 heck
 ----------------------------------------------------------------------

 -------------------------------------
 CID_113776408_JID_8968_Energie_kation
 -------------------------------------
 Structure from the checkpoint file:  "JID_8968.chk"
 Charge =  1 Multiplicity = 2

 SCF Done:  E(UB3LYP) =  -770.800421279     A.U. after   32 cycles
 Normal termination of Gaussian 16 at Sat Dec 12 00:31:46 2020.
 Gaussian 16:  ES64L-G16RevA.03 25-Dec-2016

 ----------------------------------------------------------------------
 # B3LYP/6-311++G(d,p) empiricaldispersion=gd3bj scf=xqc pop=npa geom=c
 heck
 ----------------------------------------------------------------------

 ------------------------------------
 CID_113776408_JID_8968_Energie_anion
 ------------------------------------
 Structure from the checkpoint file:  "JID_8968.chk"
 Charge = -1 Multiplicity = 2

                         Standard orientation:
 ---------------------------------------------------------------------
 Center     Atomic      Atomic             Coordinates (Angstroms)
 Number     Number       Type             X           Y           Z
 ---------------------------------------------------------------------
      1          6           0        5.159995   -1.375787   -0.021200
      2          6           0        4.073813   -0.957005   -1.013508
      3          7           0        3.164376    0.053240   -0.464542
      4          6           0        3.594031    1.441978   -0.570795
      5          6           0        2.129557   -0.402177    0.305341
      6          8           0        1.941294   -1.610580    0.467712
      7          6           0        1.171654    0.582001    1.005674
      8          6           0        1.829945    1.217564    2.235817
      9          7           0        0.660489    1.623212    0.108360
     10          6           0       -0.108443    1.109852   -1.042897
     11          6           0       -1.383522    0.372365   -0.690285
     12          6           0       -2.594316    1.068109   -0.597114
     13          6           0       -3.785621    0.443874   -0.221345
     14          6           0       -3.769934   -0.934131    0.077319
     15          6           0       -2.560984   -1.629061   -0.015412
     16          6           0       -1.378867   -0.994726   -0.395736
     17          6           0       -5.034042   -1.648413    0.485750
     18          6           0       -5.068569    1.233741   -0.143349
     19          1           0        5.763203   -0.518527    0.298711
     20          1           0        5.832906   -2.111086   -0.476576
     21          1           0        4.699326   -1.829735    0.860639
     22          1           0        4.519009   -0.535488   -1.921721
     23          1           0        3.472862   -1.824020   -1.292747
     24          1           0        2.757717    2.100438   -0.342062
     25          1           0        4.440705    1.655715    0.096735
     26          1           0        3.917881    1.635248   -1.599702
     27          1           0        0.372649   -0.081645    1.362697
     28          1           0        2.650783    1.886990    1.964556
     29          1           0        1.089321    1.799392    2.797801
     30          1           0        2.216565    0.437882    2.899231
     31          1           0        0.055491    2.236516    0.654487
     32          1           0       -0.340951    1.971344   -1.679102
     33          1           0        0.562413    0.460675   -1.615759
     34          1           0       -2.612234    2.131495   -0.833385
     35          1           0       -2.544619   -2.691810    0.214431
     36          1           0       -0.451340   -1.558573   -0.444060
     37          1           0       -5.472005   -1.211873    1.392750
     38          1           0       -5.804146   -1.588271   -0.294297
     39          1           0       -4.841410   -2.706819    0.683905
     40          1           0       -5.500461    1.206530    0.865465
     41          1           0       -4.903338    2.282412   -0.408057
     42          1           0       -5.832922    0.833587   -0.821919
 ---------------------------------------------------------------------

 SCF Done:  E(UB3LYP) =  -771.075824005     A.U. after   33 cycles
 SCF Done:  E(UB3LYP) =  -771.075824005     a.u. after    1 cycles

 The electronic state is 2-A.
 Alpha  occ. eigenvalues --  -18.99436 -14.25296 -14.21606 -10.17692 -10.11719
 Alpha  occ. eigenvalues --  -10.11306 -10.10743 -10.10243 -10.08990 -10.08940
 Alpha  occ. eigenvalues --  -10.08380 -10.08152 -10.07992 -10.07990 -10.07815
 Alpha  occ. eigenvalues --  -10.07616 -10.07500 -10.07471  -0.94686  -0.84468
 Alpha  occ. eigenvalues --   -0.82514  -0.77044  -0.70129  -0.67875  -0.67349
 Alpha  occ. eigenvalues --   -0.66213  -0.61678  -0.61384  -0.59445  -0.56923
 Alpha  occ. eigenvalues --   -0.55746  -0.52932  -0.50790  -0.47573  -0.44918
 Alpha  occ. eigenvalues --   -0.41228  -0.41008  -0.39624  -0.38858  -0.37883
 Alpha  occ. eigenvalues --   -0.37490  -0.36349  -0.35864  -0.34670  -0.34492
 Alpha  occ. eigenvalues --   -0.32818  -0.32333  -0.31860  -0.31453  -0.31197
 Alpha  occ. eigenvalues --   -0.31162  -0.30480  -0.30115  -0.29935  -0.29403
 Alpha  occ. eigenvalues --   -0.28500  -0.27572  -0.27220  -0.26553  -0.25789
 Alpha  occ. eigenvalues --   -0.25404  -0.24969  -0.24332  -0.16643  -0.16193
 Alpha  occ. eigenvalues --   -0.15459  -0.14951  -0.14086   0.03896
 Alpha virt. eigenvalues --    0.05163   0.06337   0.06680   0.07212   0.07478
 Alpha virt. eigenvalues --    0.07600   0.08066   0.08520   0.08894   0.09344
 Alpha virt. eigenvalues --    0.09584   0.09876   0.10123   0.10260   0.10871

  Beta  occ. eigenvalues --  -18.99434 -14.25294 -14.21591 -10.17691 -10.11717
  Beta  occ. eigenvalues --  -10.11294 -10.10735 -10.10208 -10.08983 -10.08934
  Beta  occ. eigenvalues --  -10.08378 -10.08130 -10.07991 -10.07970 -10.07802
  Beta  occ. eigenvalues --  -10.07580 -10.07492 -10.07449  -0.94683  -0.84459
  Beta  occ. eigenvalues --   -0.82494  -0.77028  -0.70109  -0.67851  -0.67323
  Beta  occ. eigenvalues --   -0.66187  -0.61643  -0.61338  -0.59398  -0.56883
  Beta  occ. eigenvalues --   -0.55711  -0.52892  -0.50763  -0.47540  -0.44887
  Beta  occ. eigenvalues --   -0.41206  -0.40981  -0.39592  -0.38835  -0.37861
  Beta  occ. eigenvalues --   -0.37461  -0.36325  -0.35831  -0.34633  -0.34467
  Beta  occ. eigenvalues --   -0.32793  -0.32309  -0.31836  -0.31425  -0.31164
  Beta  occ. eigenvalues --   -0.31131  -0.30447  -0.30090  -0.29903  -0.29377
  Beta  occ. eigenvalues --   -0.28469  -0.27554  -0.27202  -0.26530  -0.25768
  Beta  occ. eigenvalues --   -0.25378  -0.24944  -0.24313  -0.16635  -0.16173
  Beta  occ. eigenvalues --   -0.15443  -0.14914  -0.14062
  Beta virt. eigenvalues --    0.05795   0.06046   0.06872   0.07078   0.07521
  Beta virt. eigenvalues --    0.07665   0.07918   0.08260   0.08780   0.09135
  Beta virt. eigenvalues --    0.09684   0.09793   0.10020   0.10318   0.10510

 Mulliken charges and spin densities:
               1          2
     1  C    0.371520  -0.851897
     2  C   -0.322963   0.337767
     3  N    0.081713   0.136537
     4  C    0.716467  -1.123235
     5  C   -0.350381  -0.082947
     6  O   -0.268974   0.005863
     7  C   -0.799415   0.494473
     8  C    0.330715  -1.049474
     9  N    0.049778  -0.045499
    10  C   -0.348104  -0.192087
    11  C    1.198275  -0.475772
    12  C    1.252562  -1.799272
    13  C   -1.548800   1.706308
    14  C   -2.129922   2.587854
    15  C    0.178059  -0.542075
    16  C   -0.724480   0.473887
    17  C    0.551664  -1.168334
    18  C    1.826902  -2.454318
    19  H   -0.124960   0.262383
    20  H   -0.112629   0.246464
    21  H    0.092507   0.088805
    22  H   -0.159150   0.294497
    23  H    0.129062   0.038194
    24  H    0.210165   0.021406
    25  H   -0.289805   0.440810
    26  H   -0.203370   0.351791
    27  H    0.226960   0.001723
    28  H   -0.055226   0.215464
    29  H   -0.185141   0.332089
    30  H    0.077588   0.083192
    31  H    0.128630   0.120225
    32  H   -0.220524   0.429910
    33  H    0.216529  -0.039891
    34  H   -0.180788   0.303860
    35  H    0.125692   0.018091
    36  H    0.123508   0.068721
    37  H   -0.030216   0.183405
    38  H   -0.088960   0.241734
    39  H   -0.010420   0.149709
    40  H   -0.123975   0.274498
    41  H   -0.581968   0.742448
    42  H   -0.028127   0.172695
 Sum of Mulliken charges =  -1.00000   1.00000

 Dipole moment (field-independent basis, Debye):
    X=              0.3722    Y=             -2.9869    Z=             -0.1542  Tot=              3.0139
 Quadrupole moment (field-independent basis, Debye-Ang):
   XX=           -234.1736   YY=           -157.8039   ZZ=           -145.4031
   XY=              4.8852   XZ=              1.5003   YZ=              1.4185

 Summary of Natural Population Analysis:

                                       Natural Population
                Natural  -----------------------------------------------
    Atom  No    Charge         Core      Valence    Rydberg      Total
 -----------------------------------------------------------------------
      C    1   -0.29250      0.99966     2.28809    0.00475     3.29250
      C    2   -0.08600      0.99962     2.07539    0.01099     3.08600
      N    3   -0.25290      0.99964     2.74210    0.01116     3.75290
      C    4   -0.18453      0.99962     2.17684    0.00806     3.18453
      C    5    0.34403      0.99960     1.63121    0.02517     2.65597
      O    6   -0.33352      0.99988     3.32870    0.00494     4.33352
      C    7   -0.05039      0.99956     2.03870    0.01214     3.05039
      C    8   -0.28431      0.99964     2.27898    0.00568     3.28431
      N    9   -0.33871      0.99974     2.82717    0.01180     3.83871
      C   10   -0.09547      0.99958     2.08360    0.01229     3.09547
      C   11   -0.02894      0.99950     2.02018    0.00926     3.02894
      C   12   -0.09670      0.99947     2.08729    0.00994     3.09670
      C   13   -0.01285      0.99948     2.00369    0.00968     3.01285
      C   14   -0.01746      0.99947     2.00832    0.00966     3.01746
      C   15   -0.09664      0.99952     2.08896    0.00817     3.09664
      C   16   -0.10333      0.99951     2.09539    0.00844     3.10333
      C   17   -0.29265      0.99964     2.28847    0.00454     3.29265
      C   18   -0.29476      0.99964     2.28932    0.00581     3.29476
      H   19    0.09823      0.00000     0.40071    0.00106     0.40177
      H   20    0.09820      0.00000     0.40100    0.00080     0.40180
      H   21    0.10502      0.00000     0.39411    0.00088     0.39498
      H   22    0.09274      0.00000     0.40608    0.00118     0.40726
      H   23    0.10727      0.00000     0.39158    0.00115     0.39273
      H   24    0.12045      0.00000     0.37781    0.00174     0.37955
      H   25    0.09143      0.00000     0.40695    0.00162     0.40857
      H   26    0.09522      0.00000     0.40343    0.00136     0.40478
      H   27    0.10162      0.00000     0.39586    0.00253     0.39838
      H   28    0.10220      0.00000     0.39665    0.00115     0.39780
      H   29    0.10082      0.00000     0.39824    0.00094     0.39918
      H   30    0.10445      0.00000     0.39473    0.00082     0.39555
      H   31    0.17613      0.00000     0.32109    0.00278     0.32387
      H   32    0.09896      0.00000     0.39998    0.00105     0.40104
      H   33    0.09743      0.00000     0.40080    0.00178     0.40257
      H   34    0.09789      0.00000     0.40041    0.00170     0.40211
      H   35    0.09669      0.00000     0.40211    0.00121     0.40331
      H   36    0.11151      0.00000     0.38687    0.00162     0.38849
      H   37    0.10411      0.00000     0.39458    0.00131     0.39589
      H   38    0.10386      0.00000     0.39474    0.00140     0.39614
      H   39    0.10047      0.00000     0.39866    0.00088     0.39953
      H   40    0.10521      0.00000     0.39338    0.00141     0.39479
      H   41    0.10426      0.00000     0.39451    0.00122     0.39574
      H   42    0.10347      0.00000     0.39540    0.00113     0.39653
 =======================================================================
   * Total *    0.00000     17.99275    49.80206    0.20519    68.00000

 Normal termination of Gaussian 16 at Sat Dec 12 00:59:39 2020.
