 Gaussian 16, Revision A.03,

 -----------------------------------------------------------
 # opt freq B3LYP/6-31G(d) empiricaldispersion=gd3bj scf=xqc
 -----------------------------------------------------------

 -------------------------------
 CID_78977971_JID_10741_neutraal
 -------------------------------
 Symbolic Z-matrix:
 Charge =  0 Multiplicity = 1

 SCF Done:  E(RB3LYP) =  -898.998598661     A.U. after   15 cycles
 SCF Done:  E(RB3LYP) =  -899.002413815     A.U. after   15 cycles
 SCF Done:  E(RB3LYP) =  -898.999928553     A.U. after   15 cycles
 SCF Done:  E(RB3LYP) =  -899.003110906     A.U. after   13 cycles
 SCF Done:  E(RB3LYP) =  -899.005187672     A.U. after   14 cycles
 SCF Done:  E(RB3LYP) =  -899.006177061     A.U. after   12 cycles
 SCF Done:  E(RB3LYP) =  -899.006160551     A.U. after   13 cycles
 SCF Done:  E(RB3LYP) =  -899.006981191     A.U. after   12 cycles
 SCF Done:  E(RB3LYP) =  -899.007183740     A.U. after   12 cycles
 SCF Done:  E(RB3LYP) =  -899.007393283     A.U. after   12 cycles
 SCF Done:  E(RB3LYP) =  -899.008446426     A.U. after    8 cycles
 SCF Done:  E(RB3LYP) =  -899.008447362     A.U. after    9 cycles
 SCF Done:  E(RB3LYP) =  -899.008447440     A.U. after    7 cycles
 SCF Done:  E(RB3LYP) =  -899.008447549     A.U. after    7 cycles
 SCF Done:  E(RB3LYP) =  -899.008447572     A.U. after    7 cycles
 Optimization completed.
    -- Stationary point found.
 Normal termination of Gaussian 16 at Mon Dec 14 14:05:56 2020.

 --------------------------------------------------------------------
 #N Geom=AllCheck Guess=TCheck SCRF=Check GenChk RB3LYP/6-31G(d) Freq
 --------------------------------------------------------------------

 Structure from the checkpoint file:  "JID_10741.chk"
 -------------------------------
 CID_78977971_JID_10741_neutraal
 -------------------------------
 Charge =  0 Multiplicity = 1

 SCF Done:  E(RB3LYP) =  -899.008447572     A.U. after    1 cycles

  Exact polarizability: 245.363  28.159 164.179 -14.657  11.626 137.839
 Approx polarizability: 322.273  44.748 253.304 -30.372  30.458 223.795

                      1                      2                      3
                      A                      A                      A
 Frequencies --     18.9857                23.4756                31.2122
 Red. masses --      5.4269                 4.1012                 5.3477
 Frc consts  --      0.0012                 0.0013                 0.0031
 IR Inten    --      1.3759                 0.4167                 2.0473

                      4                      5                      6
                      A                      A                      A
 Frequencies --     52.0823                55.8943                66.1589
 Red. masses --      5.2501                 5.1001                 4.0702
 Frc consts  --      0.0084                 0.0094                 0.0105
 IR Inten    --      0.9721                 2.1142                 1.1483

                      7                      8                      9
                      A                      A                      A
 Frequencies --     76.3928                91.3785               105.9631
 Red. masses --      5.1061                 4.7277                 2.7679
 Frc consts  --      0.0176                 0.0233                 0.0183
 IR Inten    --      0.2630                 0.1522                 1.0934

                     10                     11                     12
                      A                      A                      A
 Frequencies --    143.7264               155.6029               183.8975
 Red. masses --      4.3890                 3.9783                 3.6447
 Frc consts  --      0.0534                 0.0568                 0.0726
 IR Inten    --      0.8329                 1.1743                 1.7995

                     13                     14                     15
                      A                      A                      A
 Frequencies --    191.9270               207.9587               230.1819
 Red. masses --      1.1080                 3.3246                 2.7817
 Frc consts  --      0.0240                 0.0847                 0.0868
 IR Inten    --      0.1284                 2.6748                 3.6588

                     16                     17                     18
                      A                      A                      A
 Frequencies --    304.4068               322.6931               350.5225
 Red. masses --      2.9310                 3.5959                 2.6785
 Frc consts  --      0.1600                 0.2206                 0.1939
 IR Inten    --      2.5889                 2.1753                 4.7255

                     19                     20                     21
                      A                      A                      A
 Frequencies --    369.9927               379.5624               388.7768
 Red. masses --      3.5337                 3.8414                 3.5362
 Frc consts  --      0.2850                 0.3261                 0.3149
 IR Inten    --      9.2193                 5.3132                 0.3107

                     22                     23                     24
                      A                      A                      A
 Frequencies --    415.4217               426.9132               462.4720
 Red. masses --      3.8374                 3.2017                 2.8009
 Frc consts  --      0.3902                 0.3438                 0.3530
 IR Inten    --     11.7193                 0.9937                 2.9595

                     25                     26                     27
                      A                      A                      A
 Frequencies --    511.5144               526.6908               531.0177
 Red. masses --      3.1623                 2.3890                 1.8379
 Frc consts  --      0.4875                 0.3905                 0.3053
 IR Inten    --      4.9387                10.3319                40.0910

                     28                     29                     30
                      A                      A                      A
 Frequencies --    555.5609               571.5869               605.9979
 Red. masses --      2.7724                 2.8159                 1.2875
 Frc consts  --      0.5042                 0.5420                 0.2786
 IR Inten    --     15.1846                 6.0904                71.5342

                     31                     32                     33
                      A                      A                      A
 Frequencies --    635.3877               654.4954               661.3787
 Red. masses --      4.5190                 2.3750                 3.0214
 Frc consts  --      1.0749                 0.5994                 0.7787
 IR Inten    --     11.7444                62.1886                33.7395

                     34                     35                     36
                      A                      A                      A
 Frequencies --    725.5938               736.9151               754.1424
 Red. masses --      2.9506                 3.7854                 1.8117
 Frc consts  --      0.9153                 1.2111                 0.6071
 IR Inten    --     53.6532                 1.9560                17.8625

                     37                     38                     39
                      A                      A                      A
 Frequencies --    773.3867               787.9389               807.1898
 Red. masses --      2.1110                 1.4608                 1.7259
 Frc consts  --      0.7439                 0.5344                 0.6625
 IR Inten    --     27.1166                13.1482                30.5159

                     40                     41                     42
                      A                      A                      A
 Frequencies --    843.6794               845.0964               854.4776
 Red. masses --      2.5406                 1.3815                 1.6355
 Frc consts  --      1.0655                 0.5813                 0.7035
 IR Inten    --      7.3911                21.9716                 2.7302

                     43                     44                     45
                      A                      A                      A
 Frequencies --    856.3142               879.6121               892.5704
 Red. masses --      1.8632                 2.1079                 2.4375
 Frc consts  --      0.8050                 0.9609                 1.1441
 IR Inten    --     17.4334                18.3293                 6.5886

                     46                     47                     48
                      A                      A                      A
 Frequencies --    934.0238               950.5977               956.6122
 Red. masses --      4.0878                 2.8656                 1.3542
 Frc consts  --      2.1011                 1.5257                 0.7302
 IR Inten    --      4.2293                 0.2290                 0.8679

                     49                     50                     51
                      A                      A                      A
 Frequencies --    965.5740               976.7268              1007.5938
 Red. masses --      2.3160                 1.3318                 1.9339
 Frc consts  --      1.2722                 0.7486                 1.1568
 IR Inten    --      6.8690                 2.9583                 3.4228

                     52                     53                     54
                      A                      A                      A
 Frequencies --   1039.2878              1041.7462              1047.1949
 Red. masses --      1.5835                 2.6243                 1.7803
 Frc consts  --      1.0077                 1.6780                 1.1502
 IR Inten    --     35.4039                 3.4182                16.1762

                     55                     56                     57
                      A                      A                      A
 Frequencies --   1054.0425              1068.2982              1070.9208
 Red. masses --      1.9633                 1.7138                 1.4702
 Frc consts  --      1.2851                 1.1524                 0.9935
 IR Inten    --     11.6395                 8.2258                13.3359

                     58                     59                     60
                      A                      A                      A
 Frequencies --   1089.3288              1123.4860              1138.1478
 Red. masses --      1.3534                 2.0334                 2.6737
 Frc consts  --      0.9463                 1.5122                 2.0406
 IR Inten    --      0.8058                 0.7424                27.0660

                     61                     62                     63
                      A                      A                      A
 Frequencies --   1149.2528              1154.7305              1208.5906
 Red. masses --      1.3457                 1.1438                 1.7212
 Frc consts  --      1.0472                 0.8986                 1.4813
 IR Inten    --     10.3571                 1.7651                19.8884

                     64                     65                     66
                      A                      A                      A
 Frequencies --   1212.5714              1213.1949              1219.6765
 Red. masses --      1.2853                 1.4228                 1.4771
 Frc consts  --      1.1135                 1.2338                 1.2947
 IR Inten    --     14.3697                 5.9742                33.1067

                     67                     68                     69
                      A                      A                      A
 Frequencies --   1234.3812              1246.3959              1262.3569
 Red. masses --      1.2604                 2.4164                 2.6557
 Frc consts  --      1.1315                 2.2118                 2.4934
 IR Inten    --     19.8310                 5.8381                18.7354

                     70                     71                     72
                      A                      A                      A
 Frequencies --   1265.6144              1302.2801              1333.1248
 Red. masses --      1.7348                 1.3964                 1.6064
 Frc consts  --      1.6372                 1.3953                 1.6821
 IR Inten    --      9.1966                17.5575                15.5932

                     73                     74                     75
                      A                      A                      A
 Frequencies --   1346.7802              1350.0165              1362.5859
 Red. masses --      2.7086                 1.6145                 2.7623
 Frc consts  --      2.8946                 1.7336                 3.0216
 IR Inten    --    309.1636                37.7630                80.4247

                     76                     77                     78
                      A                      A                      A
 Frequencies --   1396.2208              1400.6816              1422.1790
 Red. masses --      1.2881                 1.6183                 1.5053
 Frc consts  --      1.4795                 1.8706                 1.7938
 IR Inten    --     26.0076               131.9654                11.2447

                     79                     80                     81
                      A                      A                      A
 Frequencies --   1426.9729              1430.6921              1446.8700
 Red. masses --      1.3997                 1.6784                 1.9859
 Frc consts  --      1.6792                 2.0242                 2.4494
 IR Inten    --     96.1468                18.6064                11.0444

                     82                     83                     84
                      A                      A                      A
 Frequencies --   1470.7682              1486.1943              1502.1848
 Red. masses --      1.8751                 1.1205                 1.1409
 Frc consts  --      2.3898                 1.4582                 1.5169
 IR Inten    --     38.5722                 1.3306                40.3166

                     85                     86                     87
                      A                      A                      A
 Frequencies --   1505.9419              1508.1759              1511.1375
 Red. masses --      1.5271                 1.2155                 1.1012
 Frc consts  --      2.0405                 1.6289                 1.4816
 IR Inten    --      9.1574                13.7668                 9.2214

                     88                     89                     90
                      A                      A                      A
 Frequencies --   1517.2923              1522.4679              1528.4555
 Red. masses --      1.1030                 1.2553                 1.3729
 Frc consts  --      1.4962                 1.7144                 1.8897
 IR Inten    --     19.0714                36.2759                15.9392

                     91                     92                     93
                      A                      A                      A
 Frequencies --   1547.8242              1568.6578              1637.7720
 Red. masses --      1.1028                 2.6524                 5.9600
 Frc consts  --      1.5567                 3.8455                 9.4190
 IR Inten    --     10.9668               121.2817                 4.1976

                     94                     95                     96
                      A                      A                      A
 Frequencies --   1676.8788              1785.8882              1795.2536
 Red. masses --      5.9092                 8.0089                 7.9181
 Frc consts  --      9.7900                15.0499                15.0356
 IR Inten    --     40.0345               363.1410               471.1950

                     97                     98                     99
                      A                      A                      A
 Frequencies --   2972.7338              3022.6809              3059.9427
 Red. masses --      1.0699                 1.0890                 1.0611
 Frc consts  --      5.5707                 5.8622                 5.8539
 IR Inten    --     51.3772                35.4961                41.7799

                    100                    101                    102
                      A                      A                      A
 Frequencies --   3068.8967              3087.3804              3108.6202
 Red. masses --      1.0396                 1.0625                 1.1052
 Frc consts  --      5.7689                 5.9670                 6.2927
 IR Inten    --      3.1545                14.9572                13.7745

                    103                    104                    105
                      A                      A                      A
 Frequencies --   3137.8254              3144.5050              3145.8766
 Red. masses --      1.0965                 1.0908                 1.0959
 Frc consts  --      6.3608                 6.3549                 6.3900
 IR Inten    --      8.2388                 8.5153                30.9482

                    106                    107                    108
                      A                      A                      A
 Frequencies --   3154.4999              3158.7613              3174.5736
 Red. masses --      1.0511                 1.0608                 1.1038
 Frc consts  --      6.1626                 6.2360                 6.5540
 IR Inten    --     14.2227                 4.2534                13.6193

                    109                    110                    111
                      A                      A                      A
 Frequencies --   3177.2866              3188.3466              3217.5241
 Red. masses --      1.0893                 1.0893                 1.0927
 Frc consts  --      6.4792                 6.5243                 6.6651
 IR Inten    --     19.8154                 9.8937                 4.4520

                    112                    113                    114
                      A                      A                      A
 Frequencies --   3229.9889              3234.3848              3247.2828
 Red. masses --      1.0918                 1.1201                 1.1166
 Frc consts  --      6.7111                 6.9037                 6.9373
 IR Inten    --      8.3729                 0.3194                16.4554

                    115                    116                    117
                      A                      A                      A
 Frequencies --   3493.1402              3570.4061              3581.0588
 Red. masses --      1.0739                 1.0755                 1.0754
 Frc consts  --      7.7206                 8.0779                 8.1252
 IR Inten    --      0.1579                16.1362                24.3003

 - Thermochemistry -
 -------------------
 Temperature   298.150 Kelvin.  Pressure   1.00000 Atm.
 Atom     1 has atomic number  6 and mass  12.00000

 Molecular mass:   275.16338 amu.
 Principal axes and moments of inertia in atomic units:
                           1         2         3
     Eigenvalues --  2678.66276********************
           X            1.00000   0.00019  -0.00042
           Y           -0.00018   0.99992   0.01236
           Z            0.00042  -0.01236   0.99992
 This molecule is an asymmetric top.
 Rotational symmetry number  1.
 Warning -- assumption of classical behavior for rotation
           may cause significant error
 Rotational temperatures (Kelvin)      0.03233     0.00659     0.00602
 Rotational constants (GHZ):           0.67375     0.13729     0.12546
 Zero-point vibrational energy     919064.0 (Joules/Mol)
                                  219.66157 (Kcal/Mol)
 Warning -- explicit consideration of  30 degrees of freedom as
           vibrations may cause significant error
 Vibrational temperatures:     27.32    33.78    44.91    74.93    80.42
          (Kelvin)             95.19   109.91   131.47   152.46   206.79
                              223.88   264.59   276.14   299.21   331.18
                              437.97   464.28   504.32   532.34   546.11
                              559.36   597.70   614.23   665.39   735.96
                              757.79   764.02   799.33   822.39   871.90
                              914.18   941.67   951.58  1043.97  1060.26
                             1085.04  1112.73  1133.67  1161.37  1213.87
                             1215.91  1229.40  1232.05  1265.57  1284.21
                             1343.85  1367.70  1376.35  1389.25  1405.29
                             1449.70  1495.30  1498.84  1506.68  1516.53
                             1537.04  1540.82  1567.30  1616.45  1637.54
                             1653.52  1661.40  1738.89  1744.62  1745.52
                             1754.84  1776.00  1793.29  1816.25  1820.94
                             1873.69  1918.07  1937.72  1942.37  1960.46
                             2008.85  2015.27  2046.20  2053.10  2058.45
                             2081.72  2116.11  2138.30  2161.31  2166.71
                             2169.93  2174.19  2183.05  2190.49  2199.11
                             2226.97  2256.95  2356.39  2412.65  2569.49
                             2582.97  4277.10  4348.96  4402.58  4415.46
                             4442.05  4472.61  4514.63  4524.24  4526.21
                             4538.62  4544.75  4567.50  4571.41  4587.32
                             4629.30  4647.23  4653.56  4672.12  5025.85
                             5137.02  5152.34

 Zero-point correction=                           0.350053 (Hartree/Particle)
 Thermal correction to Energy=                    0.370033
 Thermal correction to Enthalpy=                  0.370978
 Thermal correction to Gibbs Free Energy=         0.298371
 Sum of electronic and zero-point Energies=           -898.658395
 Sum of electronic and thermal Energies=              -898.638414
 Sum of electronic and thermal Enthalpies=            -898.637470
 Sum of electronic and thermal Free Energies=         -898.710077

                     E (Thermal)             CV                S
                      KCal/Mol        Cal/Mol-Kelvin    Cal/Mol-Kelvin
 Total                  232.199             75.020            152.814
 Electronic               0.000              0.000              0.000
 Translational            0.889              2.981             42.735
 Rotational               0.889              2.981             34.581
 Vibrational            230.422             69.059             75.498
 Vibration     1          0.593              1.986              6.738
 Vibration     2          0.593              1.985              6.316
 Vibration     3          0.594              1.983              5.751
 Vibration     4          0.596              1.977              4.737
 Vibration     5          0.596              1.975              4.597
 Vibration     6          0.598              1.970              4.265
 Vibration     7          0.599              1.965              3.981
 Vibration     8          0.602              1.955              3.630
 Vibration     9          0.605              1.944              3.342
 Vibration    10          0.616              1.909              2.754
 Vibration    11          0.620              1.896              2.603
 Vibration    12          0.631              1.862              2.288
 Vibration    13          0.634              1.851              2.209
 Vibration    14          0.641              1.829              2.062
 Vibration    15          0.652              1.795              1.878
 Vibration    16          0.695              1.665              1.393
 Vibration    17          0.708              1.630              1.296
 Vibration    18          0.727              1.574              1.164
 Vibration    19          0.742              1.534              1.080
 Vibration    20          0.750              1.514              1.041
 Vibration    21          0.757              1.494              1.005
 Vibration    22          0.779              1.437              0.908
 Vibration    23          0.789              1.412              0.869
 Vibration    24          0.820              1.333              0.759
 Vibration    25          0.867              1.224              0.630
 Vibration    26          0.882              1.191              0.595
 Vibration    27          0.886              1.181              0.585
 Vibration    28          0.911              1.128              0.533
 Vibration    29          0.928              1.093              0.501
 Vibration    30          0.965              1.019              0.439

 Optimization completed.
    -- Stationary point found.
 Normal termination of Gaussian 16 at Mon Dec 14 14:24:52 2020.

 ----------------------------------------------------------------------
 # B3LYP/6-311++G(d,p) empiricaldispersion=gd3bj scf=xqc pop=npa geom=c
 heck
 ----------------------------------------------------------------------

 ---------------------------------------
 CID_78977971_JID_10741_Energie_neutraal
 ---------------------------------------
 Structure from the checkpoint file:  "JID_10741.chk"
 Charge =  0 Multiplicity = 1

 SCF Done:  E(RB3LYP) =  -899.268978250     A.U. after   15 cycles
 Normal termination of Gaussian 16 at Mon Dec 14 14:32:42 2020.

 ----------------------------------------------------------------------
 # B3LYP/6-311++G(d,p) empiricaldispersion=gd3bj scf=xqc pop=npa geom=c
 heck
 ----------------------------------------------------------------------

 -------------------------------------
 CID_78977971_JID_10741_Energie_kation
 -------------------------------------
 Structure from the checkpoint file:  "JID_10741.chk"
 Charge =  1 Multiplicity = 2

 SCF Done:  E(UB3LYP) =  -898.974389860     A.U. after   29 cycles
 Normal termination of Gaussian 16 at Mon Dec 14 14:53:27 2020.
 Gaussian 16:  ES64L-G16RevA.03 25-Dec-2016

 ----------------------------------------------------------------------
 # B3LYP/6-311++G(d,p) empiricaldispersion=gd3bj scf=xqc pop=npa geom=c
 heck
 ----------------------------------------------------------------------

 ------------------------------------
 CID_78977971_JID_10741_Energie_anion
 ------------------------------------
 Structure from the checkpoint file:  "JID_10741.chk"
 Charge = -1 Multiplicity = 2

                         Standard orientation:
 ---------------------------------------------------------------------
 Center     Atomic      Atomic             Coordinates (Angstroms)
 Number     Number       Type             X           Y           Z
 ---------------------------------------------------------------------
      1          6           0        5.324599    0.825233    1.115502
      2          6           0        5.377550    0.376057   -0.331799
      3          8           0        6.395869    0.462197   -1.001802
      4          7           0        4.233703   -0.162722   -0.896884
      5          6           0        2.955101   -0.406862   -0.352639
      6          6           0        2.302244   -1.605985   -0.676737
      7          6           0        1.027577   -1.872540   -0.191216
      8          6           0        0.371188   -0.958481    0.643837
      9          6           0        1.022261    0.239235    0.951623
     10          6           0        2.292143    0.526150    0.453191
     11          6           0       -1.006911   -1.255802    1.186130
     12          7           0       -1.858276   -1.849430    0.157115
     13          6           0       -3.259437   -1.994252    0.536676
     14          6           0       -4.055832   -0.674129    0.683780
     15          6           0       -4.243692   -0.031419   -0.681415
     16          8           0       -5.030471   -0.497739   -1.496737
     17          7           0       -3.479447    1.068050   -1.001103
     18          6           0       -2.389136    1.646595   -0.270976
     19          6           0       -2.274974    3.148794   -0.269856
     20          6           0       -2.667591    2.428098    0.991811
     21          1           0        6.341960    0.777285    1.507093
     22          1           0        4.655121    0.215032    1.726678
     23          1           0        4.988898    1.866456    1.178202
     24          1           0        4.418162   -0.547690   -1.816320
     25          1           0        2.809722   -2.333169   -1.305302
     26          1           0        0.524885   -2.797825   -0.453965
     27          1           0        0.521968    0.973160    1.579401
     28          1           0        2.752397    1.483671    0.665976
     29          1           0       -0.941749   -1.981044    2.010878
     30          1           0       -1.415053   -0.329884    1.626698
     31          1           0       -1.781318   -1.312721   -0.705180
     32          1           0       -3.760720   -2.609226   -0.217952
     33          1           0       -3.294056   -2.543781    1.484799
     34          1           0       -5.058006   -0.908959    1.056198
     35          1           0       -3.571888   -0.005359    1.398543
     36          1           0       -3.606905    1.364126   -1.962691
     37          1           0       -1.448693    1.098815   -0.304982
     38          1           0       -1.280702    3.578789   -0.341318
     39          1           0       -3.050367    3.704607   -0.788987
     40          1           0       -3.703132    2.499682    1.308410
     41          1           0       -1.946107    2.356930    1.800752
 ---------------------------------------------------------------------

 SCF Done:  E(UB3LYP) =  -899.264314159     A.U. after   33 cycles
 SCF Done:  E(UB3LYP) =  -899.264314159     a.u. after    1 cycles

 The electronic state is 2-A.
 Alpha  occ. eigenvalues --  -19.00292 -18.99930 -14.25834 -14.25729 -14.21217
 Alpha  occ. eigenvalues --  -10.18735 -10.18577 -10.13787 -10.12401 -10.11167
 Alpha  occ. eigenvalues --  -10.10499 -10.10134 -10.09824 -10.08865 -10.08600
 Alpha  occ. eigenvalues --  -10.08511 -10.08322 -10.08260 -10.08177 -10.08097
 Alpha  occ. eigenvalues --   -0.95509  -0.95326  -0.85378  -0.84780  -0.82454
 Alpha  occ. eigenvalues --   -0.76490  -0.75914  -0.68763  -0.66520  -0.65657
 Alpha  occ. eigenvalues --   -0.64952  -0.59262  -0.55865  -0.54213  -0.53295
 Alpha  occ. eigenvalues --   -0.52622  -0.51553  -0.48329  -0.47859  -0.44970
 Alpha  occ. eigenvalues --   -0.44485  -0.41990  -0.41553  -0.39753  -0.39226
 Alpha  occ. eigenvalues --   -0.38316  -0.36873  -0.36228  -0.35630  -0.35305
 Alpha  occ. eigenvalues --   -0.34491  -0.33911  -0.33490  -0.32406  -0.31767
 Alpha  occ. eigenvalues --   -0.31453  -0.31235  -0.29619  -0.29479  -0.28798
 Alpha  occ. eigenvalues --   -0.28501  -0.27729  -0.27015  -0.25880  -0.25396
 Alpha  occ. eigenvalues --   -0.24079  -0.23055  -0.20755  -0.17726  -0.17377
 Alpha  occ. eigenvalues --   -0.17186  -0.16826  -0.14411  -0.13411   0.03776
 Alpha virt. eigenvalues --    0.05819   0.06051   0.06665   0.06993   0.07190
 Alpha virt. eigenvalues --    0.08000   0.08026   0.08479   0.08860   0.09242
 Alpha virt. eigenvalues --    0.09484   0.10060   0.10469   0.10617   0.11028

  Beta  occ. eigenvalues --  -19.00271 -18.99866 -14.25836 -14.25758 -14.21206
  Beta  occ. eigenvalues --  -10.18708 -10.18500 -10.13783 -10.12293 -10.11152
  Beta  occ. eigenvalues --  -10.10491 -10.10119 -10.09795 -10.08860 -10.08579
  Beta  occ. eigenvalues --  -10.08500 -10.08317 -10.08262 -10.08092 -10.08038
  Beta  occ. eigenvalues --   -0.95467  -0.95207  -0.85364  -0.84712  -0.82421
  Beta  occ. eigenvalues --   -0.76469  -0.75817  -0.68680  -0.66422  -0.65561
  Beta  occ. eigenvalues --   -0.64878  -0.59186  -0.55810  -0.54175  -0.53240
  Beta  occ. eigenvalues --   -0.52560  -0.51427  -0.48257  -0.47811  -0.44922
  Beta  occ. eigenvalues --   -0.44461  -0.41941  -0.41501  -0.39680  -0.39163
  Beta  occ. eigenvalues --   -0.38245  -0.36739  -0.36156  -0.35540  -0.35214
  Beta  occ. eigenvalues --   -0.34437  -0.33856  -0.33432  -0.32361  -0.31696
  Beta  occ. eigenvalues --   -0.31387  -0.31195  -0.29545  -0.29382  -0.28746
  Beta  occ. eigenvalues --   -0.28433  -0.27669  -0.26793  -0.25810  -0.25325
  Beta  occ. eigenvalues --   -0.24033  -0.23035  -0.20497  -0.17685  -0.17308
  Beta  occ. eigenvalues --   -0.17156  -0.16643  -0.14346  -0.13092
  Beta virt. eigenvalues --    0.06011   0.06483   0.06682   0.06920   0.07252
  Beta virt. eigenvalues --    0.07431   0.08201   0.08294   0.08853   0.09043
  Beta virt. eigenvalues --    0.09394   0.09696   0.10372   0.10624   0.10930

 Mulliken charges and spin densities:
               1          2
     1  C   -0.062442  -0.397704
     2  C    0.039256   0.058728
     3  O   -0.361024   0.025833
     4  N   -0.182921   0.002160
     5  C    0.055336  -0.207417
     6  C   -0.545219   0.240140
     7  C   -0.486650   0.133965
     8  C    1.063034  -0.123681
     9  C    0.154976  -0.272707
    10  C   -0.369415   0.304851
    11  C   -0.070285  -1.020577
    12  N    0.028083  -0.022443
    13  C    0.071929  -0.488892
    14  C    0.106582  -0.096862
    15  C   -0.049610  -0.032638
    16  O   -0.337897   0.007279
    17  N   -0.143926   0.027100
    18  C   -0.946993   0.615662
    19  C    0.492130  -0.961475
    20  C    0.153816  -0.361856
    21  H    0.146758   0.025539
    22  H    0.082832   0.082267
    23  H   -0.215131   0.401057
    24  H    0.285616  -0.002935
    25  H    0.101698   0.041926
    26  H    0.134691   0.064973
    27  H   -0.675265   0.834739
    28  H   -0.019537   0.214417
    29  H   -0.376342   0.561959
    30  H    0.434001  -0.272799
    31  H    0.135484   0.093746
    32  H    0.233892  -0.029020
    33  H   -0.139517   0.285720
    34  H   -0.102865   0.321888
    35  H   -0.157625   0.320356
    36  H    0.241748   0.043844
    37  H    0.618889  -0.411402
    38  H   -0.118798   0.288536
    39  H    0.072419   0.070613
    40  H   -0.025914   0.197508
    41  H   -0.265793   0.437603
 Sum of Mulliken charges =  -1.00000   1.00000

 Dipole moment (field-independent basis, Debye):
    X=             -1.5094    Y=             -1.6764    Z=             -3.4996  Tot=              4.1636
 Quadrupole moment (field-independent basis, Debye-Ang):
   XX=           -245.6232   YY=           -160.9438   ZZ=           -156.6835
   XY=            -16.6186   XZ=              2.0597   YZ=             -5.0060

 Summary of Natural Population Analysis:

                                       Natural Population
                Natural  -----------------------------------------------
    Atom  No    Charge         Core      Valence    Rydberg      Total
 -----------------------------------------------------------------------
      C    1   -0.33626      0.99962     2.33192    0.00472     3.33626
      C    2    0.35341      0.99971     1.62456    0.02232     2.64659
      O    3   -0.31855      0.99988     3.31273    0.00594     4.31855
      N    4   -0.31696      0.99964     2.80834    0.00898     3.81696
      C    5    0.08530      0.99947     1.90454    0.01070     2.91470
      C    6   -0.10807      0.99953     2.09977    0.00877     3.10807
      C    7   -0.09614      0.99952     2.08721    0.00941     3.09614
      C    8   -0.01370      0.99950     2.00424    0.00996     3.01370
      C    9   -0.08953      0.99951     2.07955    0.01047     3.08953
      C   10   -0.11119      0.99952     2.10196    0.00971     3.11119
      C   11   -0.09589      0.99959     2.08530    0.01101     3.09589
      N   12   -0.33690      0.99975     2.82703    0.01012     3.83690
      C   13   -0.08181      0.99963     2.07028    0.01190     3.08181
      C   14   -0.24626      0.99958     2.23891    0.00777     3.24626
      C   15    0.34895      0.99967     1.62824    0.02313     2.65105
      O   16   -0.32591      0.99988     3.32027    0.00577     4.32591
      N   17   -0.32236      0.99966     2.81288    0.00982     3.82236
      C   18   -0.03279      0.99957     2.02190    0.01132     3.03279
      C   19   -0.19495      0.99962     2.18628    0.00905     3.19495
      C   20   -0.19800      0.99962     2.18838    0.01000     3.19800
      H   21    0.11065      0.00000     0.38861    0.00073     0.38935
      H   22    0.11133      0.00000     0.38781    0.00086     0.38867
      H   23    0.11480      0.00000     0.38363    0.00157     0.38520
      H   24    0.19531      0.00000     0.30262    0.00206     0.30469
      H   25    0.09754      0.00000     0.40160    0.00086     0.40246
      H   26    0.10757      0.00000     0.39133    0.00110     0.39243
      H   27    0.10276      0.00000     0.39485    0.00239     0.39724
      H   28    0.10549      0.00000     0.39253    0.00197     0.39451
      H   29    0.09955      0.00000     0.39871    0.00174     0.40045
      H   30    0.08380      0.00000     0.41344    0.00276     0.41620
      H   31    0.17154      0.00000     0.32603    0.00242     0.32846
      H   32    0.09814      0.00000     0.40077    0.00109     0.40186
      H   33    0.09541      0.00000     0.40354    0.00105     0.40459
      H   34    0.11309      0.00000     0.38583    0.00108     0.38691
      H   35    0.10657      0.00000     0.39165    0.00178     0.39343
      H   36    0.19247      0.00000     0.30525    0.00228     0.30753
      H   37    0.10375      0.00000     0.39367    0.00259     0.39625
      H   38    0.10840      0.00000     0.39072    0.00089     0.39160
      H   39    0.10315      0.00000     0.39592    0.00092     0.39685
      H   40    0.10622      0.00000     0.39262    0.00116     0.39378
      H   41    0.11007      0.00000     0.38779    0.00214     0.38993
 =======================================================================
   * Total *   -0.00000     19.99245    53.76325    0.24430    74.00000

 Normal termination of Gaussian 16 at Mon Dec 14 15:16:58 2020.
