 Gaussian 16, Revision A.03,

 -----------------------------------------------------------
 # opt freq B3LYP/6-31G(d) empiricaldispersion=gd3bj scf=xqc
 -----------------------------------------------------------

 ------------------------------
 CID_81915161_JID_9509_neutraal
 ------------------------------
 Symbolic Z-matrix:
 Charge =  0 Multiplicity = 1

 SCF Done:  E(RB3LYP) =  -887.913928827     A.U. after   14 cycles
 SCF Done:  E(RB3LYP) =  -887.927285080     A.U. after   13 cycles
 SCF Done:  E(RB3LYP) =  -887.930314955     A.U. after   12 cycles
 SCF Done:  E(RB3LYP) =  -887.932103732     A.U. after   12 cycles
 SCF Done:  E(RB3LYP) =  -887.933328700     A.U. after   12 cycles
 SCF Done:  E(RB3LYP) =  -887.933665170     A.U. after   11 cycles
 SCF Done:  E(RB3LYP) =  -887.933871814     A.U. after   11 cycles
 SCF Done:  E(RB3LYP) =  -887.933907937     A.U. after   10 cycles
 SCF Done:  E(RB3LYP) =  -887.933936909     A.U. after   10 cycles
 SCF Done:  E(RB3LYP) =  -887.933967914     A.U. after   10 cycles
 SCF Done:  E(RB3LYP) =  -887.934364001     A.U. after    9 cycles
 SCF Done:  E(RB3LYP) =  -887.934365348     A.U. after    8 cycles
 SCF Done:  E(RB3LYP) =  -887.934366466     A.U. after    9 cycles
 SCF Done:  E(RB3LYP) =  -887.934367038     A.U. after    9 cycles
 SCF Done:  E(RB3LYP) =  -887.934367214     A.U. after    7 cycles
 Optimization completed.
    -- Stationary point found.
 Normal termination of Gaussian 16 at Sat Dec 12 10:08:27 2020.

 --------------------------------------------------------------------
 #N Geom=AllCheck Guess=TCheck SCRF=Check GenChk RB3LYP/6-31G(d) Freq
 --------------------------------------------------------------------

 Structure from the checkpoint file:  "JID_9509.chk"
 ------------------------------
 CID_81915161_JID_9509_neutraal
 ------------------------------
 Charge =  0 Multiplicity = 1

 SCF Done:  E(RB3LYP) =  -887.934367214     A.U. after    1 cycles

  Exact polarizability: 195.529  -1.816 182.988 -24.392  -4.544 110.532
 Approx polarizability: 269.553  -4.040 298.935 -52.358 -16.095 171.505

                      1                      2                      3
                      A                      A                      A
 Frequencies --     24.3409                29.7356                51.9291
 Red. masses --      4.4941                 4.8239                 2.5868
 Frc consts  --      0.0016                 0.0025                 0.0041
 IR Inten    --      0.2156                 0.1714                 0.3580

                      4                      5                      6
                      A                      A                      A
 Frequencies --     58.4430                97.8719               119.6464
 Red. masses --      3.1347                 5.5895                 4.3846
 Frc consts  --      0.0063                 0.0315                 0.0370
 IR Inten    --      1.0088                 1.8601                 1.2422

                      7                      8                      9
                      A                      A                      A
 Frequencies --    157.9673               172.5633               186.4757
 Red. masses --      3.9420                 3.3650                 2.2226
 Frc consts  --      0.0580                 0.0590                 0.0455
 IR Inten    --      2.7337                 3.9984                 6.1482

                     10                     11                     12
                      A                      A                      A
 Frequencies --    204.0789               215.5313               239.9636
 Red. masses --      1.7689                 3.8517                 2.4904
 Frc consts  --      0.0434                 0.1054                 0.0845
 IR Inten    --      8.2550                 5.5312                 4.0611

                     13                     14                     15
                      A                      A                      A
 Frequencies --    247.8244               279.9797               341.1787
 Red. masses --      5.6262                 4.2101                 7.2752
 Frc consts  --      0.2036                 0.1944                 0.4990
 IR Inten    --      6.9831                 0.1913                 3.3210

                     16                     17                     18
                      A                      A                      A
 Frequencies --    362.1228               390.5993               397.0842
 Red. masses --      1.7792                 1.6181                 3.5685
 Frc consts  --      0.1375                 0.1455                 0.3315
 IR Inten    --     24.2329                99.7093                10.7314

                     19                     20                     21
                      A                      A                      A
 Frequencies --    408.6683               435.9694               482.5143
 Red. masses --      2.2853                 2.9130                 1.4129
 Frc consts  --      0.2249                 0.3262                 0.1938
 IR Inten    --     11.8596                16.3493                83.6222

                     22                     23                     24
                      A                      A                      A
 Frequencies --    489.5401               499.8293               538.8102
 Red. masses --      2.8643                 2.7359                 1.8039
 Frc consts  --      0.4044                 0.4027                 0.3086
 IR Inten    --      6.0310                86.9942               152.3346

                     25                     26                     27
                      A                      A                      A
 Frequencies --    568.5402               584.8545               606.4024
 Red. masses --      3.0784                 1.8331                 1.9569
 Frc consts  --      0.5863                 0.3694                 0.4240
 IR Inten    --     28.5125                10.7216                32.9309

                     28                     29                     30
                      A                      A                      A
 Frequencies --    652.2748               665.5977               668.5719
 Red. masses --      3.3389                 3.6932                 3.4144
 Frc consts  --      0.8370                 0.9640                 0.8992
 IR Inten    --     50.9226                31.7003                 4.9314

                     31                     32                     33
                      A                      A                      A
 Frequencies --    687.6607               738.5720               768.3705
 Red. masses --      6.4779                 8.1239                 3.0475
 Frc consts  --      1.8048                 2.6110                 1.0601
 IR Inten    --     24.8852                 2.1016                 3.8376

                     34                     35                     36
                      A                      A                      A
 Frequencies --    786.3744               799.9448               806.5031
 Red. masses --      2.6983                 5.8397                 1.8695
 Frc consts  --      0.9831                 2.2017                 0.7165
 IR Inten    --     20.2670                30.2037                 3.9172

                     37                     38                     39
                      A                      A                      A
 Frequencies --    855.6155               866.1043               869.9856
 Red. masses --      1.4092                 3.1962                 2.8146
 Frc consts  --      0.6078                 1.4126                 1.2551
 IR Inten    --      9.2209                 1.9443                 7.8080

                     40                     41                     42
                      A                      A                      A
 Frequencies --    897.2851               918.0598               942.1734
 Red. masses --      2.4731                 2.5353                 1.9088
 Frc consts  --      1.1731                 1.2590                 0.9983
 IR Inten    --     12.7979                 4.6877                 6.3046

                     43                     44                     45
                      A                      A                      A
 Frequencies --    958.1766               974.0261               982.8414
 Red. masses --      4.1100                 2.0229                 2.5847
 Frc consts  --      2.2232                 1.1307                 1.4710
 IR Inten    --     71.3600                 3.2306               105.3320

                     46                     47                     48
                      A                      A                      A
 Frequencies --   1036.3966              1044.5271              1053.9532
 Red. masses --      2.6306                 1.8209                 1.8103
 Frc consts  --      1.6648                 1.1705                 1.1848
 IR Inten    --      4.8407                 1.8399                 0.1541

                     49                     50                     51
                      A                      A                      A
 Frequencies --   1075.6523              1086.3422              1095.2167
 Red. masses --      2.4914                 3.8129                 2.4328
 Frc consts  --      1.6984                 2.6512                 1.7193
 IR Inten    --      7.5771                 5.8250                26.5089

                     52                     53                     54
                      A                      A                      A
 Frequencies --   1112.3374              1138.9180              1201.6085
 Red. masses --      2.1936                 2.0862                 2.7777
 Frc consts  --      1.5991                 1.5944                 2.3630
 IR Inten    --     32.1334                35.3413                41.3038

                     55                     56                     57
                      A                      A                      A
 Frequencies --   1211.4658              1233.4035              1243.8485
 Red. masses --      1.6190                 2.2898                 1.5753
 Frc consts  --      1.4000                 2.0524                 1.4360
 IR Inten    --     25.1705                29.5895                14.3259

                     58                     59                     60
                      A                      A                      A
 Frequencies --   1247.3996              1264.3279              1275.3966
 Red. masses --      1.3920                 1.6840                 1.4526
 Frc consts  --      1.2762                 1.5860                 1.3921
 IR Inten    --     24.3502                 2.3781                21.0847

                     61                     62                     63
                      A                      A                      A
 Frequencies --   1310.0820              1319.2466              1326.6530
 Red. masses --      1.5162                 1.5036                 2.0758
 Frc consts  --      1.5332                 1.5419                 2.1525
 IR Inten    --     39.9403                 4.5357                 8.3066

                     64                     65                     66
                      A                      A                      A
 Frequencies --   1347.9343              1348.7063              1362.4894
 Red. masses --      1.3803                 1.9739                 1.5944
 Frc consts  --      1.4777                 2.1155                 1.7438
 IR Inten    --     24.0841                57.6735                23.0425

                     67                     68                     69
                      A                      A                      A
 Frequencies --   1368.6606              1371.3310              1379.2002
 Red. masses --      1.5357                 1.9016                 1.2097
 Frc consts  --      1.6949                 2.1069                 1.3557
 IR Inten    --      0.5074                 4.8836                10.8824

                     70                     71                     72
                      A                      A                      A
 Frequencies --   1392.7762              1412.6626              1428.7610
 Red. masses --      1.8757                 1.6954                 3.4354
 Frc consts  --      2.1438                 1.9935                 4.1319
 IR Inten    --      0.9500                65.5652                18.9182

                     73                     74                     75
                      A                      A                      A
 Frequencies --   1456.4156              1490.7127              1509.3702
 Red. masses --      2.5341                 2.2392                 1.1149
 Frc consts  --      3.1670                 2.9317                 1.4965
 IR Inten    --     20.1051                22.9329                 8.4027

                     76                     77                     78
                      A                      A                      A
 Frequencies --   1513.1226              1517.2742              1520.3580
 Red. masses --      1.0857                 1.1166                 1.0968
 Frc consts  --      1.4646                 1.5145                 1.4938
 IR Inten    --      2.9742                10.9096                14.6155

                     79                     80                     81
                      A                      A                      A
 Frequencies --   1535.7629              1542.8823              1549.4037
 Red. masses --      2.7174                 1.1994                 3.8424
 Frc consts  --      3.7762                 1.6821                 5.4347
 IR Inten    --    345.9664                46.5252               255.3737

                     82                     83                     84
                      A                      A                      A
 Frequencies --   1586.8002              1641.8338              1665.6279
 Red. masses --      4.0010                 5.4979                 6.1508
 Frc consts  --      5.9356                 8.7318                10.0540
 IR Inten    --     30.2068               694.5284               411.9119

                     85                     86                     87
                      A                      A                      A
 Frequencies --   1747.9632              3024.7225              3039.4206
 Red. masses --      1.0655                 1.0729                 1.0606
 Frc consts  --      1.9182                 5.7832                 5.7730
 IR Inten    --     26.8325                57.9419                43.0895

                     88                     89                     90
                      A                      A                      A
 Frequencies --   3057.4429              3067.2688              3082.1459
 Red. masses --      1.0676                 1.0704                 1.0927
 Frc consts  --      5.8800                 5.9336                 6.1156
 IR Inten    --     28.8042                14.8816                58.4591

                     91                     92                     93
                      A                      A                      A
 Frequencies --   3089.8984              3105.8010              3118.9163
 Red. masses --      1.0628                 1.0969                 1.1069
 Frc consts  --      5.9786                 6.2338                 6.3438
 IR Inten    --     10.9480                24.4070                31.6303

                     94                     95                     96
                      A                      A                      A
 Frequencies --   3136.9330              3160.1774              3248.1206
 Red. masses --      1.1058                 1.0908                 1.0955
 Frc consts  --      6.4109                 6.4183                 6.8098
 IR Inten    --     21.8539                 5.1455                 8.6917

                     97                     98                     99
                      A                      A                      A
 Frequencies --   3426.6932              3502.1896              3602.6176
 Red. masses --      1.0491                 1.0922                 1.0757
 Frc consts  --      7.2583                 7.8928                 8.2260
 IR Inten    --      6.3399                 0.2544                51.0732

                    100                    101                    102
                      A                      A                      A
 Frequencies --   3627.6100              3674.8961              3715.5894
 Red. masses --      1.0775                 1.0811                 1.0657
 Frc consts  --      8.3546                 8.6018                 8.6683
 IR Inten    --     46.4952                80.7467                 8.4536

 - Thermochemistry -
 -------------------
 Temperature   298.150 Kelvin.  Pressure   1.00000 Atm.
 Atom     1 has atomic number  6 and mass  12.00000

 Molecular mass:   263.14946 amu.
 Principal axes and moments of inertia in atomic units:
                           1         2         3
     Eigenvalues --  3142.575587920.547709849.91019
           X            1.00000  -0.00234   0.00123
           Y            0.00233   0.99993   0.01142
           Z           -0.00126  -0.01142   0.99993
 This molecule is an asymmetric top.
 Rotational symmetry number  1.
 Warning -- assumption of classical behavior for rotation
           may cause significant error
 Rotational temperatures (Kelvin)      0.02756     0.01094     0.00879
 Rotational constants (GHZ):           0.57429     0.22786     0.18322
 Zero-point vibrational energy     793589.9 (Joules/Mol)
                                  189.67254 (Kcal/Mol)
 Warning -- explicit consideration of  27 degrees of freedom as
           vibrations may cause significant error
 Vibrational temperatures:     35.02    42.78    74.71    84.09   140.82
          (Kelvin)            172.14   227.28   248.28   268.30   293.62
                              310.10   345.25   356.56   402.83   490.88
                              521.01   561.99   571.32   587.98   627.26
                              694.23   704.34   719.14   775.23   818.00
                              841.48   872.48   938.48   957.65   961.93
                              989.39  1062.64  1105.51  1131.42  1150.94
                             1160.38  1231.04  1246.13  1251.72  1290.99
                             1320.88  1355.58  1378.60  1401.41  1414.09
                             1491.14  1502.84  1516.40  1547.62  1563.00
                             1575.77  1600.41  1638.65  1728.85  1743.03
                             1774.59  1789.62  1794.73  1819.09  1835.01
                             1884.92  1898.10  1908.76  1939.38  1940.49
                             1960.32  1969.20  1973.04  1984.36  2003.89
                             2032.51  2055.67  2095.46  2144.80  2171.65
                             2177.05  2183.02  2187.46  2209.62  2219.86
                             2229.25  2283.05  2362.23  2396.47  2514.93
                             4351.90  4373.05  4398.98  4413.12  4434.52
                             4445.67  4468.55  4487.42  4513.35  4546.79
                             4673.32  4930.25  5038.87  5183.36  5219.32
                             5287.36  5345.90

 Zero-point correction=                           0.302262 (Hartree/Particle)
 Thermal correction to Energy=                    0.319474
 Thermal correction to Enthalpy=                  0.320418
 Thermal correction to Gibbs Free Energy=         0.255899
 Sum of electronic and zero-point Energies=           -887.632105
 Sum of electronic and thermal Energies=              -887.614893
 Sum of electronic and thermal Enthalpies=            -887.613949
 Sum of electronic and thermal Free Energies=         -887.678469

                     E (Thermal)             CV                S
                      KCal/Mol        Cal/Mol-Kelvin    Cal/Mol-Kelvin
 Total                  200.473             66.621            135.793
 Electronic               0.000              0.000              0.000
 Translational            0.889              2.981             42.602
 Rotational               0.889              2.981             33.860
 Vibrational            198.696             60.660             59.330
 Vibration     1          0.593              1.985              6.244
 Vibration     2          0.594              1.984              5.847
 Vibration     3          0.596              1.977              4.743
 Vibration     4          0.596              1.974              4.509
 Vibration     5          0.603              1.951              3.496
 Vibration     6          0.609              1.933              3.106
 Vibration     7          0.621              1.894              2.574
 Vibration     8          0.626              1.876              2.407
 Vibration     9          0.632              1.858              2.263
 Vibration    10          0.640              1.834              2.096
 Vibration    11          0.645              1.817              1.996
 Vibration    12          0.657              1.779              1.803
 Vibration    13          0.661              1.766              1.746
 Vibration    14          0.680              1.711              1.534
 Vibration    15          0.721              1.593              1.207
 Vibration    16          0.736              1.550              1.113
 Vibration    17          0.758              1.490              0.998
 Vibration    18          0.764              1.476              0.973
 Vibration    19          0.773              1.451              0.931
 Vibration    20          0.796              1.392              0.839
 Vibration    21          0.839              1.289              0.703
 Vibration    22          0.845              1.273              0.685
 Vibration    23          0.855              1.250              0.659
 Vibration    24          0.894              1.164              0.568
 Vibration    25          0.925              1.099              0.507
 Vibration    26          0.942              1.064              0.476
 Vibration    27          0.965              1.018              0.439

 Optimization completed.
    -- Stationary point found.
 Normal termination of Gaussian 16 at Sat Dec 12 10:26:56 2020.

 ----------------------------------------------------------------------
 # B3LYP/6-311++G(d,p) empiricaldispersion=gd3bj scf=xqc pop=npa geom=c
 heck
 ----------------------------------------------------------------------

 --------------------------------------
 CID_81915161_JID_9509_Energie_neutraal
 --------------------------------------
 Structure from the checkpoint file:  "JID_9509.chk"
 Charge =  0 Multiplicity = 1

 SCF Done:  E(RB3LYP) =  -888.195651696     A.U. after   14 cycles
 Normal termination of Gaussian 16 at Sat Dec 12 10:34:35 2020.

 ----------------------------------------------------------------------
 # B3LYP/6-311++G(d,p) empiricaldispersion=gd3bj scf=xqc pop=npa geom=c
 heck
 ----------------------------------------------------------------------

 ------------------------------------
 CID_81915161_JID_9509_Energie_kation
 ------------------------------------
 Structure from the checkpoint file:  "JID_9509.chk"
 Charge =  1 Multiplicity = 2

 SCF Done:  E(UB3LYP) =  -887.916363265     A.U. after   25 cycles
 Normal termination of Gaussian 16 at Sat Dec 12 10:53:55 2020.
 Gaussian 16:  ES64L-G16RevA.03 25-Dec-2016

 ----------------------------------------------------------------------
 # B3LYP/6-311++G(d,p) empiricaldispersion=gd3bj scf=xqc pop=npa geom=c
 heck
 ----------------------------------------------------------------------

 -----------------------------------
 CID_81915161_JID_9509_Energie_anion
 -----------------------------------
 Structure from the checkpoint file:  "JID_9509.chk"
 Charge = -1 Multiplicity = 2

                         Standard orientation:
 ---------------------------------------------------------------------
 Center     Atomic      Atomic             Coordinates (Angstroms)
 Number     Number       Type             X           Y           Z
 ---------------------------------------------------------------------
      1          6           0        3.526784    0.901194    1.716737
      2          6           0        4.715056    0.620057    0.775239
      3          6           0        4.051426    0.554690   -0.606274
      4          6           0        2.771139   -0.254461   -0.343768
      5          6           0        2.303377    0.208257    1.056513
      6          6           0        1.706973   -0.101627   -1.433677
      7          7           0        0.544567   -0.923613   -1.141556
      8          6           0       -0.630516   -0.419180   -0.676428
      9          7           0       -0.842515    0.897461   -0.728743
     10          6           0       -2.036524    1.374029   -0.291935
     11          7           0       -3.065192    0.694811    0.231306
     12          6           0       -2.813322   -0.624306    0.274802
     13          6           0       -1.640594   -1.275195   -0.157136
     14          6           0       -1.871254   -2.655728    0.104279
     15          7           0       -3.063026   -2.853868    0.644405
     16          7           0       -3.625043   -1.606460    0.742941
     17          7           0       -2.182948    2.731976   -0.418338
     18          7           0       -3.211900    3.433713    0.238156
     19          8           0        3.088949   -1.658663   -0.206792
     20          1           0        3.709175    0.548047    2.735892
     21          1           0        3.353755    1.982110    1.779087
     22          1           0        5.158828   -0.353912    1.007814
     23          1           0        5.504435    1.375383    0.840589
     24          1           0        4.678082    0.103687   -1.386388
     25          1           0        3.780948    1.563377   -0.946991
     26          1           0        1.452700    0.889865    0.968536
     27          1           0        1.965344   -0.665152    1.619747
     28          1           0        1.371401    0.932474   -1.516861
     29          1           0        2.126873   -0.402934   -2.404257
     30          1           0        0.768057   -1.869977   -0.860918
     31          1           0       -1.226519   -3.505816   -0.079137
     32          1           0       -4.551831   -1.506454    1.127085
     33          1           0       -1.328262    3.254506   -0.547621
     34          1           0       -4.062683    3.295423   -0.307706
     35          1           0       -3.391090    2.959242    1.126301
     36          1           0        3.606326   -1.915092   -0.988161
 ---------------------------------------------------------------------

 SCF Done:  E(UB3LYP) =  -888.187909473     A.U. after   33 cycles
 SCF Done:  E(UB3LYP) =  -888.187909473     a.u. after    1 cycles

 The electronic state is 2-A.
 Alpha  occ. eigenvalues --  -19.01914 -14.28970 -14.26114 -14.24954 -14.24186
 Alpha  occ. eigenvalues --  -14.23681 -14.20658 -14.20059 -10.17766 -10.15940
 Alpha  occ. eigenvalues --  -10.15081 -10.12616 -10.10706 -10.09926 -10.07902
 Alpha  occ. eigenvalues --  -10.06678 -10.06476 -10.06415 -10.06123  -0.95706
 Alpha  occ. eigenvalues --   -0.92536  -0.92296  -0.87789  -0.84180  -0.78322
 Alpha  occ. eigenvalues --   -0.73232  -0.72891  -0.72103  -0.67620  -0.64096
 Alpha  occ. eigenvalues --   -0.61431  -0.58141  -0.55324  -0.53976  -0.52022
 Alpha  occ. eigenvalues --   -0.50175  -0.48368  -0.46028  -0.44552  -0.42244
 Alpha  occ. eigenvalues --   -0.42015  -0.40616  -0.39070  -0.38729  -0.37915
 Alpha  occ. eigenvalues --   -0.37829  -0.36961  -0.36484  -0.34785  -0.33526
 Alpha  occ. eigenvalues --   -0.32944  -0.31644  -0.30831  -0.28195  -0.27409
 Alpha  occ. eigenvalues --   -0.25620  -0.25427  -0.24210  -0.24057  -0.23177
 Alpha  occ. eigenvalues --   -0.22685  -0.21384  -0.21340  -0.20454  -0.19681
 Alpha  occ. eigenvalues --   -0.18530  -0.16996  -0.16618  -0.14725  -0.12133
 Alpha  occ. eigenvalues --    0.04187
 Alpha virt. eigenvalues --    0.06063   0.06466   0.06930   0.07651   0.08296
 Alpha virt. eigenvalues --    0.08408   0.09293   0.09632   0.09930   0.10088
 Alpha virt. eigenvalues --    0.10622   0.11154   0.11554   0.11749   0.12318

  Beta  occ. eigenvalues --  -19.01859 -14.28967 -14.26099 -14.24944 -14.24091
  Beta  occ. eigenvalues --  -14.23649 -14.20619 -14.20065 -10.17737 -10.15804
  Beta  occ. eigenvalues --  -10.15084 -10.12614 -10.10665 -10.09909 -10.07923
  Beta  occ. eigenvalues --  -10.06665 -10.06439 -10.06398 -10.06108  -0.95638
  Beta  occ. eigenvalues --   -0.92472  -0.92200  -0.87696  -0.84109  -0.78261
  Beta  occ. eigenvalues --   -0.73183  -0.72824  -0.72046  -0.67568  -0.64040
  Beta  occ. eigenvalues --   -0.61380  -0.58052  -0.55261  -0.53914  -0.51949
  Beta  occ. eigenvalues --   -0.50124  -0.48291  -0.45960  -0.44496  -0.42178
  Beta  occ. eigenvalues --   -0.41976  -0.40565  -0.38998  -0.38671  -0.37875
  Beta  occ. eigenvalues --   -0.37767  -0.36835  -0.36419  -0.34725  -0.33477
  Beta  occ. eigenvalues --   -0.32869  -0.31485  -0.30754  -0.28099  -0.27320
  Beta  occ. eigenvalues --   -0.25494  -0.25310  -0.24150  -0.24017  -0.23107
  Beta  occ. eigenvalues --   -0.22643  -0.21303  -0.21200  -0.20368  -0.19611
  Beta  occ. eigenvalues --   -0.18465  -0.16893  -0.16569  -0.14631  -0.11894
  Beta virt. eigenvalues --    0.06085   0.06885   0.07277   0.07477   0.08095
  Beta virt. eigenvalues --    0.08510   0.08780   0.09498   0.09785   0.10092
  Beta virt. eigenvalues --    0.10343   0.10983   0.11276   0.11694   0.12002

 Mulliken charges and spin densities:
               1          2
     1  C    0.596667  -1.249238
     2  C   -0.384535   0.258278
     3  C    0.502197  -0.905641
     4  C   -1.324558   1.578260
     5  C   -0.257479   0.008681
     6  C    1.553532  -2.252669
     7  N    0.177774   0.073150
     8  C   -0.223827   0.154307
     9  N   -0.151864  -0.036461
    10  C   -0.047632  -0.019647
    11  N   -0.221398   0.002677
    12  C    0.229204  -0.018602
    13  C   -0.148289  -0.037956
    14  C   -0.443156   0.064634
    15  N   -0.160750   0.009287
    16  N   -0.202176   0.020824
    17  N   -0.283906   0.046485
    18  N   -0.193120  -0.034403
    19  O   -0.154577  -0.022334
    20  H    0.039251   0.095705
    21  H   -0.012013   0.150139
    22  H    0.172257  -0.037126
    23  H   -0.321912   0.494235
    24  H   -0.644091   0.817018
    25  H   -0.035824   0.176168
    26  H   -0.044038   0.183366
    27  H    0.176871   0.030840
    28  H    0.244507  -0.000798
    29  H   -0.239550   0.405436
    30  H    0.283527   0.026838
    31  H   -0.006536   0.178575
    32  H    0.266292   0.044640
    33  H    0.181490   0.116100
    34  H    0.191245   0.058859
    35  H    0.152295   0.081513
    36  H   -0.265877   0.538861
 Sum of Mulliken charges =  -1.00000   1.00000

 Dipole moment (field-independent basis, Debye):
    X=             -7.1300    Y=              1.3487    Z=              2.3215  Tot=              7.6188
 Quadrupole moment (field-independent basis, Debye-Ang):
   XX=           -194.5142   YY=           -162.8888   ZZ=           -142.5266
   XY=              3.1108   XZ=             10.7114   YZ=             -2.2418

 Summary of Natural Population Analysis:

                                       Natural Population
                Natural  -----------------------------------------------
    Atom  No    Charge         Core      Valence    Rydberg      Total
 -----------------------------------------------------------------------
      C    1   -0.18932      0.99964     2.18285    0.00683     3.18932
      C    2   -0.19222      0.99964     2.18405    0.00853     3.19222
      C    3   -0.20130      0.99958     2.19207    0.00965     3.20130
      C    4    0.12741      0.99951     1.85679    0.01629     2.87259
      C    5   -0.20012      0.99958     2.19270    0.00784     3.20012
      C    6   -0.09967      0.99953     2.08738    0.01276     3.09967
      N    7   -0.29079      0.99967     2.78139    0.00974     3.79079
      C    8    0.26035      0.99952     1.72703    0.01310     2.73965
      N    9   -0.30912      0.99963     2.79995    0.00954     3.80912
      C   10    0.30628      0.99961     1.67647    0.01764     2.69372
      N   11   -0.31367      0.99964     2.80178    0.01225     3.81367
      C   12    0.19850      0.99950     1.78748    0.01453     2.80150
      C   13   -0.13297      0.99944     2.12651    0.00702     3.13297
      C   14    0.00870      0.99962     1.97758    0.01410     2.99130
      N   15   -0.14351      0.99974     2.63017    0.01360     3.64351
      N   16   -0.18647      0.99965     2.67551    0.01132     3.68647
      N   17   -0.22336      0.99965     2.71068    0.01303     3.72336
      N   18   -0.31608      0.99978     2.80624    0.01006     3.81608
      O   19   -0.38681      0.99989     3.37987    0.00704     4.38681
      H   20    0.09706      0.00000     0.40196    0.00098     0.40294
      H   21    0.09419      0.00000     0.40445    0.00136     0.40581
      H   22    0.09957      0.00000     0.39899    0.00144     0.40043
      H   23    0.09826      0.00000     0.40076    0.00097     0.40174
      H   24    0.10633      0.00000     0.39060    0.00307     0.39367
      H   25    0.09989      0.00000     0.39847    0.00164     0.40011
      H   26    0.10620      0.00000     0.39233    0.00147     0.39380
      H   27    0.10707      0.00000     0.39158    0.00135     0.39293
      H   28    0.11535      0.00000     0.38248    0.00217     0.38465
      H   29    0.09836      0.00000     0.39999    0.00165     0.40164
      H   30    0.19722      0.00000     0.29999    0.00280     0.30278
      H   31    0.09860      0.00000     0.39996    0.00145     0.40140
      H   32    0.19589      0.00000     0.30135    0.00276     0.30411
      H   33    0.19029      0.00000     0.30705    0.00265     0.30971
      H   34    0.17102      0.00000     0.32676    0.00222     0.32898
      H   35    0.17374      0.00000     0.32355    0.00272     0.32626
      H   36    0.23517      0.00000     0.25442    0.01041     0.26483
 =======================================================================
   * Total *    0.00000     18.99281    50.75118    0.25600    70.00000

 Normal termination of Gaussian 16 at Sat Dec 12 11:19:36 2020.
