 Gaussian 16, Revision A.03,

 -----------------------------------------------------------
 # opt freq B3LYP/6-31G(d) empiricaldispersion=gd3bj scf=xqc
 -----------------------------------------------------------

 -------------------------------
 CID_113718196_JID_8316_neutraal
 -------------------------------
 Symbolic Z-matrix:
 Charge =  0 Multiplicity = 1

 SCF Done:  E(RB3LYP) =  -1269.50009626     A.U. after   15 cycles
 SCF Done:  E(RB3LYP) =  -1269.50771060     A.U. after   13 cycles
 SCF Done:  E(RB3LYP) =  -1269.50802188     A.U. after   13 cycles
 SCF Done:  E(RB3LYP) =  -1269.50880738     A.U. after   13 cycles
 SCF Done:  E(RB3LYP) =  -1269.50918236     A.U. after   12 cycles
 SCF Done:  E(RB3LYP) =  -1269.50931425     A.U. after   12 cycles
 SCF Done:  E(RB3LYP) =  -1269.50938917     A.U. after   12 cycles
 SCF Done:  E(RB3LYP) =  -1269.50941708     A.U. after   11 cycles
 SCF Done:  E(RB3LYP) =  -1269.50943861     A.U. after   10 cycles
 SCF Done:  E(RB3LYP) =  -1269.50945535     A.U. after   10 cycles
 SCF Done:  E(RB3LYP) =  -1269.52415939     A.U. after   12 cycles
 SCF Done:  E(RB3LYP) =  -1269.52416308     A.U. after   10 cycles
 SCF Done:  E(RB3LYP) =  -1269.52416340     A.U. after    8 cycles
 SCF Done:  E(RB3LYP) =  -1269.52416345     A.U. after    7 cycles
 Optimization completed.
    -- Stationary point found.
 Normal termination of Gaussian 16 at Fri Dec 11 20:59:06 2020.

 --------------------------------------------------------------------
 #N Geom=AllCheck Guess=TCheck SCRF=Check GenChk RB3LYP/6-31G(d) Freq
 --------------------------------------------------------------------

 Structure from the checkpoint file:  "JID_8316.chk"
 -------------------------------
 CID_113718196_JID_8316_neutraal
 -------------------------------
 Charge =  0 Multiplicity = 1

 SCF Done:  E(RB3LYP) =  -1269.52416345     A.U. after    1 cycles

  Exact polarizability: 182.477 -14.471 142.096   7.653   1.463 106.795
 Approx polarizability: 257.288 -23.506 203.556  26.296   7.645 192.550

                      1                      2                      3
                      A                      A                      A
 Frequencies --     27.1639                40.9496                46.8973
 Red. masses --      7.3964                11.5169                 6.0038
 Frc consts  --      0.0032                 0.0114                 0.0078
 IR Inten    --      0.5368                 0.2040                 0.4748

                      4                      5                      6
                      A                      A                      A
 Frequencies --     50.3112                61.5657                81.4316
 Red. masses --      6.2890                 7.3461                 3.2291
 Frc consts  --      0.0094                 0.0164                 0.0126
 IR Inten    --      0.1619                 3.2862                 1.0486

                      7                      8                      9
                      A                      A                      A
 Frequencies --     92.0655               101.1973               110.6219
 Red. masses --      5.6057                 4.6379                 6.7925
 Frc consts  --      0.0280                 0.0280                 0.0490
 IR Inten    --      3.6894                 4.7072                 0.6293

                     10                     11                     12
                      A                      A                      A
 Frequencies --    126.7650               153.5144               172.2734
 Red. masses --      6.8002                 3.2725                 6.6504
 Frc consts  --      0.0644                 0.0454                 0.1163
 IR Inten    --      1.1528                 7.0617                 2.1933

                     13                     14                     15
                      A                      A                      A
 Frequencies --    218.6146               260.2072               262.7271
 Red. masses --      1.9697                 3.1957                 1.8302
 Frc consts  --      0.0555                 0.1275                 0.0744
 IR Inten    --     16.6346                 9.4175                16.8586

                     16                     17                     18
                      A                      A                      A
 Frequencies --    280.2168               295.4209               330.3001
 Red. masses --      2.5786                 3.5978                 3.7862
 Frc consts  --      0.1193                 0.1850                 0.2434
 IR Inten    --     10.3152                 3.2773                 6.3631

                     19                     20                     21
                      A                      A                      A
 Frequencies --    349.5469               407.6078               441.3254
 Red. masses --      3.2711                 4.2127                 7.3916
 Frc consts  --      0.2355                 0.4124                 0.8482
 IR Inten    --      5.2624                 7.2960                 1.1094

                     22                     23                     24
                      A                      A                      A
 Frequencies --    467.6609               501.5928               509.1599
 Red. masses --      2.3590                10.4432                 3.3929
 Frc consts  --      0.3040                 1.5481                 0.5182
 IR Inten    --      7.7768                 4.2327                42.4723

                     25                     26                     27
                      A                      A                      A
 Frequencies --    523.2383               563.6620               615.2231
 Red. masses --      1.7920                 3.1864                 3.2019
 Frc consts  --      0.2891                 0.5965                 0.7140
 IR Inten    --     22.2919                 7.4358                14.7145

                     28                     29                     30
                      A                      A                      A
 Frequencies --    640.4969               672.2245               677.0254
 Red. masses --      2.2099                 2.1118                 4.6552
 Frc consts  --      0.5341                 0.5623                 1.2572
 IR Inten    --     47.6426                44.2011                 2.5934

                     31                     32                     33
                      A                      A                      A
 Frequencies --    687.0896               693.2367               750.6948
 Red. masses --      1.6365                 7.8269                 4.9448
 Frc consts  --      0.4552                 2.2162                 1.6418
 IR Inten    --    111.2077                16.7000                26.3143

                     34                     35                     36
                      A                      A                      A
 Frequencies --    763.9525               780.9627               834.3517
 Red. masses --      1.5013                 4.7523                 3.9022
 Frc consts  --      0.5162                 1.7077                 1.6005
 IR Inten    --     27.5804                11.1217                 1.7485

                     37                     38                     39
                      A                      A                      A
 Frequencies --    859.8353               870.0489               896.6014
 Red. masses --      2.6471                 1.3203                 2.2005
 Frc consts  --      1.1531                 0.5889                 1.0423
 IR Inten    --      2.7463                98.1173                11.3369

                     40                     41                     42
                      A                      A                      A
 Frequencies --    927.1832               974.4721               987.0681
 Red. masses --      1.9225                 5.6417                11.2650
 Frc consts  --      0.9738                 3.1565                 6.4666
 IR Inten    --      6.8351                19.5999                 7.5437

                     43                     44                     45
                      A                      A                      A
 Frequencies --   1011.9159              1037.1034              1041.2813
 Red. masses --      3.1475                 2.0174                 5.5561
 Frc consts  --      1.8989                 1.2785                 3.5494
 IR Inten    --     24.7837                 0.6953                 9.6442

                     46                     47                     48
                      A                      A                      A
 Frequencies --   1070.6204              1073.4499              1079.5641
 Red. masses --      2.2639                 2.2359                 2.9442
 Frc consts  --      1.5289                 1.5180                 2.0217
 IR Inten    --     13.6290                19.3701                15.0205

                     49                     50                     51
                      A                      A                      A
 Frequencies --   1132.1864              1166.6091              1181.5095
 Red. masses --      2.1230                 2.1354                 1.2562
 Frc consts  --      1.6034                 1.7123                 1.0332
 IR Inten    --     63.2502                29.9677                32.0524

                     52                     53                     54
                      A                      A                      A
 Frequencies --   1186.8844              1191.7057              1238.9652
 Red. masses --      2.5501                 2.5343                 1.3769
 Frc consts  --      2.1166                 2.1205                 1.2453
 IR Inten    --    255.7261                75.9112                18.3899

                     55                     56                     57
                      A                      A                      A
 Frequencies --   1272.8707              1284.1984              1324.1351
 Red. masses --      1.2855                 1.2287                 1.4273
 Frc consts  --      1.2271                 1.1939                 1.4745
 IR Inten    --     18.8156                 0.8732                 1.3045

                     58                     59                     60
                      A                      A                      A
 Frequencies --   1335.5415              1348.9649              1357.0478
 Red. masses --      1.5369                 1.3084                 2.0219
 Frc consts  --      1.6151                 1.4028                 2.1939
 IR Inten    --     15.6717                 3.1342                13.2738

                     61                     62                     63
                      A                      A                      A
 Frequencies --   1361.7130              1403.4526              1436.3688
 Red. masses --      1.3357                 1.7956                 1.4775
 Frc consts  --      1.4593                 2.0838                 1.7960
 IR Inten    --      8.1115                70.6100                13.6510

                     64                     65                     66
                      A                      A                      A
 Frequencies --   1438.1417              1444.2084              1486.7300
 Red. masses --      1.5941                 2.0883                 1.1619
 Frc consts  --      1.9426                 2.5663                 1.5132
 IR Inten    --     36.6993                60.2884                12.9562

                     67                     68                     69
                      A                      A                      A
 Frequencies --   1493.1734              1512.1313              1518.7215
 Red. masses --      1.0906                 1.8279                 1.5048
 Frc consts  --      1.4326                 2.4626                 2.0449
 IR Inten    --     55.5029                37.3413                31.0403

                     70                     71                     72
                      A                      A                      A
 Frequencies --   1519.4090              1523.0660              1543.7725
 Red. masses --      1.0986                 2.5737                 1.1169
 Frc consts  --      1.4942                 3.5176                 1.5683
 IR Inten    --      3.1251                95.9544                19.5238

                     73                     74                     75
                      A                      A                      A
 Frequencies --   1647.0767              1695.0633              1786.4022
 Red. masses --      9.0091                 1.0961                 7.8179
 Frc consts  --     14.3998                 1.8555                14.6994
 IR Inten    --     12.8377                33.1580               431.5545

                     76                     77                     78
                      A                      A                      A
 Frequencies --   1835.7604              2984.8637              3063.2832
 Red. masses --      9.1549                 1.0728                 1.0628
 Frc consts  --     18.1775                 5.6314                 5.8757
 IR Inten    --    222.5627                60.6156                 7.7962

                     79                     80                     81
                      A                      A                      A
 Frequencies --   3072.5104              3090.5396              3097.0824
 Red. masses --      1.0637                 1.0701                 1.0929
 Frc consts  --      5.9162                 6.0220                 6.1763
 IR Inten    --      8.7717                14.6568                 7.4747

                     82                     83                     84
                      A                      A                      A
 Frequencies --   3116.9820              3129.4940              3133.9011
 Red. masses --      1.0973                 1.0603                 1.0898
 Frc consts  --      6.2814                 6.1180                 6.3064
 IR Inten    --     17.0424                 3.8977                 4.3595

                     85                     86                     87
                      A                      A                      A
 Frequencies --   3150.9510              3193.5186              3479.7003
 Red. masses --      1.1023                 1.1093                 1.0497
 Frc consts  --      6.4480                 6.6658                 7.4889
 IR Inten    --     10.6601                 0.1805                 0.3399

                     88                     89                     90
                      A                      A                      A
 Frequencies --   3567.0027              3582.8795              3684.6222
 Red. masses --      1.0933                 1.0753                 1.0639
 Frc consts  --      8.1960                 8.1330                 8.5105
 IR Inten    --      1.2400                22.9983                46.5152

 - Thermochemistry -
 -------------------
 Temperature   298.150 Kelvin.  Pressure   1.00000 Atm.
 Atom     1 has atomic number  6 and mass  12.00000

 Molecular mass:   274.07358 amu.
 Principal axes and moments of inertia in atomic units:
                           1         2         3
     Eigenvalues --  4450.764005735.183449127.42131
           X            0.99800  -0.06211  -0.01181
           Y            0.06224   0.99801   0.01052
           Z            0.01113  -0.01124   0.99987
 This molecule is an asymmetric top.
 Rotational symmetry number  1.
 Warning -- assumption of classical behavior for rotation
           may cause significant error
 Rotational temperatures (Kelvin)      0.01946     0.01510     0.00949
 Rotational constants (GHZ):           0.40549     0.31468     0.19773
 Zero-point vibrational energy     660539.5 (Joules/Mol)
                                  157.87273 (Kcal/Mol)
 Warning -- explicit consideration of  27 degrees of freedom as
           vibrations may cause significant error
 Vibrational temperatures:     39.08    58.92    67.47    72.39    88.58
          (Kelvin)            117.16   132.46   145.60   159.16   182.39
                              220.87   247.86   314.54   374.38   378.01
                              403.17   425.04   475.23   502.92   586.46
                              634.97   672.86   721.68   732.57   752.82
                              810.98   885.17   921.53   967.18   974.09
                              988.57   997.41  1080.08  1099.16  1123.63
                             1200.45  1237.11  1251.81  1290.01  1334.01
                             1402.05  1420.17  1455.92  1492.16  1498.17
                             1540.38  1544.45  1553.25  1628.96  1678.49
                             1699.93  1707.66  1714.60  1782.59  1831.38
                             1847.68  1905.14  1921.55  1940.86  1952.49
                             1959.20  2019.26  2066.61  2069.17  2077.89
                             2139.07  2148.34  2175.62  2185.10  2186.09
                             2191.35  2221.14  2369.78  2438.82  2570.23
                             2641.25  4294.55  4407.38  4420.66  4446.60
                             4456.01  4484.64  4502.64  4508.98  4533.52
                             4594.76  5006.51  5132.12  5154.96  5301.35

 Zero-point correction=                           0.251586 (Hartree/Particle)
 Thermal correction to Energy=                    0.270119
 Thermal correction to Enthalpy=                  0.271064
 Thermal correction to Gibbs Free Energy=         0.202374
 Sum of electronic and zero-point Energies=          -1269.272577
 Sum of electronic and thermal Energies=             -1269.254044
 Sum of electronic and thermal Enthalpies=           -1269.253100
 Sum of electronic and thermal Free Energies=        -1269.321790

                     E (Thermal)             CV                S
                      KCal/Mol        Cal/Mol-Kelvin    Cal/Mol-Kelvin
 Total                  169.502             66.394            144.570
 Electronic               0.000              0.000              0.000
 Translational            0.889              2.981             42.723
 Rotational               0.889              2.981             33.810
 Vibrational            167.725             60.433             68.037
 Vibration     1          0.593              1.984              6.026
 Vibration     2          0.594              1.981              5.213
 Vibration     3          0.595              1.979              4.944
 Vibration     4          0.595              1.977              4.805
 Vibration     5          0.597              1.973              4.406
 Vibration     6          0.600              1.962              3.856
 Vibration     7          0.602              1.955              3.616
 Vibration     8          0.604              1.948              3.431
 Vibration     9          0.606              1.941              3.258
 Vibration    10          0.611              1.926              2.995
 Vibration    11          0.619              1.899              2.628
 Vibration    12          0.626              1.877              2.411
 Vibration    13          0.646              1.813              1.971
 Vibration    14          0.668              1.745              1.660
 Vibration    15          0.670              1.741              1.644
 Vibration    16          0.680              1.710              1.532
 Vibration    17          0.690              1.682              1.443
 Vibration    18          0.713              1.615              1.259
 Vibration    19          0.727              1.576              1.168
 Vibration    20          0.772              1.454              0.935
 Vibration    21          0.801              1.380              0.822
 Vibration    22          0.825              1.322              0.744
 Vibration    23          0.857              1.246              0.654
 Vibration    24          0.864              1.230              0.636
 Vibration    25          0.878              1.199              0.602
 Vibration    26          0.919              1.110              0.517
 Vibration    27          0.975              1.000              0.424

 Optimization completed.
    -- Stationary point found.
 Normal termination of Gaussian 16 at Fri Dec 11 21:11:36 2020.

 ----------------------------------------------------------------------
 # B3LYP/6-311++G(d,p) empiricaldispersion=gd3bj scf=xqc pop=npa geom=c
 heck
 ----------------------------------------------------------------------

 ---------------------------------------
 CID_113718196_JID_8316_Energie_neutraal
 ---------------------------------------
 Structure from the checkpoint file:  "JID_8316.chk"
 Charge =  0 Multiplicity = 1

 SCF Done:  E(RB3LYP) =  -1269.82102908     A.U. after   15 cycles
 Normal termination of Gaussian 16 at Fri Dec 11 21:16:31 2020.

 ----------------------------------------------------------------------
 # B3LYP/6-311++G(d,p) empiricaldispersion=gd3bj scf=xqc pop=npa geom=c
 heck
 ----------------------------------------------------------------------

 -------------------------------------
 CID_113718196_JID_8316_Energie_kation
 -------------------------------------
 Structure from the checkpoint file:  "JID_8316.chk"
 Charge =  1 Multiplicity = 2

 SCF Done:  E(UB3LYP) =  -1269.50337865     A.U. after   33 cycles
 SCF Done:  E(UB3LYP) =  -1269.50337865     a.u. after    1 cycles
 Normal termination of Gaussian 16 at Fri Dec 11 21:31:14 2020.
 Gaussian 16:  ES64L-G16RevA.03 25-Dec-2016

 ----------------------------------------------------------------------
 # B3LYP/6-311++G(d,p) empiricaldispersion=gd3bj scf=xqc pop=npa geom=c
 heck
 ----------------------------------------------------------------------

 ------------------------------------
 CID_113718196_JID_8316_Energie_anion
 ------------------------------------
 Structure from the checkpoint file:  "JID_8316.chk"
 Charge = -1 Multiplicity = 2

                         Standard orientation:
 ---------------------------------------------------------------------
 Center     Atomic      Atomic             Coordinates (Angstroms)
 Number     Number       Type             X           Y           Z
 ---------------------------------------------------------------------
      1          6           0        0.445119    1.254519   -0.684315
      2          6           0        1.853076    1.031079   -0.128149
      3          6           0        2.615375    2.319541    0.061515
      4          8           0        2.210736    3.436293   -0.188587
      5          8           0        3.856350    2.098171    0.560699
      6          6           0       -0.515454    1.822799    0.369484
      7          7           0       -1.841036    2.113029   -0.162638
      8          6           0       -2.987830    1.377365   -0.136152
      9          8           0       -3.992925    1.715799   -0.750114
     10          6           0       -3.014592    0.094583    0.696766
     11         16           0       -2.530483   -1.359688   -0.338992
     12          6           0       -0.958286   -1.683051    0.347541
     13          7           0       -0.451948   -1.343897    1.494077
     14          7           0        0.874547   -1.805817    1.485813
     15          6           0        1.054460   -2.398132    0.352191
     16          8           0       -0.072214   -2.369128   -0.433625
     17          6           0        2.287371   -3.006894   -0.217461
     18          7           0        2.698537   -2.257473   -1.413758
     19          1           0        0.049320    0.308519   -1.065998
     20          1           0        0.495050    1.945233   -1.533385
     21          1           0        1.823808    0.507379    0.835312
     22          1           0        2.436406    0.372525   -0.783770
     23          1           0        4.268513    2.977858    0.651487
     24          1           0       -0.605112    1.121661    1.201557
     25          1           0       -0.102739    2.754500    0.767358
     26          1           0       -1.918134    2.916779   -0.775700
     27          1           0       -2.385601    0.092661    1.586941
     28          1           0       -4.052723   -0.074397    0.981524
     29          1           0        3.062916   -2.912323    0.546281
     30          1           0        2.114480   -4.082811   -0.389390
     31          1           0        3.606820   -2.594692   -1.726346
     32          1           0        2.043003   -2.438709   -2.171942
 ---------------------------------------------------------------------

 SCF Done:  E(UB3LYP) =  -1269.82165179     A.U. after   33 cycles
 SCF Done:  E(UB3LYP) =  -1269.82165179     a.u. after    1 cycles

 The electronic state is 2-A.
 Alpha  occ. eigenvalues --  -88.77857 -19.09929 -19.08641 -19.03146 -18.99666
 Alpha  occ. eigenvalues --  -14.24985 -14.23190 -14.23109 -14.19621 -10.22012
 Alpha  occ. eigenvalues --  -10.18545 -10.17770 -10.15276 -10.12119 -10.11698
 Alpha  occ. eigenvalues --  -10.11041 -10.08624 -10.08105  -7.86425  -5.82833
 Alpha  occ. eigenvalues --   -5.82442  -5.81799  -1.05269  -1.02660  -0.95000
 Alpha  occ. eigenvalues --   -0.93670  -0.87461  -0.83654  -0.79412  -0.75472
 Alpha  occ. eigenvalues --   -0.71023  -0.69871  -0.63394  -0.61328  -0.60004
 Alpha  occ. eigenvalues --   -0.55801  -0.52810  -0.49480  -0.49146  -0.48448
 Alpha  occ. eigenvalues --   -0.42398  -0.41760  -0.41228  -0.40592  -0.40393
 Alpha  occ. eigenvalues --   -0.39552  -0.37958  -0.37901  -0.35901  -0.35564
 Alpha  occ. eigenvalues --   -0.34504  -0.34208  -0.32618  -0.32331  -0.31796
 Alpha  occ. eigenvalues --   -0.30603  -0.29783  -0.28753  -0.28323  -0.26765
 Alpha  occ. eigenvalues --   -0.26348  -0.25704  -0.24374  -0.24151  -0.22291
 Alpha  occ. eigenvalues --   -0.21218  -0.19994  -0.18429  -0.17493  -0.16752
 Alpha  occ. eigenvalues --   -0.15226  -0.13893   0.03923
 Alpha virt. eigenvalues --    0.05731   0.06030   0.07631   0.08227   0.08438
 Alpha virt. eigenvalues --    0.08737   0.09322   0.09704   0.10262   0.10968
 Alpha virt. eigenvalues --    0.11548   0.11906   0.12186   0.12472   0.13170

  Beta  occ. eigenvalues --  -88.77840 -19.09741 -19.08624 -19.03134 -18.99622
  Beta  occ. eigenvalues --  -14.24969 -14.23198 -14.23096 -14.19526 -10.21998
  Beta  occ. eigenvalues --  -10.18501 -10.17572 -10.15105 -10.12057 -10.11699
  Beta  occ. eigenvalues --  -10.11031 -10.08618 -10.08098  -7.86407  -5.82801
  Beta  occ. eigenvalues --   -5.82427  -5.81776  -1.04985  -1.02628  -0.94917
  Beta  occ. eigenvalues --   -0.93643  -0.87326  -0.83612  -0.79215  -0.75237
  Beta  occ. eigenvalues --   -0.70996  -0.69719  -0.63347  -0.61138  -0.59850
  Beta  occ. eigenvalues --   -0.55765  -0.52655  -0.49411  -0.49072  -0.48276
  Beta  occ. eigenvalues --   -0.42266  -0.41712  -0.41137  -0.40529  -0.40092
  Beta  occ. eigenvalues --   -0.39246  -0.37900  -0.37767  -0.35746  -0.35292
  Beta  occ. eigenvalues --   -0.34423  -0.34057  -0.32551  -0.32253  -0.31633
  Beta  occ. eigenvalues --   -0.30581  -0.29660  -0.28676  -0.28219  -0.26703
  Beta  occ. eigenvalues --   -0.26265  -0.25517  -0.24267  -0.23732  -0.22198
  Beta  occ. eigenvalues --   -0.20778  -0.19950  -0.18347  -0.17356  -0.16608
  Beta  occ. eigenvalues --   -0.15129  -0.13570
  Beta virt. eigenvalues --    0.06123   0.06807   0.07385   0.07703   0.08431
  Beta virt. eigenvalues --    0.08582   0.09495   0.09783   0.10146   0.10539
  Beta virt. eigenvalues --    0.11183   0.11576   0.12090   0.12431   0.12758

 Mulliken charges and spin densities:
               1          2
     1  C    0.269388  -0.154534
     2  C   -0.495299   0.097767
     3  C   -0.088755  -0.139980
     4  O   -0.290451   0.005576
     5  O   -0.143775   0.017683
     6  C   -0.741270   0.010476
     7  N   -0.088556   0.005687
     8  C   -0.067960   0.035206
     9  O   -0.351132   0.016336
    10  C   -0.258832  -0.039742
    11  S   -0.125496   0.102828
    12  C   -0.353278   0.204344
    13  N   -0.024814  -0.016014
    14  N   -0.118901   0.030228
    15  C    0.076277   0.448091
    16  O    0.068375   0.031293
    17  C    0.836590  -1.509321
    18  N   -0.339723  -0.044869
    19  H    0.211092  -0.089529
    20  H    0.153571   0.063619
    21  H    0.243117  -0.014590
    22  H    0.272336   0.045179
    23  H    0.080059   0.194813
    24  H    0.121311   0.001840
    25  H    0.199362   0.007187
    26  H    0.269447   0.012409
    27  H    0.222624   0.009257
    28  H    0.257633   0.023887
    29  H   -0.018671   0.200558
    30  H   -0.390066   0.559040
    31  H   -0.407551   0.686547
    32  H    0.023350   0.198729
 Sum of Mulliken charges =  -1.00000   1.00000

 Dipole moment (field-independent basis, Debye):
    X=             -3.7896    Y=              4.2013    Z=              2.9293  Tot=              6.3712
 Quadrupole moment (field-independent basis, Debye-Ang):
   XX=           -185.4310   YY=           -166.4630   ZZ=           -140.5318
   XY=             23.3144   XZ=              4.5290   YZ=             -4.2680

 Summary of Natural Population Analysis:

                                       Natural Population
                Natural  -----------------------------------------------
    Atom  No    Charge         Core      Valence    Rydberg      Total
 -----------------------------------------------------------------------
      C    1   -0.19732      0.99963     2.18825    0.00944     3.19732
      C    2   -0.25944      0.99956     2.25057    0.00931     3.25944
      C    3    0.41046      0.99972     1.56424    0.02557     2.58954
      O    4   -0.31726      0.99987     3.31131    0.00609     4.31726
      O    5   -0.34244      0.99988     3.33643    0.00614     4.34244
      C    6   -0.09738      0.99960     2.08807    0.00970     3.09738
      N    7   -0.30845      0.99966     2.80065    0.00814     3.80845
      C    8    0.33712      0.99966     1.63995    0.02327     2.66288
      O    9   -0.32541      0.99988     3.31918    0.00635     4.32541
      C   10   -0.27928      0.99954     2.27067    0.00907     3.27928
      S   11    0.14624      4.99950     2.83463    0.01963     7.85376
      C   12    0.19195      0.99958     1.78620    0.02227     2.80805
      N   13   -0.20291      0.99963     2.68972    0.01356     3.70291
      N   14   -0.16914      0.99966     2.65813    0.01135     3.66914
      C   15    0.28151      0.99960     1.69720    0.02169     2.71849
      O   16   -0.23352      0.99985     3.22600    0.00768     4.23352
      C   17   -0.11871      0.99958     2.10636    0.01277     3.11871
      N   18   -0.41916      0.99977     2.90750    0.01188     3.91916
      H   19    0.10520      0.00000     0.39273    0.00207     0.39480
      H   20    0.10062      0.00000     0.39820    0.00118     0.39938
      H   21    0.12526      0.00000     0.37330    0.00143     0.37474
      H   22    0.13523      0.00000     0.36303    0.00173     0.36477
      H   23    0.23681      0.00000     0.25908    0.00411     0.26319
      H   24    0.10811      0.00000     0.39034    0.00155     0.39189
      H   25    0.09970      0.00000     0.39912    0.00118     0.40030
      H   26    0.19077      0.00000     0.30632    0.00291     0.30923
      H   27    0.12335      0.00000     0.37503    0.00162     0.37665
      H   28    0.11440      0.00000     0.38386    0.00174     0.38560
      H   29    0.10677      0.00000     0.39187    0.00136     0.39323
      H   30    0.09515      0.00000     0.40230    0.00255     0.40485
      H   31    0.18520      0.00000     0.30174    0.01306     0.31480
      H   32    0.17657      0.00000     0.32110    0.00233     0.32343
 =======================================================================
   * Total *    0.00000     21.99417    49.73309    0.27274    72.00000

 Normal termination of Gaussian 16 at Fri Dec 11 21:45:53 2020.
