 Gaussian 16, Revision A.03,

 -----------------------------------------------------------
 # opt freq B3LYP/6-31G(d) empiricaldispersion=gd3bj scf=xqc
 -----------------------------------------------------------

 -----------------------------
 CID_4220142_JID_2028_neutraal
 -----------------------------
 Symbolic Z-matrix:
 Charge =  0 Multiplicity = 1

 SCF Done:  E(RB3LYP) =  -559.640825148     A.U. after   14 cycles
 SCF Done:  E(RB3LYP) =  -559.643902893     A.U. after   12 cycles
 SCF Done:  E(RB3LYP) =  -559.644205911     A.U. after   10 cycles
 SCF Done:  E(RB3LYP) =  -559.644281138     A.U. after   10 cycles
 SCF Done:  E(RB3LYP) =  -559.644438289     A.U. after   10 cycles
 SCF Done:  E(RB3LYP) =  -559.644663068     A.U. after   11 cycles
 SCF Done:  E(RB3LYP) =  -559.644948420     A.U. after   12 cycles
 SCF Done:  E(RB3LYP) =  -559.645089263     A.U. after   10 cycles
 SCF Done:  E(RB3LYP) =  -559.645141948     A.U. after   10 cycles
 SCF Done:  E(RB3LYP) =  -559.645453857     A.U. after   11 cycles
 SCF Done:  E(RB3LYP) =  -559.655395953     A.U. after   10 cycles
 SCF Done:  E(RB3LYP) =  -559.655402366     A.U. after    9 cycles
 SCF Done:  E(RB3LYP) =  -559.655405716     A.U. after    9 cycles
 SCF Done:  E(RB3LYP) =  -559.655405832     A.U. after    7 cycles
 SCF Done:  E(RB3LYP) =  -559.655405843     A.U. after    6 cycles
 Optimization completed.
    -- Stationary point found.
 Normal termination of Gaussian 16 at Wed Dec  9 17:01:38 2020.

 --------------------------------------------------------------------
 #N Geom=AllCheck Guess=TCheck SCRF=Check GenChk RB3LYP/6-31G(d) Freq
 --------------------------------------------------------------------

 Structure from the checkpoint file:  "JID_2028.chk"
 -----------------------------
 CID_4220142_JID_2028_neutraal
 -----------------------------
 Charge =  0 Multiplicity = 1

 SCF Done:  E(RB3LYP) =  -559.655405843     A.U. after    1 cycles

  Exact polarizability: 115.988  -5.327 110.106  -5.672   1.698  96.918
 Approx polarizability: 148.220  -2.387 145.787 -15.749  -4.451 149.437

                      1                      2                      3
                      A                      A                      A
 Frequencies --     30.1023                42.7361                59.9748
 Red. masses --      3.9727                 2.7960                 3.2403
 Frc consts  --      0.0021                 0.0030                 0.0069
 IR Inten    --      1.0469                 0.4584                 0.1721

                      4                      5                      6
                      A                      A                      A
 Frequencies --     66.4587                78.9154               128.2861
 Red. masses --      4.3482                 3.4832                 2.5038
 Frc consts  --      0.0113                 0.0128                 0.0243
 IR Inten    --      0.6273                 0.7316                 6.1337

                      7                      8                      9
                      A                      A                      A
 Frequencies --    145.0379               174.5845               220.5385
 Red. masses --      2.2621                 3.6686                 1.9182
 Frc consts  --      0.0280                 0.0659                 0.0550
 IR Inten    --      5.5200                 2.6245                 2.0140

                     10                     11                     12
                      A                      A                      A
 Frequencies --    237.6170               261.0436               264.6529
 Red. masses --      1.0418                 1.1129                 1.8214
 Frc consts  --      0.0347                 0.0447                 0.0752
 IR Inten    --      0.0674                 1.0948                 7.6843

                     13                     14                     15
                      A                      A                      A
 Frequencies --    285.2191               323.3083               361.5361
 Red. masses --      2.7306                 2.3927                 2.1734
 Frc consts  --      0.1309                 0.1474                 0.1674
 IR Inten    --      1.6377                 0.7607                 0.1826

                     16                     17                     18
                      A                      A                      A
 Frequencies --    398.3857               422.5857               432.9483
 Red. masses --      2.3322                 2.2139                 2.4552
 Frc consts  --      0.2181                 0.2329                 0.2712
 IR Inten    --      0.4763                 2.0421                 2.3136

                     19                     20                     21
                      A                      A                      A
 Frequencies --    489.0707               526.4644               572.8144
 Red. masses --      2.3718                 2.9321                 1.8882
 Frc consts  --      0.3342                 0.4788                 0.3650
 IR Inten    --      5.4092                 2.4156                25.7470

                     22                     23                     24
                      A                      A                      A
 Frequencies --    608.7579               701.3796               805.4574
 Red. masses --      1.7268                 3.2167                 1.6507
 Frc consts  --      0.3770                 0.9323                 0.6310
 IR Inten    --     59.2667                31.1259                 4.5951

                     25                     26                     27
                      A                      A                      A
 Frequencies --    836.9629               846.1763               890.1760
 Red. masses --      3.1308                 2.9928                 2.8850
 Frc consts  --      1.2922                 1.2625                 1.3469
 IR Inten    --      4.5595                 2.3074                 1.0419

                     28                     29                     30
                      A                      A                      A
 Frequencies --    908.4437               940.5737               948.1552
 Red. masses --      1.5453                 1.7566                 1.2415
 Frc consts  --      0.7514                 0.9156                 0.6576
 IR Inten    --     18.1896                13.1487                 1.7462

                     31                     32                     33
                      A                      A                      A
 Frequencies --    977.3690               980.4295              1025.1427
 Red. masses --      1.8980                 1.5690                 2.0419
 Frc consts  --      1.0682                 0.8886                 1.2643
 IR Inten    --      0.2435                 0.4471                14.6515

                     34                     35                     36
                      A                      A                      A
 Frequencies --   1081.6991              1102.3990              1135.0590
 Red. masses --      1.8397                 2.2216                 1.9016
 Frc consts  --      1.2683                 1.5907                 1.4434
 IR Inten    --      8.2676                 6.5315                 5.1222

                     37                     38                     39
                      A                      A                      A
 Frequencies --   1148.6485              1157.1263              1166.1358
 Red. masses --      2.0395                 1.9815                 5.0843
 Frc consts  --      1.5854                 1.5631                 4.0736
 IR Inten    --     15.4230                 6.0083               118.0238

                     40                     41                     42
                      A                      A                      A
 Frequencies --   1194.0494              1205.1862              1226.9986
 Red. masses --      1.2824                 1.7316                 1.6421
 Frc consts  --      1.0772                 1.4818                 1.4566
 IR Inten    --      0.7483                18.3142                21.2331

                     43                     44                     45
                      A                      A                      A
 Frequencies --   1253.6430              1265.2256              1279.8965
 Red. masses --      1.5097                 1.2609                 1.3666
 Frc consts  --      1.3979                 1.1892                 1.3190
 IR Inten    --     56.0964                 7.9960                10.6681

                     46                     47                     48
                      A                      A                      A
 Frequencies --   1315.9770              1333.9736              1364.4453
 Red. masses --      1.3030                 1.1357                 1.6004
 Frc consts  --      1.3295                 1.1907                 1.7555
 IR Inten    --      8.2096                 0.6479                46.8922

                     49                     50                     51
                      A                      A                      A
 Frequencies --   1391.6224              1398.5689              1406.5709
 Red. masses --      1.3392                 1.3291                 1.4574
 Frc consts  --      1.5281                 1.5317                 1.6988
 IR Inten    --      4.6981                23.6593                 1.1071

                     52                     53                     54
                      A                      A                      A
 Frequencies --   1426.8182              1431.1476              1447.2077
 Red. masses --      1.6324                 1.2864                 1.4130
 Frc consts  --      1.9581                 1.5524                 1.7436
 IR Inten    --     95.3814                 5.9233                 2.9093

                     55                     56                     57
                      A                      A                      A
 Frequencies --   1449.3110              1491.3641              1503.3950
 Red. masses --      1.2379                 1.2648                 1.1706
 Frc consts  --      1.5320                 1.6575                 1.5588
 IR Inten    --      3.8392                40.1749                 1.7527

                     58                     59                     60
                      A                      A                      A
 Frequencies --   1508.8733              1513.9176              1515.5797
 Red. masses --      1.2758                 1.2372                 1.0588
 Frc consts  --      1.7114                 1.6707                 1.4329
 IR Inten    --      8.0174                23.1690                 6.4880

                     61                     62                     63
                      A                      A                      A
 Frequencies --   1520.0515              1524.1157              1531.1627
 Red. masses --      1.0753                 1.0630                 1.0592
 Frc consts  --      1.4638                 1.4548                 1.4631
 IR Inten    --      1.6977                 6.8997                 7.0587

                     64                     65                     66
                      A                      A                      A
 Frequencies --   1535.7292              1539.1516              1548.4214
 Red. masses --      1.0530                 1.0598                 1.0855
 Frc consts  --      1.4632                 1.4792                 1.5335
 IR Inten    --      3.7368                15.1464                 9.4049

                     67                     68                     69
                      A                      A                      A
 Frequencies --   1557.6811              1777.6315              2986.8904
 Red. masses --      1.0862                 7.5647                 1.0506
 Frc consts  --      1.5528                14.0840                 5.5224
 IR Inten    --      3.4154               334.3969                24.4113

                     70                     71                     72
                      A                      A                      A
 Frequencies --   3000.3716              3017.9648              3035.2325
 Red. masses --      1.0410                 1.1046                 1.0366
 Frc consts  --      5.5217                 5.9278                 5.6264
 IR Inten    --     74.0983                56.9021                27.1129

                     73                     74                     75
                      A                      A                      A
 Frequencies --   3039.1968              3044.3792              3049.9118
 Red. masses --      1.0413                 1.1048                 1.0638
 Frc consts  --      5.6667                 6.0331                 5.8300
 IR Inten    --     16.7839                68.7481                28.8335

                     76                     77                     78
                      A                      A                      A
 Frequencies --   3054.4787              3065.7254              3069.1782
 Red. masses --      1.0804                 1.0709                 1.0654
 Frc consts  --      5.9390                 5.9302                 5.9131
 IR Inten    --      7.2047                55.3570                 3.2145

                     79                     80                     81
                      A                      A                      A
 Frequencies --   3092.7399              3098.5210              3105.5770
 Red. masses --      1.1033                 1.1002                 1.0994
 Frc consts  --      6.2176                 6.2233                 6.2475
 IR Inten    --     31.8889                 7.9247                60.6314

                     82                     83                     84
                      A                      A                      A
 Frequencies --   3111.4188              3119.2098              3129.1694
 Red. masses --      1.1023                 1.1021                 1.0992
 Frc consts  --      6.2874                 6.3174                 6.3416
 IR Inten    --     39.7361                35.9089                13.2719

                     85                     86                     87
                      A                      A                      A
 Frequencies --   3140.4908              3162.2252              3580.3791
 Red. masses --      1.0975                 1.0917                 1.0754
 Frc consts  --      6.3773                 6.4319                 8.1221
 IR Inten    --     27.3225                13.7543                14.8758

 - Thermochemistry -
 -------------------
 Temperature   298.150 Kelvin.  Pressure   1.00000 Atm.
 Atom     1 has atomic number  6 and mass  12.00000

 Molecular mass:   173.14158 amu.
 Principal axes and moments of inertia in atomic units:
                           1         2         3
     Eigenvalues --  1765.778942899.808803706.21250
           X            0.99900  -0.03939   0.02103
           Y            0.03825   0.99792   0.05197
           Z           -0.02304  -0.05111   0.99843
 This molecule is an asymmetric top.
 Rotational symmetry number  1.
 Warning -- assumption of classical behavior for rotation
           may cause significant error
 Rotational temperatures (Kelvin)      0.04905     0.02987     0.02337
 Rotational constants (GHZ):           1.02207     0.62237     0.48695
 Zero-point vibrational energy     736559.6 (Joules/Mol)
                                  176.04197 (Kcal/Mol)
 Warning -- explicit consideration of  22 degrees of freedom as
           vibrations may cause significant error
 Vibrational temperatures:     43.31    61.49    86.29    95.62   113.54
          (Kelvin)            184.58   208.68   251.19   317.31   341.88
                              375.58   380.78   410.37   465.17   520.17
                              573.19   608.01   622.92   703.66   757.46
                              824.15   875.87  1009.13  1158.87  1204.20
                             1217.46  1280.76  1307.05  1353.28  1364.18
                             1406.22  1410.62  1474.95  1556.32  1586.11
                             1633.10  1652.65  1664.85  1677.81  1717.97
                             1733.99  1765.38  1803.71  1820.38  1841.49
                             1893.40  1919.29  1963.13  2002.23  2012.23
                             2023.74  2052.87  2059.10  2082.21  2085.24
                             2145.74  2163.05  2170.93  2178.19  2180.58
                             2187.02  2192.86  2203.00  2209.57  2214.50
                             2227.83  2241.16  2557.62  4297.47  4316.87
                             4342.18  4367.02  4372.73  4380.18  4388.14
                             4394.71  4410.90  4415.86  4449.76  4458.08
                             4468.23  4476.64  4487.85  4502.18  4518.47
                             4549.74  5151.37

 Zero-point correction=                           0.280541 (Hartree/Particle)
 Thermal correction to Energy=                    0.295211
 Thermal correction to Enthalpy=                  0.296155
 Thermal correction to Gibbs Free Energy=         0.237829
 Sum of electronic and zero-point Energies=           -559.374865
 Sum of electronic and thermal Energies=              -559.360195
 Sum of electronic and thermal Enthalpies=            -559.359250
 Sum of electronic and thermal Free Energies=         -559.417577

                     E (Thermal)             CV                S
                      KCal/Mol        Cal/Mol-Kelvin    Cal/Mol-Kelvin
 Total                  185.248             52.597            122.759
 Electronic               0.000              0.000              0.000
 Translational            0.889              2.981             41.354
 Rotational               0.889              2.981             31.318
 Vibrational            183.470             46.636             50.087
 Vibration     1          0.594              1.984              5.823
 Vibration     2          0.595              1.980              5.128
 Vibration     3          0.597              1.973              4.458
 Vibration     4          0.598              1.970              4.256
 Vibration     5          0.600              1.963              3.918
 Vibration     6          0.611              1.925              2.972
 Vibration     7          0.616              1.908              2.736
 Vibration     8          0.627              1.874              2.386
 Vibration     9          0.647              1.810              1.955
 Vibration    10          0.656              1.783              1.821
 Vibration    11          0.669              1.744              1.655
 Vibration    12          0.671              1.738              1.631
 Vibration    13          0.683              1.701              1.502
 Vibration    14          0.708              1.629              1.293
 Vibration    15          0.736              1.551              1.115
 Vibration    16          0.765              1.474              0.969
 Vibration    17          0.785              1.421              0.883
 Vibration    18          0.794              1.398              0.849
 Vibration    19          0.845              1.274              0.686
 Vibration    20          0.881              1.191              0.595
 Vibration    21          0.929              1.090              0.499
 Vibration    22          0.968              1.013              0.435

 Optimization completed.
    -- Stationary point found.
 Normal termination of Gaussian 16 at Wed Dec  9 17:08:54 2020.

 ----------------------------------------------------------------------
 # B3LYP/6-311++G(d,p) empiricaldispersion=gd3bj scf=xqc pop=npa geom=c
 heck
 ----------------------------------------------------------------------

 -------------------------------------
 CID_4220142_JID_2028_Energie_neutraal
 -------------------------------------
 Structure from the checkpoint file:  "JID_2028.chk"
 Charge =  0 Multiplicity = 1

 SCF Done:  E(RB3LYP) =  -559.825011070     A.U. after   14 cycles
 Normal termination of Gaussian 16 at Wed Dec  9 17:12:16 2020.

 ----------------------------------------------------------------------
 # B3LYP/6-311++G(d,p) empiricaldispersion=gd3bj scf=xqc pop=npa geom=c
 heck
 ----------------------------------------------------------------------

 -----------------------------------
 CID_4220142_JID_2028_Energie_kation
 -----------------------------------
 Structure from the checkpoint file:  "JID_2028.chk"
 Charge =  1 Multiplicity = 2

 SCF Done:  E(UB3LYP) =  -559.496152613     A.U. after   33 cycles
 SCF Done:  E(UB3LYP) =  -559.496648031     a.u. after    4 cycles
 Normal termination of Gaussian 16 at Wed Dec  9 17:34:34 2020.
 Gaussian 16:  ES64L-G16RevA.03 25-Dec-2016

 ----------------------------------------------------------------------
 # B3LYP/6-311++G(d,p) empiricaldispersion=gd3bj scf=xqc pop=npa geom=c
 heck
 ----------------------------------------------------------------------

 ----------------------------------
 CID_4220142_JID_2028_Energie_anion
 ----------------------------------
 Structure from the checkpoint file:  "JID_2028.chk"
 Charge = -1 Multiplicity = 2

                         Standard orientation:
 ---------------------------------------------------------------------
 Center     Atomic      Atomic             Coordinates (Angstroms)
 Number     Number       Type             X           Y           Z
 ---------------------------------------------------------------------
      1          6           0        2.506053    0.125370    1.437926
      2          6           0        2.391665   -0.495573    0.040445
      3          6           0        2.729927   -1.989306    0.072779
      4          6           0        0.987174   -0.279742   -0.560970
      5          6           0        0.716266    1.195792   -0.813957
      6          8           0        1.319629    1.802829   -1.693542
      7          7           0       -0.192852    1.851747   -0.021977
      8          6           0       -1.015077    1.365794    1.076232
      9          6           0       -2.462804    1.052541    0.669293
     10          6           0       -2.574797   -0.108626   -0.306143
     11          8           0       -2.097684   -1.279671    0.336829
     12          6           0       -2.111065   -2.407729   -0.512982
     13          1           0        1.805082   -0.352135    2.135449
     14          1           0        2.287731    1.198574    1.421163
     15          1           0        3.515957   -0.005090    1.842923
     16          1           0        3.101848    0.013168   -0.623504
     17          1           0        2.024276   -2.535933    0.711964
     18          1           0        2.684968   -2.430333   -0.929792
     19          1           0        3.737575   -2.156867    0.470412
     20          1           0        0.947673   -0.760506   -1.545032
     21          1           0        0.228089   -0.754628    0.065711
     22          1           0       -0.299223    2.824091   -0.287592
     23          1           0       -0.552913    0.476569    1.505072
     24          1           0       -1.014966    2.129835    1.862409
     25          1           0       -3.040822    0.816045    1.571294
     26          1           0       -2.917946    1.941086    0.213107
     27          1           0       -3.622594   -0.248707   -0.618371
     28          1           0       -1.985035    0.095300   -1.214737
     29          1           0       -3.129738   -2.636216   -0.863653
     30          1           0       -1.464860   -2.258866   -1.392001
     31          1           0       -1.734760   -3.253999    0.066977
 ---------------------------------------------------------------------

 SCF Done:  E(UB3LYP) =  -559.812292739     A.U. after   29 cycles

 The electronic state is 2-A.
 Alpha  occ. eigenvalues --  -19.03223 -18.98238 -14.23470 -10.16976 -10.11889
 Alpha  occ. eigenvalues --  -10.11503 -10.10893 -10.08406 -10.07333 -10.07208
 Alpha  occ. eigenvalues --  -10.06638 -10.06465  -0.94499  -0.93417  -0.82045
 Alpha  occ. eigenvalues --   -0.71733  -0.68703  -0.62123  -0.60841  -0.59302
 Alpha  occ. eigenvalues --   -0.56362  -0.50316  -0.49474  -0.45655  -0.40858
 Alpha  occ. eigenvalues --   -0.40249  -0.39064  -0.38587  -0.36226  -0.35778
 Alpha  occ. eigenvalues --   -0.34967  -0.33892  -0.32572  -0.31186  -0.29818
 Alpha  occ. eigenvalues --   -0.29581  -0.29213  -0.27864  -0.27152  -0.26928
 Alpha  occ. eigenvalues --   -0.25376  -0.24389  -0.23557  -0.23159  -0.22828
 Alpha  occ. eigenvalues --   -0.16998  -0.15455  -0.15341   0.04255
 Alpha virt. eigenvalues --    0.06278   0.06573   0.08117   0.08302   0.08848
 Alpha virt. eigenvalues --    0.09513   0.09909   0.10606   0.10937   0.11260
 Alpha virt. eigenvalues --    0.11968   0.12234   0.12591   0.13438   0.13609

  Beta  occ. eigenvalues --  -19.03212 -18.98232 -14.23455 -10.16971 -10.11869
  Beta  occ. eigenvalues --  -10.11466 -10.10871 -10.08404 -10.07306 -10.07198
  Beta  occ. eigenvalues --  -10.06615 -10.06447  -0.94483  -0.93404  -0.82016
  Beta  occ. eigenvalues --   -0.71717  -0.68656  -0.62088  -0.60793  -0.59261
  Beta  occ. eigenvalues --   -0.56286  -0.50257  -0.49423  -0.45616  -0.40818
  Beta  occ. eigenvalues --   -0.40206  -0.39012  -0.38548  -0.36187  -0.35750
  Beta  occ. eigenvalues --   -0.34939  -0.33858  -0.32542  -0.31142  -0.29798
  Beta  occ. eigenvalues --   -0.29556  -0.29188  -0.27840  -0.27114  -0.26896
  Beta  occ. eigenvalues --   -0.25322  -0.24364  -0.23526  -0.23131  -0.22779
  Beta  occ. eigenvalues --   -0.16976  -0.15443  -0.15318
  Beta virt. eigenvalues --    0.06401   0.07292   0.07514   0.08616   0.08955
  Beta virt. eigenvalues --    0.09289   0.09936   0.10282   0.10893   0.11163
  Beta virt. eigenvalues --    0.11679   0.12267   0.12542   0.13042   0.13625

 Mulliken charges and spin densities:
               1          2
     1  C   -0.326024  -0.370740
     2  C   -0.350414   0.731762
     3  C    0.459775  -1.053669
     4  C    0.316938  -0.546340
     5  C   -0.406327   0.249239
     6  O   -0.349422   0.022625
     7  N   -0.351649   0.145437
     8  C   -0.469710   0.356393
     9  C    2.040001  -2.556825
    10  C   -0.860053   0.607437
    11  O   -0.122077   0.015782
    12  C    0.572886  -0.815463
    13  H   -0.107962   0.249228
    14  H    0.052047   0.118988
    15  H   -0.169348   0.311665
    16  H    0.205702  -0.005516
    17  H   -0.097294   0.248542
    18  H   -0.101963   0.228951
    19  H   -0.029623   0.169063
    20  H    0.065775   0.138237
    21  H    1.032572  -0.990966
    22  H    0.027817   0.288432
    23  H    0.386394  -0.210480
    24  H   -0.830656   1.027340
    25  H   -0.114007   0.288116
    26  H   -0.296063   0.449803
    27  H   -0.440987   0.615150
    28  H    0.090274   0.055048
    29  H   -0.473042   0.604050
    30  H   -0.073522   0.203507
    31  H   -0.280036   0.425205
 Sum of Mulliken charges =  -1.00000   1.00000

 Dipole moment (field-independent basis, Debye):
    X=              3.2028    Y=             -0.9956    Z=             -0.2275  Tot=              3.3617
 Quadrupole moment (field-independent basis, Debye-Ang):
   XX=           -139.4825   YY=           -132.1544   ZZ=           -115.0789
   XY=             -1.0713   XZ=              2.4155   YZ=             -2.3720

 Summary of Natural Population Analysis:

                                       Natural Population
                Natural  -----------------------------------------------
    Atom  No    Charge         Core      Valence    Rydberg      Total
 -----------------------------------------------------------------------
      C    1   -0.28741      0.99965     2.28218    0.00558     3.28741
      C    2   -0.11137      0.99962     2.10269    0.00906     3.11137
      C    3   -0.28357      0.99965     2.27811    0.00581     3.28357
      C    4   -0.23856      0.99956     2.22994    0.00906     3.23856
      C    5    0.34730      0.99966     1.63061    0.02242     2.65270
      O    6   -0.33237      0.99988     3.32686    0.00564     4.33237
      N    7   -0.31915      0.99967     2.80842    0.01107     3.81915
      C    8   -0.09051      0.99960     2.07883    0.01208     3.09051
      C    9   -0.20083      0.99961     2.19164    0.00958     3.20083
      C   10   -0.01068      0.99958     1.99873    0.01237     3.01068
      O   11   -0.30177      0.99988     3.29254    0.00935     4.30177
      C   12   -0.09759      0.99962     2.08859    0.00937     3.09759
      H   13    0.09611      0.00000     0.40280    0.00108     0.40389
      H   14    0.10299      0.00000     0.39603    0.00098     0.39701
      H   15    0.09812      0.00000     0.40112    0.00076     0.40188
      H   16    0.09858      0.00000     0.39977    0.00165     0.40142
      H   17    0.09779      0.00000     0.40115    0.00106     0.40221
      H   18    0.09934      0.00000     0.39979    0.00088     0.40066
      H   19    0.09752      0.00000     0.40168    0.00080     0.40248
      H   20    0.11093      0.00000     0.38767    0.00140     0.38907
      H   21    0.10858      0.00000     0.38830    0.00312     0.39142
      H   22    0.19421      0.00000     0.30337    0.00242     0.30579
      H   23    0.10270      0.00000     0.39494    0.00236     0.39730
      H   24    0.10045      0.00000     0.39710    0.00245     0.39955
      H   25    0.10317      0.00000     0.39513    0.00170     0.39683
      H   26    0.10140      0.00000     0.39670    0.00190     0.39860
      H   27    0.08489      0.00000     0.41341    0.00170     0.41511
      H   28    0.07904      0.00000     0.41895    0.00201     0.42096
      H   29    0.08071      0.00000     0.41746    0.00183     0.41929
      H   30    0.07876      0.00000     0.41985    0.00138     0.42124
      H   31    0.09122      0.00000     0.40751    0.00126     0.40878
 =======================================================================
   * Total *    0.00000     11.99597    35.85189    0.15215    48.00000

 Normal termination of Gaussian 16 at Wed Dec  9 17:43:32 2020.
