 Gaussian 16, Revision A.03,

 -----------------------------------------------------------
 # opt freq B3LYP/6-31G(d) empiricaldispersion=gd3bj scf=xqc
 -----------------------------------------------------------

 ------------------------------
 CID_80122543_JID_9564_neutraal
 ------------------------------
 Symbolic Z-matrix:
 Charge =  0 Multiplicity = 1

 SCF Done:  E(RB3LYP) =  -907.756950455     A.U. after   15 cycles
 SCF Done:  E(RB3LYP) =  -907.760891343     A.U. after   14 cycles
 SCF Done:  E(RB3LYP) =  -907.760377520     A.U. after   14 cycles
 SCF Done:  E(RB3LYP) =  -907.761923504     A.U. after   13 cycles
 SCF Done:  E(RB3LYP) =  -907.762724809     A.U. after   14 cycles
 SCF Done:  E(RB3LYP) =  -907.765270286     A.U. after   13 cycles
 SCF Done:  E(RB3LYP) =  -907.765239726     A.U. after   12 cycles
 SCF Done:  E(RB3LYP) =  -907.765384698     A.U. after   12 cycles
 SCF Done:  E(RB3LYP) =  -907.765498877     A.U. after   11 cycles
 SCF Done:  E(RB3LYP) =  -907.765534105     A.U. after   10 cycles
 SCF Done:  E(RB3LYP) =  -907.765610204     A.U. after   11 cycles
 SCF Done:  E(RB3LYP) =  -907.765617461     A.U. after   10 cycles
 SCF Done:  E(RB3LYP) =  -907.765618243     A.U. after    8 cycles
 SCF Done:  E(RB3LYP) =  -907.765618283     A.U. after    8 cycles
 SCF Done:  E(RB3LYP) =  -907.765618245     A.U. after    7 cycles
 SCF Done:  E(RB3LYP) =  -907.765618288     A.U. after    7 cycles
 Optimization completed.
    -- Stationary point found.
 Normal termination of Gaussian 16 at Mon Dec 14 13:37:44 2020.

 --------------------------------------------------------------------
 #N Geom=AllCheck Guess=TCheck SCRF=Check GenChk RB3LYP/6-31G(d) Freq
 --------------------------------------------------------------------

 Structure from the checkpoint file:  "JID_9564.chk"
 ------------------------------
 CID_80122543_JID_9564_neutraal
 ------------------------------
 Charge =  0 Multiplicity = 1

 SCF Done:  E(RB3LYP) =  -907.765618288     A.U. after    1 cycles

  Exact polarizability: 216.291  16.151 124.624 -15.628  15.945 128.560
 Approx polarizability: 319.896  29.411 209.941 -39.669  47.989 221.161

                      1                      2                      3
                      A                      A                      A
 Frequencies --     18.2538                35.3403                66.3408
 Red. masses --      5.4492                 5.5774                 5.4943
 Frc consts  --      0.0011                 0.0041                 0.0142
 IR Inten    --      2.3250                 0.6480                 1.0107

                      4                      5                      6
                      A                      A                      A
 Frequencies --     81.7665               131.7313               145.6830
 Red. masses --      8.7139                 5.2380                 6.2349
 Frc consts  --      0.0343                 0.0536                 0.0780
 IR Inten    --      3.9412                 0.9858                 2.0160

                      7                      8                      9
                      A                      A                      A
 Frequencies --    182.1473               214.7059               226.1912
 Red. masses --      5.1950                 3.1069                 1.4076
 Frc consts  --      0.1016                 0.0844                 0.0424
 IR Inten    --      2.0464                 0.6940                 0.7946

                     10                     11                     12
                      A                      A                      A
 Frequencies --    244.7360               260.9641               279.8497
 Red. masses --      2.0163                 1.2180                 2.5382
 Frc consts  --      0.0712                 0.0489                 0.1171
 IR Inten    --      0.3273                 0.0846                 2.6501

                     13                     14                     15
                      A                      A                      A
 Frequencies --    286.3061               301.8851               306.6512
 Red. masses --      3.2931                 1.5002                 2.0172
 Frc consts  --      0.1590                 0.0806                 0.1118
 IR Inten    --      2.8695                 0.7910                 0.8482

                     16                     17                     18
                      A                      A                      A
 Frequencies --    343.1728               349.1409               366.1508
 Red. masses --      1.4234                 2.8004                 2.8478
 Frc consts  --      0.0988                 0.2011                 0.2249
 IR Inten    --      0.1400                 3.0693                 2.7558

                     19                     20                     21
                      A                      A                      A
 Frequencies --    370.9109               384.4292               398.3292
 Red. masses --      2.2785                 4.1864                 3.7897
 Frc consts  --      0.1847                 0.3645                 0.3543
 IR Inten    --      0.8510                 2.6085                 2.5454

                     22                     23                     24
                      A                      A                      A
 Frequencies --    426.1044               456.5418               473.1672
 Red. masses --      3.8804                 3.0927                 4.2878
 Frc consts  --      0.4151                 0.3798                 0.5656
 IR Inten    --      0.3200                 4.8389                 2.3903

                     25                     26                     27
                      A                      A                      A
 Frequencies --    486.0351               548.6156               573.2594
 Red. masses --      3.6218                 3.6566                 4.8411
 Frc consts  --      0.5041                 0.6484                 0.9373
 IR Inten    --     14.2706                 5.3461                 6.0224

                     28                     29                     30
                      A                      A                      A
 Frequencies --    595.9923               623.4670               643.9137
 Red. masses --      2.8365                 2.4628                 1.5912
 Frc consts  --      0.5936                 0.5640                 0.3887
 IR Inten    --      4.3100                31.9326                98.3371

                     31                     32                     33
                      A                      A                      A
 Frequencies --    683.3263               689.7261               711.9352
 Red. masses --      2.5636                 2.6455                12.0436
 Frc consts  --      0.7053                 0.7415                 3.5966
 IR Inten    --     41.4932                39.3461                 0.5733

                     34                     35                     36
                      A                      A                      A
 Frequencies --    726.0550               751.7837               771.8306
 Red. masses --      2.6392                 8.8720                 3.7347
 Frc consts  --      0.8197                 2.9543                 1.3108
 IR Inten    --     24.6619                 3.8995                17.1898

                     37                     38                     39
                      A                      A                      A
 Frequencies --    785.9990               808.5953               829.3582
 Red. masses --      5.3311                 3.9183                 1.8303
 Frc consts  --      1.9405                 1.5094                 0.7418
 IR Inten    --     12.0887                31.0667                14.2382

                     40                     41                     42
                      A                      A                      A
 Frequencies --    839.9230               911.9166               945.7704
 Red. masses --      2.8737                 4.0682                 2.4525
 Frc consts  --      1.1945                 1.9933                 1.2925
 IR Inten    --     17.2036                 5.4213                 1.8259

                     43                     44                     45
                      A                      A                      A
 Frequencies --    958.3179               967.7092               971.7574
 Red. masses --      2.6305                 1.4548                 1.4647
 Frc consts  --      1.4233                 0.8027                 0.8149
 IR Inten    --     12.3259                 1.1141                 1.9466

                     46                     47                     48
                      A                      A                      A
 Frequencies --    985.3910              1023.7781              1038.6123
 Red. masses --      1.2743                 9.8893                 1.2793
 Frc consts  --      0.7290                 6.1070                 0.8131
 IR Inten    --      0.4630                 5.9283                 2.4547

                     49                     50                     51
                      A                      A                      A
 Frequencies --   1045.4522              1053.9116              1107.2293
 Red. masses --      2.4006                 1.3088                10.0456
 Frc consts  --      1.5459                 0.8565                 7.2561
 IR Inten    --      4.7852                 3.1959                18.8344

                     52                     53                     54
                      A                      A                      A
 Frequencies --   1155.4575              1171.6622              1176.8884
 Red. masses --      2.8096                 1.5494                 3.2375
 Frc consts  --      2.2101                 1.2532                 2.6420
 IR Inten    --    132.5737                 2.8357                17.4083

                     55                     56                     57
                      A                      A                      A
 Frequencies --   1183.5876              1188.4646              1211.1417
 Red. masses --      3.5492                 2.2070                 2.5358
 Frc consts  --      2.9294                 1.8366                 2.1916
 IR Inten    --      0.7455                45.6219                 4.9826

                     58                     59                     60
                      A                      A                      A
 Frequencies --   1239.5177              1258.2362              1265.4597
 Red. masses --      2.3368                 2.1132                 4.0693
 Frc consts  --      2.1153                 1.9712                 3.8394
 IR Inten    --      8.0614                31.2842               128.8247

                     61                     62                     63
                      A                      A                      A
 Frequencies --   1288.5598              1329.8367              1375.4490
 Red. masses --      4.4440                 4.4381                 2.5782
 Frc consts  --      4.3474                 4.6242                 2.8738
 IR Inten    --     31.1545                13.4574                20.8345

                     64                     65                     66
                      A                      A                      A
 Frequencies --   1381.5008              1405.1922              1430.4867
 Red. masses --      2.4019                12.4309                 1.2525
 Frc consts  --      2.7009                14.4619                 1.5100
 IR Inten    --     38.3763                30.0930                 3.1134

                     67                     68                     69
                      A                      A                      A
 Frequencies --   1430.8172              1444.4799              1447.5263
 Red. masses --      1.2169                 2.2744                 1.5541
 Frc consts  --      1.4678                 2.7960                 1.9185
 IR Inten    --     12.7207                 4.0677                23.8326

                     70                     71                     72
                      A                      A                      A
 Frequencies --   1453.4331              1463.6026              1514.1880
 Red. masses --      3.2375                 1.2844                 1.0518
 Frc consts  --      4.0295                 1.6210                 1.4209
 IR Inten    --    182.3285                64.2281                 4.8224

                     73                     74                     75
                      A                      A                      A
 Frequencies --   1514.9062              1525.0117              1529.2703
 Red. masses --      1.0586                 1.0677                 1.0549
 Frc consts  --      1.4314                 1.4630                 1.4535
 IR Inten    --      5.7200                11.3318                 2.3292

                     76                     77                     78
                      A                      A                      A
 Frequencies --   1538.8438              1544.0020              1548.0478
 Red. masses --      1.0509                 1.0582                 1.0666
 Frc consts  --      1.4663                 1.4864                 1.5061
 IR Inten    --     10.6125                 4.3611                 4.8276

                     79                     80                     81
                      A                      A                      A
 Frequencies --   1564.1011              1584.9876              1608.2485
 Red. masses --      1.0983                 1.6627                 5.6710
 Frc consts  --      1.5830                 2.4610                 8.6420
 IR Inten    --     34.1435                90.5098               137.0038

                     82                     83                     84
                      A                      A                      A
 Frequencies --   1680.5795              1813.2449              3070.3197
 Red. masses --      5.9724                 9.6588                 1.0374
 Frc consts  --      9.9384                18.7105                 5.7620
 IR Inten    --    125.1133               179.3601                12.3950

                     85                     86                     87
                      A                      A                      A
 Frequencies --   3071.4420              3077.4749              3080.8599
 Red. masses --      1.0376                 1.0371                 1.0380
 Frc consts  --      5.7672                 5.7871                 5.8051
 IR Inten    --      4.8972                24.4199                15.7075

                     88                     89                     90
                      A                      A                      A
 Frequencies --   3131.7200              3137.0326              3141.0775
 Red. masses --      1.1006                 1.1020                 1.1027
 Frc consts  --      6.3596                 6.3895                 6.4099
 IR Inten    --      6.8544                36.5984                17.1312

                     91                     92                     93
                      A                      A                      A
 Frequencies --   3145.1954              3154.1908              3161.5974
 Red. masses --      1.1017                 1.1031                 1.1004
 Frc consts  --      6.4213                 6.4662                 6.4805
 IR Inten    --     16.0847                21.6666                27.4984

                     94                     95                     96
                      A                      A                      A
 Frequencies --   3173.8844              3179.1067              3242.1371
 Red. masses --      1.1013                 1.1005                 1.0929
 Frc consts  --      6.5364                 6.5534                 6.7682
 IR Inten    --     10.3637                 5.7704                 0.3706

                     97                     98                     99
                      A                      A                      A
 Frequencies --   3305.1477              3564.6755              3676.5521
 Red. masses --      1.0915                 1.0742                 1.0640
 Frc consts  --      7.0252                 8.0424                 8.4737
 IR Inten    --      1.0677                19.9619                42.2329

 - Thermochemistry -
 -------------------
 Temperature   298.150 Kelvin.  Pressure   1.00000 Atm.
 Atom     1 has atomic number  6 and mass  12.00000

 Molecular mass:   264.13347 amu.
 Principal axes and moments of inertia in atomic units:
                           1         2         3
     Eigenvalues --  2190.102517379.856657611.42536
           X            0.99989   0.01422   0.00485
           Y           -0.01425   0.99987   0.00762
           Z           -0.00474  -0.00769   0.99996
 This molecule is an asymmetric top.
 Rotational symmetry number  1.
 Warning -- assumption of classical behavior for rotation
           may cause significant error
 Rotational temperatures (Kelvin)      0.03955     0.01174     0.01138
 Rotational constants (GHZ):           0.82404     0.24455     0.23711
 Zero-point vibrational energy     747721.7 (Joules/Mol)
                                  178.70977 (Kcal/Mol)
 Warning -- explicit consideration of  28 degrees of freedom as
           vibrations may cause significant error
 Vibrational temperatures:     26.26    50.85    95.45   117.64   189.53
          (Kelvin)            209.61   262.07   308.91   325.44   352.12
                              375.47   402.64   411.93   434.35   441.20
                              493.75   502.34   526.81   533.66   553.11
                              573.11   613.07   656.86   680.78   699.30
                              789.34   824.79   857.50   897.03   926.45
                              983.15   992.36  1024.32  1044.63  1081.65
                             1110.49  1130.88  1163.39  1193.26  1208.46
                             1312.04  1360.75  1378.81  1392.32  1398.14
                             1417.76  1472.99  1494.33  1504.17  1516.34
                             1593.06  1662.45  1685.76  1693.28  1702.92
                             1709.94  1742.56  1783.39  1810.32  1820.71
                             1853.95  1913.34  1978.96  1987.67  2021.76
                             2058.15  2058.63  2078.28  2082.67  2091.17
                             2105.80  2178.58  2179.61  2194.15  2200.28
                             2214.05  2221.47  2227.30  2250.39  2280.44
                             2313.91  2417.98  2608.86  4417.51  4419.12
                             4427.80  4432.67  4505.85  4513.49  4519.31
                             4525.23  4538.18  4548.83  4566.51  4574.03
                             4664.71  4755.37  5128.77  5289.74

 Zero-point correction=                           0.284792 (Hartree/Particle)
 Thermal correction to Energy=                    0.302115
 Thermal correction to Enthalpy=                  0.303059
 Thermal correction to Gibbs Free Energy=         0.239669
 Sum of electronic and zero-point Energies=           -907.480826
 Sum of electronic and thermal Energies=              -907.463504
 Sum of electronic and thermal Enthalpies=            -907.462559
 Sum of electronic and thermal Free Energies=         -907.525949

                     E (Thermal)             CV                S
                      KCal/Mol        Cal/Mol-Kelvin    Cal/Mol-Kelvin
 Total                  189.580             68.294            133.415
 Electronic               0.000              0.000              0.000
 Translational            0.889              2.981             42.613
 Rotational               0.889              2.981             33.175
 Vibrational            187.802             62.332             57.626
 Vibration     1          0.593              1.986              6.816
 Vibration     2          0.594              1.982              5.505
 Vibration     3          0.598              1.970              4.259
 Vibration     4          0.600              1.962              3.848
 Vibration     5          0.612              1.922              2.921
 Vibration     6          0.617              1.907              2.728
 Vibration     7          0.630              1.864              2.306
 Vibration     8          0.645              1.819              2.003
 Vibration     9          0.650              1.801              1.909
 Vibration    10          0.660              1.771              1.768
 Vibration    11          0.669              1.744              1.655
 Vibration    12          0.680              1.711              1.535
 Vibration    13          0.684              1.699              1.496
 Vibration    14          0.694              1.670              1.406
 Vibration    15          0.697              1.661              1.380
 Vibration    16          0.722              1.589              1.197
 Vibration    17          0.726              1.577              1.170
 Vibration    18          0.739              1.542              1.096
 Vibration    19          0.743              1.532              1.076
 Vibration    20          0.753              1.503              1.022
 Vibration    21          0.765              1.474              0.969
 Vibration    22          0.788              1.413              0.871
 Vibration    23          0.815              1.346              0.776
 Vibration    24          0.830              1.310              0.729
 Vibration    25          0.842              1.281              0.694
 Vibration    26          0.904              1.143              0.547
 Vibration    27          0.930              1.089              0.498
 Vibration    28          0.954              1.040              0.457

 Optimization completed.
    -- Stationary point found.
 Normal termination of Gaussian 16 at Mon Dec 14 13:59:07 2020.

 ----------------------------------------------------------------------
 # B3LYP/6-311++G(d,p) empiricaldispersion=gd3bj scf=xqc pop=npa geom=c
 heck
 ----------------------------------------------------------------------

 --------------------------------------
 CID_80122543_JID_9564_Energie_neutraal
 --------------------------------------
 Structure from the checkpoint file:  "JID_9564.chk"
 Charge =  0 Multiplicity = 1

 SCF Done:  E(RB3LYP) =  -908.019712297     A.U. after   17 cycles
 Normal termination of Gaussian 16 at Mon Dec 14 14:08:48 2020.

 ----------------------------------------------------------------------
 # B3LYP/6-311++G(d,p) empiricaldispersion=gd3bj scf=xqc pop=npa geom=c
 heck
 ----------------------------------------------------------------------

 ------------------------------------
 CID_80122543_JID_9564_Energie_kation
 ------------------------------------
 Structure from the checkpoint file:  "JID_9564.chk"
 Charge =  1 Multiplicity = 2

 SCF Done:  E(UB3LYP) =  -907.704959213     A.U. after   25 cycles
 Normal termination of Gaussian 16 at Mon Dec 14 14:29:17 2020.
 Gaussian 16:  ES64L-G16RevA.03 25-Dec-2016

 ----------------------------------------------------------------------
 # B3LYP/6-311++G(d,p) empiricaldispersion=gd3bj scf=xqc pop=npa geom=c
 heck
 ----------------------------------------------------------------------

 -----------------------------------
 CID_80122543_JID_9564_Energie_anion
 -----------------------------------
 Structure from the checkpoint file:  "JID_9564.chk"
 Charge = -1 Multiplicity = 2

                         Standard orientation:
 ---------------------------------------------------------------------
 Center     Atomic      Atomic             Coordinates (Angstroms)
 Number     Number       Type             X           Y           Z
 ---------------------------------------------------------------------
      1          6           0       -3.824031    0.827686   -0.339476
      2          6           0       -2.409934    0.260244   -0.587520
      3          6           0       -2.335642   -0.309452   -2.015337
      4          6           0       -1.445732    1.442055   -0.429108
      5          8           0       -1.495077    2.263239    0.465143
      6          8           0       -0.499689    1.502067   -1.391941
      7          6           0       -2.033570   -0.850896    0.495507
      8          6           0       -2.254525   -0.356584    1.938451
      9          6           0       -2.906265   -2.107865    0.312473
     10          7           0       -0.655305   -1.356216    0.296240
     11          6           0        0.556639   -0.708522    0.393547
     12          7           0        1.463242   -1.141391   -0.473935
     13          7           0        2.677603   -0.590136   -0.333790
     14          6           0        3.063234    0.382590    0.550210
     15          7           0        4.346654    0.659850    0.317439
     16          7           0        4.710898   -0.145963   -0.698280
     17          7           0        3.729069   -0.910230   -1.113102
     18          6           0        2.086911    0.842494    1.465700
     19          6           0        0.841920    0.291301    1.395128
     20          1           0       -4.066506    1.563833   -1.113147
     21          1           0       -3.894899    1.328690    0.626668
     22          1           0       -4.577365    0.037336   -0.391834
     23          1           0       -2.482988    0.488622   -2.747733
     24          1           0       -1.367688   -0.768929   -2.228999
     25          1           0       -3.123628   -1.050746   -2.172144
     26          1           0        0.060014    2.272138   -1.174795
     27          1           0       -3.321312   -0.384991    2.175789
     28          1           0       -1.738520   -1.025540    2.632967
     29          1           0       -1.920402    0.668741    2.094273
     30          1           0       -2.725886   -2.601804   -0.646959
     31          1           0       -2.671209   -2.820764    1.108056
     32          1           0       -3.968776   -1.865124    0.375216
     33          1           0       -0.601204   -2.044517   -0.446696
     34          1           0        2.347475    1.597251    2.198285
     35          1           0        0.071872    0.593665    2.085985
 ---------------------------------------------------------------------

 SCF Done:  E(UB3LYP) =  -908.045400738     A.U. after   27 cycles

 The electronic state is 2-A.
 Alpha  occ. eigenvalues --  -19.06504 -19.00638 -14.27988 -14.21962 -14.21230
 Alpha  occ. eigenvalues --  -14.20284 -14.18024 -14.17677 -10.19803 -10.13714
 Alpha  occ. eigenvalues --  -10.11102 -10.10523 -10.09056 -10.08224 -10.08203
 Alpha  occ. eigenvalues --  -10.07368 -10.06614 -10.02770 -10.02505  -1.00680
 Alpha  occ. eigenvalues --   -0.98868  -0.91483  -0.87229  -0.82306  -0.75200
 Alpha  occ. eigenvalues --   -0.73384  -0.69430  -0.66480  -0.64934  -0.61392
 Alpha  occ. eigenvalues --   -0.60108  -0.56500  -0.53622  -0.52081  -0.50285
 Alpha  occ. eigenvalues --   -0.49578  -0.45207  -0.42166  -0.41132  -0.39686
 Alpha  occ. eigenvalues --   -0.39037  -0.38367  -0.36478  -0.36091  -0.35815
 Alpha  occ. eigenvalues --   -0.33951  -0.32675  -0.32405  -0.31592  -0.31202
 Alpha  occ. eigenvalues --   -0.30054  -0.29934  -0.29144  -0.28118  -0.27543
 Alpha  occ. eigenvalues --   -0.26986  -0.26501  -0.25153  -0.24704  -0.24263
 Alpha  occ. eigenvalues --   -0.23124  -0.22046  -0.20080  -0.18185  -0.17478
 Alpha  occ. eigenvalues --   -0.16239  -0.15295  -0.12493  -0.11564  -0.09699
 Alpha  occ. eigenvalues --    0.03469
 Alpha virt. eigenvalues --    0.05892   0.07747   0.08156   0.08812   0.09216
 Alpha virt. eigenvalues --    0.10149   0.10539   0.10806   0.11055   0.12245
 Alpha virt. eigenvalues --    0.12472   0.13110   0.13449   0.13820   0.14478

  Beta  occ. eigenvalues --  -19.06475 -19.00527 -14.27751 -14.22039 -14.21136
  Beta  occ. eigenvalues --  -14.20268 -14.17537 -14.17512 -10.19733 -10.13702
  Beta  occ. eigenvalues --  -10.11107 -10.10469 -10.09145 -10.08223 -10.08200
  Beta  occ. eigenvalues --  -10.07363 -10.06613 -10.02556 -10.02017  -1.00570
  Beta  occ. eigenvalues --   -0.98610  -0.91333  -0.86767  -0.82166  -0.75017
  Beta  occ. eigenvalues --   -0.73305  -0.69170  -0.66104  -0.64374  -0.61360
  Beta  occ. eigenvalues --   -0.60090  -0.56412  -0.53355  -0.51621  -0.50041
  Beta  occ. eigenvalues --   -0.49301  -0.45126  -0.42064  -0.40932  -0.39519
  Beta  occ. eigenvalues --   -0.38936  -0.38227  -0.36316  -0.35835  -0.35049
  Beta  occ. eigenvalues --   -0.33753  -0.32593  -0.32362  -0.31551  -0.31148
  Beta  occ. eigenvalues --   -0.29958  -0.29871  -0.29095  -0.27971  -0.27364
  Beta  occ. eigenvalues --   -0.26808  -0.26028  -0.25034  -0.24539  -0.23811
  Beta  occ. eigenvalues --   -0.22917  -0.21584  -0.18742  -0.17642  -0.17121
  Beta  occ. eigenvalues --   -0.15807  -0.15221  -0.12200  -0.10215  -0.08132
  Beta virt. eigenvalues --    0.05838   0.07679   0.08077   0.08786   0.09321
  Beta virt. eigenvalues --    0.10082   0.10361   0.10690   0.10973   0.11205
  Beta virt. eigenvalues --    0.12221   0.12456   0.13297   0.13463   0.13789

 Mulliken charges and spin densities:
               1          2
     1  C   -0.290451  -0.043361
     2  C    0.539161  -0.025947
     3  C   -0.436621  -0.017558
     4  C   -0.666661   0.097273
     5  O   -0.202989   0.021742
     6  O    0.052642  -0.003633
     7  C   -0.451643   0.084035
     8  C   -0.656644   0.018794
     9  C   -0.279264  -0.082227
    10  N    0.215768  -0.005524
    11  C   -0.802150   0.033672
    12  N   -0.247529   0.304925
    13  N    0.129015   0.018843
    14  C   -0.385054  -0.071227
    15  N   -0.174477   0.058255
    16  N    0.005102   0.040096
    17  N   -0.057804  -0.037806
    18  C   -0.003750   0.430471
    19  C    0.057583   0.121516
    20  H    0.143001  -0.000781
    21  H    0.187023  -0.001755
    22  H    0.118739   0.019881
    23  H    0.170213  -0.002389
    24  H    0.224313   0.015627
    25  H    0.101813   0.022405
    26  H    0.269346   0.001944
    27  H    0.118201   0.011036
    28  H    0.171859   0.008440
    29  H    0.205974   0.001336
    30  H    0.124240   0.006475
    31  H    0.166399   0.004547
    32  H    0.130490   0.008726
    33  H    0.280653  -0.005512
    34  H    0.153059  -0.023100
    35  H    0.090444  -0.009218
 Sum of Mulliken charges =  -1.00000   1.00000

 Dipole moment (field-independent basis, Debye):
    X=            -13.4919    Y=             -0.2447    Z=              0.3405  Tot=             13.4984
 Quadrupole moment (field-independent basis, Debye-Ang):
   XX=           -187.7445   YY=           -128.7605   ZZ=           -126.5590
   XY=              5.9620   XZ=              7.7055   YZ=             -6.5730

 Summary of Natural Population Analysis:

                                       Natural Population
                Natural  -----------------------------------------------
    Atom  No    Charge         Core      Valence    Rydberg      Total
 -----------------------------------------------------------------------
      C    1   -0.28447      0.99964     2.27888    0.00595     3.28447
      C    2   -0.08025      0.99949     2.06852    0.01224     3.08025
      C    3   -0.29139      0.99964     2.28449    0.00726     3.29139
      C    4    0.42110      0.99963     1.55098    0.02829     2.57890
      O    5   -0.30559      0.99987     3.29947    0.00625     4.30559
      O    6   -0.33859      0.99987     3.33172    0.00700     4.33859
      C    7    0.08012      0.99956     1.90669    0.01363     2.91988
      C    8   -0.29838      0.99962     2.29248    0.00628     3.29838
      C    9   -0.28751      0.99962     2.28119    0.00670     3.28751
      N   10   -0.33116      0.99964     2.81825    0.01327     3.83116
      C   11    0.19800      0.99957     1.78472    0.01770     2.80200
      N   12   -0.09835      0.99964     2.58545    0.01326     3.59835
      N   13    0.01469      0.99959     2.46665    0.01907     3.48531
      C   14    0.12765      0.99958     1.85327    0.01951     2.87235
      N   15   -0.15890      0.99970     2.64486    0.01434     3.65890
      N   16   -0.04652      0.99982     2.52721    0.01950     3.54652
      N   17   -0.07680      0.99978     2.56166    0.01537     3.57680
      C   18   -0.00880      0.99953     2.00070    0.00858     3.00880
      C   19   -0.09527      0.99953     2.08739    0.00834     3.09527
      H   20    0.09938      0.00000     0.39969    0.00093     0.40062
      H   21    0.11005      0.00000     0.38918    0.00076     0.38995
      H   22    0.09503      0.00000     0.40384    0.00113     0.40497
      H   23    0.10308      0.00000     0.39608    0.00084     0.39692
      H   24    0.11479      0.00000     0.38397    0.00124     0.38521
      H   25    0.09455      0.00000     0.40436    0.00110     0.40545
      H   26    0.24188      0.00000     0.25476    0.00336     0.25812
      H   27    0.09495      0.00000     0.40420    0.00085     0.40505
      H   28    0.10755      0.00000     0.39156    0.00089     0.39245
      H   29    0.11573      0.00000     0.38320    0.00107     0.38427
      H   30    0.09903      0.00000     0.40012    0.00085     0.40097
      H   31    0.10622      0.00000     0.39279    0.00099     0.39378
      H   32    0.09709      0.00000     0.40204    0.00087     0.40291
      H   33    0.18752      0.00000     0.31060    0.00189     0.31248
      H   34    0.09529      0.00000     0.40333    0.00139     0.40471
      H   35    0.09831      0.00000     0.40042    0.00126     0.40169
 =======================================================================
   * Total *    0.00000     18.99332    50.74472    0.26196    70.00000

 Normal termination of Gaussian 16 at Mon Dec 14 14:51:16 2020.
