 Gaussian 16, Revision A.03,

 -----------------------------------------------------------
 # opt freq B3LYP/6-31G(d) empiricaldispersion=gd3bj scf=xqc
 -----------------------------------------------------------

 ------------------------------
 CID_89305973_JID_1534_neutraal
 ------------------------------
 Symbolic Z-matrix:
 Charge =  0 Multiplicity = 1

 SCF Done:  E(RB3LYP) =  -532.595081258     A.U. after   17 cycles
 SCF Done:  E(RB3LYP) =  -532.594657306     A.U. after   15 cycles
 SCF Done:  E(RB3LYP) =  -532.597763909     A.U. after   15 cycles
 SCF Done:  E(RB3LYP) =  -532.599560282     A.U. after   14 cycles
 SCF Done:  E(RB3LYP) =  -532.600249405     A.U. after   13 cycles
 SCF Done:  E(RB3LYP) =  -532.598895603     A.U. after   14 cycles
 SCF Done:  E(RB3LYP) =  -532.600789863     A.U. after   14 cycles
 SCF Done:  E(RB3LYP) =  -532.601018597     A.U. after   14 cycles
 SCF Done:  E(RB3LYP) =  -532.601203051     A.U. after   14 cycles
 SCF Done:  E(RB3LYP) =  -532.601333171     A.U. after   13 cycles
 SCF Done:  E(RB3LYP) =  -532.601399792     A.U. after   13 cycles
 SCF Done:  E(RB3LYP) =  -532.601421521     A.U. after   13 cycles
 SCF Done:  E(RB3LYP) =  -532.601425555     A.U. after   12 cycles
 SCF Done:  E(RB3LYP) =  -532.601427081     A.U. after   11 cycles
 SCF Done:  E(RB3LYP) =  -532.601427338     A.U. after    9 cycles
 SCF Done:  E(RB3LYP) =  -532.601427433     A.U. after    9 cycles
 Optimization completed.
    -- Stationary point found.
 Normal termination of Gaussian 16 at Tue Dec  8 20:19:05 2020.

 --------------------------------------------------------------------
 #N Geom=AllCheck Guess=TCheck SCRF=Check GenChk RB3LYP/6-31G(d) Freq
 --------------------------------------------------------------------

 Structure from the checkpoint file:  "JID_1534.chk"
 ------------------------------
 CID_89305973_JID_1534_neutraal
 ------------------------------
 Charge =  0 Multiplicity = 1

 SCF Done:  E(RB3LYP) =  -532.601427433     A.U. after    1 cycles

  Exact polarizability: 189.954  23.025 103.865   1.728  -4.424  48.579
 Approx polarizability: 342.076  60.077 162.984  -0.466 -10.592  78.483

                      1                      2                      3
                      A                      A                      A
 Frequencies --     29.7788                50.1394                81.2633
 Red. masses --      5.7238                 3.2207                 5.6839
 Frc consts  --      0.0030                 0.0048                 0.0221
 IR Inten    --      0.3629                 0.3705                 0.3939

                      4                      5                      6
                      A                      A                      A
 Frequencies --    159.2162               184.0974               236.4953
 Red. masses --      4.4008                 3.2502                 5.2713
 Frc consts  --      0.0657                 0.0649                 0.1737
 IR Inten    --      1.1378                 1.0661                 4.7117

                      7                      8                      9
                      A                      A                      A
 Frequencies --    261.0411               273.6110               305.5527
 Red. masses --      1.0553                 3.4530                 3.8933
 Frc consts  --      0.0424                 0.1523                 0.2142
 IR Inten    --      0.2942                 2.8181                 0.4664

                     10                     11                     12
                      A                      A                      A
 Frequencies --    347.8879               395.1168               436.4175
 Red. masses --      2.3901                 4.1698                 2.0614
 Frc consts  --      0.1704                 0.3835                 0.2313
 IR Inten    --     21.0757                 3.9888                38.0325

                     13                     14                     15
                      A                      A                      A
 Frequencies --    487.1935               512.4588               520.1594
 Red. masses --      2.8491                 2.3870                 3.2058
 Frc consts  --      0.3984                 0.3693                 0.5111
 IR Inten    --     16.7120                10.5689                 2.7708

                     16                     17                     18
                      A                      A                      A
 Frequencies --    576.6324               670.1971               690.1864
 Red. masses --      2.6947                 1.5294                 1.6597
 Frc consts  --      0.5279                 0.4047                 0.4658
 IR Inten    --     48.1516               272.6971               117.0603

                     19                     20                     21
                      A                      A                      A
 Frequencies --    710.0090               738.7970               758.7974
 Red. masses --      1.6440                 1.7169                 4.7354
 Frc consts  --      0.4883                 0.5521                 1.6064
 IR Inten    --     39.3805                 1.4130                15.9242

                     22                     23                     24
                      A                      A                      A
 Frequencies --    781.5284               845.7026               890.7474
 Red. masses --      3.1557                 5.7439                 4.2820
 Frc consts  --      1.1356                 2.4204                 2.0017
 IR Inten    --     20.7303                12.3757                 7.7943

                     25                     26                     27
                      A                      A                      A
 Frequencies --    926.6126               958.9366               963.8743
 Red. masses --      1.3490                 1.4510                 1.2514
 Frc consts  --      0.6824                 0.7862                 0.6850
 IR Inten    --     19.1408                27.3365                 2.5884

                     28                     29                     30
                      A                      A                      A
 Frequencies --   1012.8866              1036.6529              1076.0833
 Red. masses --      2.2878                 1.5889                 1.8772
 Frc consts  --      1.3829                 1.0060                 1.2807
 IR Inten    --     18.2786                27.6519                57.2200

                     31                     32                     33
                      A                      A                      A
 Frequencies --   1083.2439              1150.7652              1241.6581
 Red. masses --      1.4933                 1.6344                 1.4504
 Frc consts  --      1.0324                 1.2752                 1.3175
 IR Inten    --      2.6762                12.0817                 9.9675

                     34                     35                     36
                      A                      A                      A
 Frequencies --   1353.0458              1363.2614              1379.6076
 Red. masses --      4.4929                 2.7081                 1.4650
 Frc consts  --      4.8462                 2.9653                 1.6429
 IR Inten    --    206.1553                57.8991               128.8067

                     37                     38                     39
                      A                      A                      A
 Frequencies --   1398.0460              1439.4872              1462.4756
 Red. masses --      1.6564                 1.2438                 1.4575
 Frc consts  --      1.9075                 1.5185                 1.8367
 IR Inten    --    103.7041                 1.7677                 4.1919

                     40                     41                     42
                      A                      A                      A
 Frequencies --   1496.0023              1517.5674              1529.5533
 Red. masses --      1.5280                 1.0713                 1.0693
 Frc consts  --      2.0149                 1.4536                 1.4740
 IR Inten    --     14.9955                11.0021                24.7065

                     43                     44                     45
                      A                      A                      A
 Frequencies --   1595.5410              1653.7565              1677.3555
 Red. masses --      7.8362                 5.3863                 2.7768
 Frc consts  --     11.7537                 8.6793                 4.6030
 IR Inten    --    130.4940               122.7683                29.6961

                     46                     47                     48
                      A                      A                      A
 Frequencies --   1682.2471              1732.3990              3056.0479
 Red. masses --      2.0427                 2.5588                 1.0387
 Frc consts  --      3.4060                 4.5245                 5.7154
 IR Inten    --     40.9978               377.4121                15.0321

                     49                     50                     51
                      A                      A                      A
 Frequencies --   3116.2473              3141.1867              3170.7583
 Red. masses --      1.0974                 1.1033                 1.0591
 Frc consts  --      6.2789                 6.4143                 6.2734
 IR Inten    --     18.2715                12.6237                 5.6124

                     52                     53                     54
                      A                      A                      A
 Frequencies --   3180.5502              3218.8121              3237.1644
 Red. masses --      1.0885                 1.0869                 1.0877
 Frc consts  --      6.4876                 6.6349                 6.7160
 IR Inten    --     13.9668                 1.5411                 8.0269

                     55                     56                     57
                      A                      A                      A
 Frequencies --   3253.6273              3541.1739              3658.4095
 Red. masses --      1.1168                 1.0491                 1.0976
 Frc consts  --      6.9656                 7.7512                 8.6549
 IR Inten    --      9.6723                31.4121                55.7350

 - Thermochemistry -
 -------------------
 Temperature   298.150 Kelvin.  Pressure   1.00000 Atm.
 Atom     1 has atomic number  6 and mass  12.00000

 Molecular mass:   154.07423 amu.
 Principal axes and moments of inertia in atomic units:
                           1         2         3
     Eigenvalues --  1125.829372343.612923334.29357
           X            0.99985   0.01716   0.00213
           Y           -0.01715   0.99983  -0.00629
           Z           -0.00224   0.00626   0.99998
 This molecule is an asymmetric top.
 Rotational symmetry number  1.
 Warning -- assumption of classical behavior for rotation
           may cause significant error
 Rotational temperatures (Kelvin)      0.07693     0.03696     0.02598
 Rotational constants (GHZ):           1.60303     0.77007     0.54127
 Zero-point vibrational energy     444102.0 (Joules/Mol)
                                  106.14294 (Kcal/Mol)
 Warning -- explicit consideration of  16 degrees of freedom as
           vibrations may cause significant error
 Vibrational temperatures:     42.84    72.14   116.92   229.08   264.88
          (Kelvin)            340.26   375.58   393.67   439.62   500.53
                              568.48   627.91   700.96   737.31   748.39
                              829.65   964.26   993.02  1021.54  1062.96
                             1091.74  1124.45  1216.78  1281.59  1333.19
                             1379.70  1386.80  1457.32  1491.51  1548.24
                             1558.55  1655.69  1786.47  1946.73  1961.43
                             1984.95  2011.48  2071.10  2104.18  2152.41
                             2183.44  2200.69  2295.63  2379.39  2413.34
                             2420.38  2492.54  4396.97  4483.58  4519.47
                             4562.01  4576.10  4631.15  4657.56  4681.24
                             5094.96  5263.64

 Zero-point correction=                           0.169150 (Hartree/Particle)
 Thermal correction to Energy=                    0.180416
 Thermal correction to Enthalpy=                  0.181360
 Thermal correction to Gibbs Free Energy=         0.131143
 Sum of electronic and zero-point Energies=           -532.432278
 Sum of electronic and thermal Energies=              -532.421012
 Sum of electronic and thermal Enthalpies=            -532.420067
 Sum of electronic and thermal Free Energies=         -532.470284

                     E (Thermal)             CV                S
                      KCal/Mol        Cal/Mol-Kelvin    Cal/Mol-Kelvin
 Total                  113.213             41.676            105.690
 Electronic               0.000              0.000              0.000
 Translational            0.889              2.981             41.006
 Rotational               0.889              2.981             30.554
 Vibrational            111.435             35.715             34.130
 Vibration     1          0.594              1.984              5.844
 Vibration     2          0.595              1.978              4.812
 Vibration     3          0.600              1.962              3.860
 Vibration     4          0.621              1.892              2.559
 Vibration     5          0.631              1.862              2.286
 Vibration     6          0.655              1.785              1.829
 Vibration     7          0.669              1.744              1.655
 Vibration     8          0.676              1.722              1.573
 Vibration     9          0.696              1.663              1.386
 Vibration    10          0.726              1.580              1.176
 Vibration    11          0.762              1.481              0.981
 Vibration    12          0.797              1.391              0.838
 Vibration    13          0.843              1.278              0.691
 Vibration    14          0.868              1.222              0.628
 Vibration    15          0.875              1.205              0.610
 Vibration    16          0.933              1.082              0.492

 Optimization completed.
    -- Stationary point found.
 Normal termination of Gaussian 16 at Tue Dec  8 20:22:44 2020.

 ----------------------------------------------------------------------
 # B3LYP/6-311++G(d,p) empiricaldispersion=gd3bj scf=xqc pop=npa geom=c
 heck
 ----------------------------------------------------------------------

 --------------------------------------
 CID_89305973_JID_1534_Energie_neutraal
 --------------------------------------
 Structure from the checkpoint file:  "JID_1534.chk"
 Charge =  0 Multiplicity = 1

 SCF Done:  E(RB3LYP) =  -532.764612569     A.U. after   17 cycles
 Normal termination of Gaussian 16 at Tue Dec  8 20:24:07 2020.

 ----------------------------------------------------------------------
 # B3LYP/6-311++G(d,p) empiricaldispersion=gd3bj scf=xqc pop=npa geom=c
 heck
 ----------------------------------------------------------------------

 ------------------------------------
 CID_89305973_JID_1534_Energie_kation
 ------------------------------------
 Structure from the checkpoint file:  "JID_1534.chk"
 Charge =  1 Multiplicity = 2

 SCF Done:  E(UB3LYP) =  -532.480791776     A.U. after   24 cycles
 Normal termination of Gaussian 16 at Tue Dec  8 20:30:22 2020.
 Gaussian 16:  ES64L-G16RevA.03 25-Dec-2016

 ----------------------------------------------------------------------
 # B3LYP/6-311++G(d,p) empiricaldispersion=gd3bj scf=xqc pop=npa geom=c
 heck
 ----------------------------------------------------------------------

 -----------------------------------
 CID_89305973_JID_1534_Energie_anion
 -----------------------------------
 Structure from the checkpoint file:  "JID_1534.chk"
 Charge = -1 Multiplicity = 2

                         Standard orientation:
 ---------------------------------------------------------------------
 Center     Atomic      Atomic             Coordinates (Angstroms)
 Number     Number       Type             X           Y           Z
 ---------------------------------------------------------------------
      1          6           0       -2.398114    1.648813    0.058305
      2          6           0       -2.394246    0.137974    0.052159
      3          6           0       -3.554283   -0.544372    0.161646
      4          6           0       -1.170161   -0.645356   -0.024250
      5          6           0        0.119582   -0.246128   -0.185273
      6          6           0        0.604203    1.083587   -0.517030
      7          6           0        1.718220    1.760376   -0.132074
      8          7           0        2.737755    1.376335    0.697921
      9          7           0        1.098578   -1.364056   -0.099927
     10          8           0        0.722726   -2.479094    0.259883
     11          8           0        2.275031   -1.116404   -0.399625
     12          1           0       -3.376180    2.022599    0.374251
     13          1           0       -2.194406    2.058372   -0.937790
     14          1           0       -1.635333    2.047885    0.733266
     15          1           0       -3.578083   -1.630274    0.164673
     16          1           0       -4.508247   -0.033348    0.250991
     17          1           0       -1.308077   -1.714098    0.096974
     18          1           0       -0.081845    1.659594   -1.123415
     19          1           0        1.800167    2.788809   -0.477110
     20          1           0        3.580639    1.931293    0.641324
     21          1           0        2.913772    0.377834    0.727915
 ---------------------------------------------------------------------

 SCF Done:  E(UB3LYP) =  -532.807000833     A.U. after   24 cycles

 The electronic state is 2-A.
 Alpha  occ. eigenvalues --  -18.94589 -18.94563 -14.32450 -14.18830 -10.07234
 Alpha  occ. eigenvalues --  -10.05029 -10.04336 -10.04307 -10.02384 -10.01285
 Alpha  occ. eigenvalues --  -10.00723  -1.02326  -0.85105  -0.78537  -0.68829
 Alpha  occ. eigenvalues --   -0.64798  -0.59098  -0.55972  -0.51683  -0.47058
 Alpha  occ. eigenvalues --   -0.40961  -0.40873  -0.37783  -0.36208  -0.34273
 Alpha  occ. eigenvalues --   -0.33885  -0.31172  -0.30408  -0.29772  -0.27985
 Alpha  occ. eigenvalues --   -0.26809  -0.24319  -0.23162  -0.21975  -0.20957
 Alpha  occ. eigenvalues --   -0.17206  -0.13598  -0.12627  -0.11482  -0.09709
 Alpha  occ. eigenvalues --   -0.06305   0.02231
 Alpha virt. eigenvalues --    0.08146   0.09111   0.10396   0.11306   0.11809
 Alpha virt. eigenvalues --    0.12521   0.12870   0.14415   0.14978   0.15497
 Alpha virt. eigenvalues --    0.15798   0.16341   0.18102   0.18378   0.18905

  Beta  occ. eigenvalues --  -18.94202 -18.94196 -14.31929 -14.18825 -10.07190
  Beta  occ. eigenvalues --  -10.05021 -10.04424 -10.04308 -10.02395 -10.00913
  Beta  occ. eigenvalues --  -10.00325  -1.01481  -0.84387  -0.78501  -0.68442
  Beta  occ. eigenvalues --   -0.64539  -0.58861  -0.55640  -0.50557  -0.46791
  Beta  occ. eigenvalues --   -0.40859  -0.40416  -0.37637  -0.35780  -0.33680
  Beta  occ. eigenvalues --   -0.31884  -0.30850  -0.30059  -0.29634  -0.27925
  Beta  occ. eigenvalues --   -0.26668  -0.24138  -0.22998  -0.21791  -0.20777
  Beta  occ. eigenvalues --   -0.15852  -0.12284  -0.11094  -0.10667  -0.09246
  Beta  occ. eigenvalues --   -0.05051
  Beta virt. eigenvalues --    0.08122   0.08726   0.09078   0.10388   0.11359
  Beta virt. eigenvalues --    0.12343   0.12715   0.14033   0.14550   0.15150
  Beta virt. eigenvalues --    0.15588   0.15948   0.16460   0.18147   0.18542

 Mulliken charges and spin densities:
               1          2
     1  C   -0.940291   0.009987
     2  C    0.762113  -0.127015
     3  C   -0.723132   0.351848
     4  C   -0.412031   0.443570
     5  C   -0.520147  -0.112588
     6  C    0.790228  -0.076433
     7  C   -0.560234   0.068707
     8  N   -0.309970  -0.000435
     9  N   -0.185984   0.188868
    10  O   -0.164111   0.143765
    11  O   -0.215173   0.143830
    12  H    0.113353   0.000054
    13  H    0.143284  -0.002861
    14  H    0.164258  -0.003079
    15  H    0.115181  -0.013456
    16  H    0.079769  -0.020741
    17  H    0.229155  -0.012824
    18  H    0.057481   0.012882
    19  H    0.099693   0.001408
    20  H    0.214114   0.000088
    21  H    0.262442   0.004425
 Sum of Mulliken charges =  -1.00000   1.00000

 Dipole moment (field-independent basis, Debye):
    X=             -0.2932    Y=              5.9657    Z=             -0.1013  Tot=              5.9738
 Quadrupole moment (field-independent basis, Debye-Ang):
   XX=            -91.0792   YY=            -84.7259   ZZ=            -76.0727
   XY=              7.8727   XZ=              2.5379   YZ=             -0.8905

 Summary of Natural Population Analysis:

                                       Natural Population
                Natural  -----------------------------------------------
    Atom  No    Charge         Core      Valence    Rydberg      Total
 -----------------------------------------------------------------------
      C    1   -0.29400      0.99963     2.28960    0.00477     3.29400
      C    2   -0.05255      0.99952     2.04480    0.00824     3.05255
      C    3   -0.10452      0.99955     2.09729    0.00769     3.10452
      C    4   -0.00609      0.99947     1.99707    0.00955     3.00609
      C    5    0.01798      0.99938     1.96964    0.01299     2.98202
      C    6   -0.17195      0.99953     2.16225    0.01016     3.17195
      C    7    0.02545      0.99958     1.96187    0.01310     2.97455
      N    8   -0.40726      0.99972     2.89613    0.01141     3.90726
      N    9    0.29400      0.99974     2.17681    0.02946     3.20600
      O   10   -0.19959      0.99989     3.19210    0.00759     4.19959
      O   11   -0.21950      0.99989     3.21115    0.00846     4.21950
      H   12    0.09276      0.00000     0.40607    0.00117     0.40724
      H   13    0.09490      0.00000     0.40394    0.00115     0.40510
      H   14    0.10488      0.00000     0.39399    0.00113     0.39512
      H   15    0.08497      0.00000     0.41394    0.00109     0.41503
      H   16    0.07636      0.00000     0.42252    0.00112     0.42364
      H   17    0.10932      0.00000     0.38909    0.00159     0.39068
      H   18    0.09733      0.00000     0.40107    0.00160     0.40267
      H   19    0.07733      0.00000     0.42105    0.00162     0.42267
      H   20    0.17514      0.00000     0.32329    0.00156     0.32486
      H   21    0.20504      0.00000     0.29271    0.00226     0.29496
 =======================================================================
   * Total *    0.00000     10.99590    29.86639    0.13772    41.00000

 Normal termination of Gaussian 16 at Tue Dec  8 20:33:44 2020.
