 Gaussian 16, Revision A.03,

 -----------------------------------------------------------
 # opt freq B3LYP/6-31G(d) empiricaldispersion=gd3bj scf=xqc
 -----------------------------------------------------------

 ------------------------------
 CID_14402796_JID_6623_neutraal
 ------------------------------
 Symbolic Z-matrix:
 Charge =  0 Multiplicity = 1

 SCF Done:  E(RB3LYP) =  -676.150798788     A.U. after   14 cycles
 SCF Done:  E(RB3LYP) =  -676.153859859     A.U. after   12 cycles
 SCF Done:  E(RB3LYP) =  -676.154156099     A.U. after   12 cycles
 SCF Done:  E(RB3LYP) =  -676.154767217     A.U. after   11 cycles
 SCF Done:  E(RB3LYP) =  -676.154922594     A.U. after   11 cycles
 SCF Done:  E(RB3LYP) =  -676.154970085     A.U. after   11 cycles
 SCF Done:  E(RB3LYP) =  -676.155026560     A.U. after   10 cycles
 SCF Done:  E(RB3LYP) =  -676.155011638     A.U. after   10 cycles
 SCF Done:  E(RB3LYP) =  -676.155167403     A.U. after   11 cycles
 SCF Done:  E(RB3LYP) =  -676.106067493     A.U. after   14 cycles
 SCF Done:  E(RB3LYP) =  -676.158078068     A.U. after   10 cycles
 SCF Done:  E(RB3LYP) =  -676.158079078     A.U. after   10 cycles
 SCF Done:  E(RB3LYP) =  -676.158079813     A.U. after   10 cycles
 SCF Done:  E(RB3LYP) =  -676.158079983     A.U. after    9 cycles
 SCF Done:  E(RB3LYP) =  -676.158079961     A.U. after    7 cycles
 Optimization completed on the basis of negligible forces.
    -- Stationary point found.
 Normal termination of Gaussian 16 at Fri Dec 11 00:15:06 2020.

 --------------------------------------------------------------------
 #N Geom=AllCheck Guess=TCheck SCRF=Check GenChk RB3LYP/6-31G(d) Freq
 --------------------------------------------------------------------

 Structure from the checkpoint file:  "JID_6623.chk"
 ------------------------------
 CID_14402796_JID_6623_neutraal
 ------------------------------
 Charge =  0 Multiplicity = 1

 SCF Done:  E(RB3LYP) =  -676.158079961     A.U. after    1 cycles

  Exact polarizability: 172.040  19.761 140.708  -5.073   3.087 148.073
 Approx polarizability: 235.529  34.885 194.999 -12.980   3.346 247.104

                      1                      2                      3
                      A                      A                      A
 Frequencies --      9.5948                39.0433                41.3242
 Red. masses --      3.7783                 3.0761                 3.2955
 Frc consts  --      0.0002                 0.0028                 0.0033
 IR Inten    --      0.1282                 0.3941                 0.3415

                      4                      5                      6
                      A                      A                      A
 Frequencies --     59.2102                76.9294                87.1915
 Red. masses --      3.9533                 3.2893                 3.5204
 Frc consts  --      0.0082                 0.0115                 0.0158
 IR Inten    --      1.0833                 0.3593                 0.4512

                      7                      8                      9
                      A                      A                      A
 Frequencies --    109.0335               152.0851               180.5454
 Red. masses --      3.2412                 3.3643                 1.8124
 Frc consts  --      0.0227                 0.0458                 0.0348
 IR Inten    --      0.5117                 0.0421                 3.7418

                     10                     11                     12
                      A                      A                      A
 Frequencies --    222.3649               235.0871               247.1293
 Red. masses --      1.6735                 1.3673                 1.8002
 Frc consts  --      0.0488                 0.0445                 0.0648
 IR Inten    --      1.7577                 1.8810                 0.3045

                     13                     14                     15
                      A                      A                      A
 Frequencies --    266.0462               287.8696               297.6121
 Red. masses --      1.7203                 1.6097                 2.5350
 Frc consts  --      0.0717                 0.0786                 0.1323
 IR Inten    --      0.4901                 2.5783                 0.2585

                     16                     17                     18
                      A                      A                      A
 Frequencies --    309.2814               335.3339               381.7750
 Red. masses --      2.4328                 2.1377                 3.3888
 Frc consts  --      0.1371                 0.1416                 0.2910
 IR Inten    --      0.1023                 1.2674                 4.2230

                     19                     20                     21
                      A                      A                      A
 Frequencies --    413.1866               417.9731               433.2275
 Red. masses --      2.9814                 2.8370                 2.8845
 Frc consts  --      0.2999                 0.2920                 0.3190
 IR Inten    --      0.4193                 3.5698                 0.7644

                     22                     23                     24
                      A                      A                      A
 Frequencies --    470.4546               531.3622               577.6533
 Red. masses --      2.7886                 2.6350                 3.1561
 Frc consts  --      0.3636                 0.4383                 0.6205
 IR Inten    --      5.6046                14.5565                 4.2012

                     25                     26                     27
                      A                      A                      A
 Frequencies --    606.0342               634.3377               698.3710
 Red. masses --      3.6826                 6.1461                 4.8503
 Frc consts  --      0.7969                 1.4571                 1.3938
 IR Inten    --      1.4507                 0.1817                 2.4123

                     28                     29                     30
                      A                      A                      A
 Frequencies --    718.7178               746.3040               784.3395
 Red. masses --      1.5269                 4.0643                 2.2964
 Frc consts  --      0.4647                 1.3337                 0.8324
 IR Inten    --     33.6205                 3.9854                28.3432

                     31                     32                     33
                      A                      A                      A
 Frequencies --    802.9351               822.1495               863.3367
 Red. masses --      1.5035                 1.6950                 1.2489
 Frc consts  --      0.5711                 0.6750                 0.5485
 IR Inten    --      8.1062                 1.3181                 0.1925

                     34                     35                     36
                      A                      A                      A
 Frequencies --    880.4721               900.3246               931.3075
 Red. masses --      2.5917                 2.3510                 1.4080
 Frc consts  --      1.1838                 1.1228                 0.7195
 IR Inten    --      2.8393                 6.5666                 4.6344

                     37                     38                     39
                      A                      A                      A
 Frequencies --    943.6156               958.7277               970.3529
 Red. masses --      1.2000                 2.1065                 1.3520
 Frc consts  --      0.6296                 1.1408                 0.7500
 IR Inten    --      2.2191                13.4379                 0.0644

                     40                     41                     42
                      A                      A                      A
 Frequencies --    981.7752               997.4744              1013.1118
 Red. masses --      1.4811                 1.2558                 3.3463
 Frc consts  --      0.8411                 0.7361                 2.0236
 IR Inten    --      0.3152                 0.6604                37.3126

                     43                     44                     45
                      A                      A                      A
 Frequencies --   1022.4414              1026.3923              1060.3002
 Red. masses --      4.3814                 3.0913                 2.3276
 Frc consts  --      2.6986                 1.9187                 1.5418
 IR Inten    --      2.8298                 1.4851                 4.6853

                     46                     47                     48
                      A                      A                      A
 Frequencies --   1065.2573              1104.9877              1108.9872
 Red. masses --      2.0624                 2.0811                 1.6997
 Frc consts  --      1.3789                 1.4971                 1.2316
 IR Inten    --      6.0423                14.0146                 6.1206

                     49                     50                     51
                      A                      A                      A
 Frequencies --   1127.4523              1142.6402              1151.7263
 Red. masses --      2.3907                 1.8709                 2.2782
 Frc consts  --      1.7905                 1.4392                 1.7805
 IR Inten    --      3.3423                10.2548                 4.0989

                     52                     53                     54
                      A                      A                      A
 Frequencies --   1172.6738              1195.2175              1207.6652
 Red. masses --      3.2683                 1.0998                 1.8374
 Frc consts  --      2.6481                 0.9256                 1.5788
 IR Inten    --     70.7317                 0.0237                 7.4755

                     55                     56                     57
                      A                      A                      A
 Frequencies --   1214.8559              1216.5810              1265.1975
 Red. masses --      1.8314                 1.1995                 2.4101
 Frc consts  --      1.5925                 1.0460                 2.2730
 IR Inten    --     33.5184                 1.1010                22.7414

                     58                     59                     60
                      A                      A                      A
 Frequencies --   1274.4383              1329.9515              1338.3158
 Red. masses --      1.2457                 1.2107                 1.3361
 Frc consts  --      1.1920                 1.2617                 1.4100
 IR Inten    --      9.9396                12.2845                 5.6755

                     61                     62                     63
                      A                      A                      A
 Frequencies --   1341.6048              1352.7280              1366.9504
 Red. masses --      2.8217                 1.1495                 1.8031
 Frc consts  --      2.9924                 1.2393                 1.9851
 IR Inten    --      2.6475                 0.6672                 0.7356

                     64                     65                     66
                      A                      A                      A
 Frequencies --   1388.4026              1396.4900              1410.8894
 Red. masses --      1.5969                 1.2900                 1.2432
 Frc consts  --      1.8136                 1.4823                 1.4581
 IR Inten    --      3.0840                 9.9684                 6.2811

                     67                     68                     69
                      A                      A                      A
 Frequencies --   1425.3466              1431.0724              1444.5928
 Red. masses --      1.2546                 1.2721                 1.2792
 Frc consts  --      1.5018                 1.5350                 1.5728
 IR Inten    --      0.3483                25.7716                 5.0699

                     70                     71                     72
                      A                      A                      A
 Frequencies --   1446.0508              1491.1917              1499.1263
 Red. masses --      1.2774                 2.2060                 1.0953
 Frc consts  --      1.5737                 2.8902                 1.4503
 IR Inten    --     15.1283                 4.1659                14.2289

                     73                     74                     75
                      A                      A                      A
 Frequencies --   1512.0703              1515.1077              1517.5944
 Red. masses --      1.0606                 1.0453                 1.0499
 Frc consts  --      1.4288                 1.4137                 1.4246
 IR Inten    --      1.8968                 2.1023                 3.0669

                     76                     77                     78
                      A                      A                      A
 Frequencies --   1523.1011              1530.7672              1534.1065
 Red. masses --      1.0580                 1.0514                 1.0699
 Frc consts  --      1.4462                 1.4516                 1.4836
 IR Inten    --      5.1365                 4.7668                 3.7973

                     79                     80                     81
                      A                      A                      A
 Frequencies --   1540.6307              1543.4972              1550.9873
 Red. masses --      1.1000                 2.0212                 1.0716
 Frc consts  --      1.5384                 2.8371                 1.5188
 IR Inten    --      8.2543                 2.1639                 0.3207

                     82                     83                     84
                      A                      A                      A
 Frequencies --   1638.3642              1663.6046              1731.6999
 Red. masses --      5.3830                 5.5266                10.8707
 Frc consts  --      8.5133                 9.0118                19.2068
 IR Inten    --      2.8630                 0.1874                92.2645

                     85                     86                     87
                      A                      A                      A
 Frequencies --   3016.5279              3018.6679              3031.5085
 Red. masses --      1.0813                 1.0585                 1.0645
 Frc consts  --      5.7972                 5.6829                 5.7638
 IR Inten    --     18.4008                20.1231                71.0437

                     88                     89                     90
                      A                      A                      A
 Frequencies --   3039.0913              3049.1922              3053.4142
 Red. masses --      1.0656                 1.0351                 1.0389
 Frc consts  --      5.7986                 5.6704                 5.7067
 IR Inten    --     17.2641                25.5760                15.8920

                     91                     92                     93
                      A                      A                      A
 Frequencies --   3060.3145              3065.9651              3090.2087
 Red. masses --      1.0379                 1.1015                 1.0984
 Frc consts  --      5.7271                 6.1004                 6.1802
 IR Inten    --     34.0312                38.4848                38.0624

                     94                     95                     96
                      A                      A                      A
 Frequencies --   3099.7296              3116.5866              3117.7355
 Red. masses --      1.0994                 1.1024                 1.1009
 Frc consts  --      6.2236                 6.3088                 6.3050
 IR Inten    --     48.2480                17.9895                29.0519

                     97                     98                     99
                      A                      A                      A
 Frequencies --   3127.9501              3129.3302              3142.8916
 Red. masses --      1.1001                 1.1018                 1.1021
 Frc consts  --      6.3414                 6.3573                 6.4141
 IR Inten    --     32.7081                40.2809                50.3857

                    100                    101                    102
                      A                      A                      A
 Frequencies --   3146.3770              3182.8129              3188.0455
 Red. masses --      1.1016                 1.0851                 1.0871
 Frc consts  --      6.4252                 6.4763                 6.5099
 IR Inten    --      3.3191                 3.9319                 0.1976

                    103                    104                    105
                      A                      A                      A
 Frequencies --   3196.6477              3204.1112              3213.5513
 Red. masses --      1.0908                 1.0944                 1.0982
 Frc consts  --      6.5674                 6.6198                 6.6817
 IR Inten    --     12.3138                32.1434                19.1564

 - Thermochemistry -
 -------------------
 Temperature   298.150 Kelvin.  Pressure   1.00000 Atm.
 Atom     1 has atomic number  6 and mass  12.00000

 Molecular mass:   219.16231 amu.
 Principal axes and moments of inertia in atomic units:
                           1         2         3
     Eigenvalues --  2851.398614685.186495950.29899
           X            0.99992   0.00855   0.00959
           Y           -0.00862   0.99994   0.00714
           Z           -0.00953  -0.00722   0.99993
 This molecule is an asymmetric top.
 Rotational symmetry number  1.
 Warning -- assumption of classical behavior for rotation
           may cause significant error
 Rotational temperatures (Kelvin)      0.03038     0.01849     0.01456
 Rotational constants (GHZ):           0.63293     0.38520     0.30330
 Zero-point vibrational energy     858600.1 (Joules/Mol)
                                  205.21034 (Kcal/Mol)
 Warning -- explicit consideration of  25 degrees of freedom as
           vibrations may cause significant error
 Vibrational temperatures:     13.80    56.17    59.46    85.19   110.68
          (Kelvin)            125.45   156.87   218.82   259.76   319.93
                              338.24   355.56   382.78   414.18   428.20
                              444.99   482.47   549.29   594.48   601.37
                              623.32   676.88   764.51   831.11   871.95
                              912.67  1004.80  1034.07  1073.76  1128.49
                             1155.24  1182.89  1242.15  1266.80  1295.37
                             1339.94  1357.65  1379.40  1396.12  1412.56
                             1435.14  1457.64  1471.07  1476.75  1525.54
                             1532.67  1589.83  1595.59  1622.15  1644.00
                             1657.08  1687.22  1719.65  1737.56  1747.91
                             1750.39  1820.34  1833.63  1913.50  1925.54
                             1930.27  1946.27  1966.74  1997.60  2009.24
                             2029.96  2050.76  2058.99  2078.45  2080.54
                             2145.49  2156.91  2175.53  2179.90  2183.48
                             2191.40  2202.43  2207.24  2216.62  2220.75
                             2231.52  2357.24  2393.56  2491.53  4340.11
                             4343.19  4361.66  4372.57  4387.11  4393.18
                             4403.11  4411.24  4446.12  4459.82  4484.07
                             4485.73  4500.42  4502.41  4521.92  4526.93
                             4579.36  4586.89  4599.26  4610.00  4623.58

 Zero-point correction=                           0.327023 (Hartree/Particle)
 Thermal correction to Energy=                    0.344051
 Thermal correction to Enthalpy=                  0.344995
 Thermal correction to Gibbs Free Energy=         0.280039
 Sum of electronic and zero-point Energies=           -675.831056
 Sum of electronic and thermal Energies=              -675.814029
 Sum of electronic and thermal Enthalpies=            -675.813085
 Sum of electronic and thermal Free Energies=         -675.878041

                     E (Thermal)             CV                S
                      KCal/Mol        Cal/Mol-Kelvin    Cal/Mol-Kelvin
 Total                  215.895             63.525            136.710
 Electronic               0.000              0.000              0.000
 Translational            0.889              2.981             42.057
 Rotational               0.889              2.981             32.741
 Vibrational            214.118             57.563             61.912
 Vibration     1          0.593              1.987              8.093
 Vibration     2          0.594              1.981              5.307
 Vibration     3          0.594              1.981              5.195
 Vibration     4          0.597              1.974              4.483
 Vibration     5          0.599              1.965              3.968
 Vibration     6          0.601              1.958              3.722
 Vibration     7          0.606              1.942              3.286
 Vibration     8          0.619              1.900              2.646
 Vibration     9          0.629              1.866              2.323
 Vibration    10          0.648              1.807              1.940
 Vibration    11          0.655              1.787              1.840
 Vibration    12          0.661              1.768              1.751
 Vibration    13          0.672              1.735              1.622
 Vibration    14          0.685              1.696              1.486
 Vibration    15          0.691              1.678              1.430
 Vibration    16          0.699              1.656              1.366
 Vibration    17          0.716              1.605              1.234
 Vibration    18          0.751              1.509              1.032
 Vibration    19          0.777              1.442              0.915
 Vibration    20          0.781              1.431              0.899
 Vibration    21          0.794              1.398              0.848
 Vibration    22          0.827              1.316              0.736
 Vibration    23          0.886              1.181              0.584
 Vibration    24          0.934              1.080              0.490
 Vibration    25          0.965              1.019              0.439

 Optimization completed on the basis of negligible forces.
    -- Stationary point found.
 Normal termination of Gaussian 16 at Fri Dec 11 00:28:48 2020.

 ----------------------------------------------------------------------
 # B3LYP/6-311++G(d,p) empiricaldispersion=gd3bj scf=xqc pop=npa geom=c
 heck
 ----------------------------------------------------------------------

 --------------------------------------
 CID_14402796_JID_6623_Energie_neutraal
 --------------------------------------
 Structure from the checkpoint file:  "JID_6623.chk"
 Charge =  0 Multiplicity = 1

 SCF Done:  E(RB3LYP) =  -676.341902113     A.U. after   14 cycles
 Normal termination of Gaussian 16 at Fri Dec 11 00:34:22 2020.

 ----------------------------------------------------------------------
 # B3LYP/6-311++G(d,p) empiricaldispersion=gd3bj scf=xqc pop=npa geom=c
 heck
 ----------------------------------------------------------------------

 ------------------------------------
 CID_14402796_JID_6623_Energie_kation
 ------------------------------------
 Structure from the checkpoint file:  "JID_6623.chk"
 Charge =  1 Multiplicity = 2

 SCF Done:  E(UB3LYP) =  -676.035506371     A.U. after   30 cycles
 Normal termination of Gaussian 16 at Fri Dec 11 00:50:40 2020.
 Gaussian 16:  ES64L-G16RevA.03 25-Dec-2016

 ----------------------------------------------------------------------
 # B3LYP/6-311++G(d,p) empiricaldispersion=gd3bj scf=xqc pop=npa geom=c
 heck
 ----------------------------------------------------------------------

 -----------------------------------
 CID_14402796_JID_6623_Energie_anion
 -----------------------------------
 Structure from the checkpoint file:  "JID_6623.chk"
 Charge = -1 Multiplicity = 2

                         Standard orientation:
 ---------------------------------------------------------------------
 Center     Atomic      Atomic             Coordinates (Angstroms)
 Number     Number       Type             X           Y           Z
 ---------------------------------------------------------------------
      1          6           0        3.539733   -0.099457    1.205327
      2          6           0        2.539937   -1.248445    1.118890
      3          8           0        2.648311   -2.031757   -0.064915
      4          6           0        2.449242   -1.363691   -1.300016
      5          6           0        1.037444   -0.805276   -1.513043
      6          7           0        0.891556    0.523096   -0.931858
      7          6           0       -0.144099    0.855870   -0.263593
      8          6           0       -1.332986   -0.022220   -0.006830
      9          6           0       -2.124182   -0.491311   -1.064016
     10          6           0       -3.236369   -1.294118   -0.815722
     11          6           0       -3.566617   -1.647112    0.493773
     12          6           0       -2.783711   -1.187124    1.553339
     13          6           0       -1.680223   -0.371653    1.304826
     14          6           0       -0.235075    2.262124    0.317150
     15          6           0        1.095862    3.012274    0.281850
     16          6           0       -1.341461    3.046959   -0.415235
     17          1           0        4.560988   -0.465694    1.053478
     18          1           0        3.484205    0.366963    2.196204
     19          1           0        3.325816    0.671236    0.459799
     20          1           0        2.717542   -1.962425    1.930166
     21          1           0        1.516405   -0.866960    1.237380
     22          1           0        3.178219   -0.554650   -1.448699
     23          1           0        2.640399   -2.133566   -2.054701
     24          1           0        0.891241   -0.698612   -2.597601
     25          1           0        0.305085   -1.540336   -1.152465
     26          1           0       -1.867081   -0.216201   -2.082892
     27          1           0       -3.844200   -1.645318   -1.644799
     28          1           0       -4.430202   -2.276888    0.687286
     29          1           0       -3.033459   -1.460824    2.574534
     30          1           0       -1.074329   -0.014818    2.133241
     31          1           0       -0.554639    2.154799    1.364640
     32          1           0        1.456092    3.112979   -0.745783
     33          1           0        0.975148    4.013183    0.711539
     34          1           0        1.866165    2.481607    0.848414
     35          1           0       -2.302691    2.525346   -0.371980
     36          1           0       -1.468870    4.037724    0.034117
     37          1           0       -1.074184    3.183913   -1.469755
 ---------------------------------------------------------------------

 SCF Done:  E(UB3LYP) =  -676.331028003     A.U. after   33 cycles
 SCF Done:  E(UB3LYP) =  -676.331028003     a.u. after    1 cycles

 The electronic state is 2-A.
 Alpha  occ. eigenvalues --  -19.01797 -14.18150 -10.11180 -10.10850 -10.09704
 Alpha  occ. eigenvalues --  -10.08146 -10.07450 -10.07157 -10.06990 -10.06940
 Alpha  occ. eigenvalues --  -10.06847 -10.06831 -10.06563 -10.06228 -10.05879
 Alpha  occ. eigenvalues --  -10.05344  -0.92854  -0.81137  -0.74932  -0.69728
 Alpha  occ. eigenvalues --   -0.66357  -0.64894  -0.64246  -0.62310  -0.58271
 Alpha  occ. eigenvalues --   -0.55673  -0.52280  -0.50341  -0.49010  -0.47128
 Alpha  occ. eigenvalues --   -0.43214  -0.40799  -0.39644  -0.38372  -0.36909
 Alpha  occ. eigenvalues --   -0.35437  -0.35317  -0.34201  -0.33575  -0.32670
 Alpha  occ. eigenvalues --   -0.32404  -0.31808  -0.30251  -0.29351  -0.28692
 Alpha  occ. eigenvalues --   -0.28372  -0.27345  -0.26404  -0.25958  -0.25422
 Alpha  occ. eigenvalues --   -0.24879  -0.24020  -0.23704  -0.22941  -0.21065
 Alpha  occ. eigenvalues --   -0.18435  -0.15542  -0.15247  -0.14186  -0.13484
 Alpha  occ. eigenvalues --    0.04460
 Alpha virt. eigenvalues --    0.06688   0.06884   0.07205   0.07393   0.08472
 Alpha virt. eigenvalues --    0.08763   0.08842   0.09257   0.09621   0.10159
 Alpha virt. eigenvalues --    0.10643   0.11141   0.11515   0.11925   0.12259

  Beta  occ. eigenvalues --  -19.01797 -14.18001 -10.11172 -10.10838 -10.09609
  Beta  occ. eigenvalues --  -10.08148 -10.07454 -10.07097 -10.06988 -10.06924
  Beta  occ. eigenvalues --  -10.06801 -10.06795 -10.06459 -10.06217 -10.05846
  Beta  occ. eigenvalues --  -10.05335  -0.92850  -0.80879  -0.74800  -0.69648
  Beta  occ. eigenvalues --   -0.66331  -0.64731  -0.64137  -0.62255  -0.58227
  Beta  occ. eigenvalues --   -0.55580  -0.52145  -0.50227  -0.48907  -0.47092
  Beta  occ. eigenvalues --   -0.43106  -0.40720  -0.39597  -0.38303  -0.36809
  Beta  occ. eigenvalues --   -0.35325  -0.35233  -0.34142  -0.33525  -0.32592
  Beta  occ. eigenvalues --   -0.32357  -0.31761  -0.30184  -0.29299  -0.28644
  Beta  occ. eigenvalues --   -0.28342  -0.27288  -0.26337  -0.25750  -0.25344
  Beta  occ. eigenvalues --   -0.24771  -0.23971  -0.23661  -0.22882  -0.20945
  Beta  occ. eigenvalues --   -0.18099  -0.15322  -0.14997  -0.13776  -0.13305
  Beta virt. eigenvalues --    0.06541   0.07279   0.07573   0.07679   0.08082
  Beta virt. eigenvalues --    0.08824   0.08929   0.09144   0.09424   0.09863
  Beta virt. eigenvalues --    0.10194   0.10989   0.11373   0.11742   0.12324

 Mulliken charges and spin densities:
               1          2
     1  C   -0.034879  -0.368506
     2  C   -0.459724   0.204871
     3  O   -0.061588  -0.015951
     4  C   -0.347146  -0.214700
     5  C    0.068000  -0.304945
     6  N    0.060924   0.144675
     7  C    1.427464  -2.099126
     8  C    0.532047  -0.036200
     9  C   -0.429537   0.862441
    10  C   -0.443161   0.001564
    11  C    0.944119  -1.141192
    12  C    0.288494  -0.755867
    13  C   -1.395198   1.187464
    14  C   -0.275840   0.835634
    15  C   -0.239815  -0.453234
    16  C   -0.064089  -0.632924
    17  H    0.083902   0.057272
    18  H   -0.008443   0.129555
    19  H    0.154678  -0.005551
    20  H   -0.149224   0.321597
    21  H    0.394325  -0.292686
    22  H    0.108573   0.027608
    23  H   -0.067221   0.221007
    24  H   -0.251580   0.409865
    25  H    0.308008  -0.110320
    26  H   -0.139924   0.344661
    27  H   -0.356908   0.528125
    28  H   -0.134321   0.277267
    29  H   -0.534538   0.708535
    30  H   -0.205489   0.367377
    31  H   -0.024874   0.193236
    32  H    0.195443  -0.033597
    33  H   -0.022151   0.158681
    34  H    0.033062   0.092825
    35  H    0.197014  -0.060566
    36  H   -0.127603   0.269288
    37  H   -0.022800   0.181817
 Sum of Mulliken charges =  -1.00000   1.00000

 Dipole moment (field-independent basis, Debye):
    X=              2.9767    Y=              1.7839    Z=             -0.2646  Tot=              3.4804
 Quadrupole moment (field-independent basis, Debye-Ang):
   XX=           -155.9429   YY=           -145.5617   ZZ=           -138.8610
   XY=             -0.3922   XZ=              3.1644   YZ=             -0.5390

 Summary of Natural Population Analysis:

                                       Natural Population
                Natural  -----------------------------------------------
    Atom  No    Charge         Core      Valence    Rydberg      Total
 -----------------------------------------------------------------------
      C    1   -0.30500      0.99966     2.30140    0.00394     3.30500
      C    2   -0.01191      0.99959     1.99974    0.01258     3.01191
      O    3   -0.30327      0.99989     3.29417    0.00922     4.30327
      C    4   -0.01065      0.99957     1.99727    0.01381     3.01065
      C    5   -0.12298      0.99959     2.11170    0.01169     3.12298
      N    6   -0.23032      0.99963     2.71905    0.01164     3.73032
      C    7    0.16688      0.99952     1.81671    0.01689     2.83312
      C    8   -0.04158      0.99947     2.03058    0.01153     3.04158
      C    9   -0.09170      0.99951     2.08228    0.00990     3.09170
      C   10   -0.10152      0.99956     2.09193    0.01003     3.10152
      C   11   -0.08670      0.99956     2.07750    0.00964     3.08670
      C   12   -0.10348      0.99956     2.09339    0.01052     3.10348
      C   13   -0.08895      0.99951     2.07958    0.00986     3.08895
      C   14   -0.13176      0.99958     2.12198    0.01020     3.13176
      C   15   -0.28131      0.99965     2.27635    0.00531     3.28131
      C   16   -0.27832      0.99964     2.27418    0.00450     3.27832
      H   17    0.09485      0.00000     0.40409    0.00106     0.40515
      H   18    0.09929      0.00000     0.39964    0.00107     0.40071
      H   19    0.10637      0.00000     0.39238    0.00125     0.39363
      H   20    0.08469      0.00000     0.41401    0.00129     0.41531
      H   21    0.08331      0.00000     0.41455    0.00214     0.41669
      H   22    0.07975      0.00000     0.41890    0.00135     0.42025
      H   23    0.08859      0.00000     0.41026    0.00115     0.41141
      H   24    0.10048      0.00000     0.39739    0.00213     0.39952
      H   25    0.09381      0.00000     0.40418    0.00201     0.40619
      H   26    0.10203      0.00000     0.39624    0.00172     0.39797
      H   27    0.09919      0.00000     0.39990    0.00091     0.40081
      H   28    0.09795      0.00000     0.40110    0.00095     0.40205
      H   29    0.10049      0.00000     0.39822    0.00130     0.39951
      H   30    0.09891      0.00000     0.39903    0.00206     0.40109
      H   31    0.09834      0.00000     0.39958    0.00208     0.40166
      H   32    0.10307      0.00000     0.39594    0.00100     0.39693
      H   33    0.09317      0.00000     0.40601    0.00082     0.40683
      H   34    0.10110      0.00000     0.39792    0.00098     0.39890
      H   35    0.10398      0.00000     0.39511    0.00091     0.39602
      H   36    0.09678      0.00000     0.40216    0.00106     0.40322
      H   37    0.09643      0.00000     0.40257    0.00100     0.40357
 =======================================================================
   * Total *    0.00000     15.99350    43.81700    0.18950    60.00000

 Normal termination of Gaussian 16 at Fri Dec 11 01:09:11 2020.
