 Gaussian 16, Revision A.03,

 -----------------------------------------------------------
 # opt freq B3LYP/6-31G(d) empiricaldispersion=gd3bj scf=xqc
 -----------------------------------------------------------

 ------------------------------
 CID_81346727_JID_6481_neutraal
 ------------------------------
 Symbolic Z-matrix:
 Charge =  0 Multiplicity = 1

 SCF Done:  E(RB3LYP) =  -762.860556735     A.U. after   15 cycles
 SCF Done:  E(RB3LYP) =  -762.865910429     A.U. after   13 cycles
 SCF Done:  E(RB3LYP) =  -762.865891456     A.U. after   13 cycles
 SCF Done:  E(RB3LYP) =  -762.867478268     A.U. after   14 cycles
 SCF Done:  E(RB3LYP) =  -762.867960271     A.U. after   13 cycles
 SCF Done:  E(RB3LYP) =  -762.868149922     A.U. after   13 cycles
 SCF Done:  E(RB3LYP) =  -762.868262863     A.U. after   12 cycles
 SCF Done:  E(RB3LYP) =  -762.868287563     A.U. after   10 cycles
 SCF Done:  E(RB3LYP) =  -762.868290423     A.U. after    8 cycles
 SCF Done:  E(RB3LYP) =  -762.868291136     A.U. after    8 cycles
 SCF Done:  E(RB3LYP) =  -762.868291285     A.U. after    8 cycles
 SCF Done:  E(RB3LYP) =  -762.868291335     A.U. after    7 cycles
 Optimization completed.
    -- Stationary point found.
 Normal termination of Gaussian 16 at Thu Dec 10 23:10:26 2020.

 --------------------------------------------------------------------
 #N Geom=AllCheck Guess=TCheck SCRF=Check GenChk RB3LYP/6-31G(d) Freq
 --------------------------------------------------------------------

 Structure from the checkpoint file:  "JID_6481.chk"
 ------------------------------
 CID_81346727_JID_6481_neutraal
 ------------------------------
 Charge =  0 Multiplicity = 1

 SCF Done:  E(RB3LYP) =  -762.868291335     A.U. after    1 cycles

  Exact polarizability: 170.297  -6.510 148.803  -5.721   1.326  82.648
 Approx polarizability: 244.120 -17.248 232.296 -16.372   7.556 136.187

                      1                      2                      3
                      A                      A                      A
 Frequencies --     38.6387                44.6563                69.0206
 Red. masses --      9.2778                 4.7870                 2.4647
 Frc consts  --      0.0082                 0.0056                 0.0069
 IR Inten    --      1.6530                 4.4499                 0.2515

                      4                      5                      6
                      A                      A                      A
 Frequencies --    106.5542               121.5526               145.4141
 Red. masses --      2.4778                 4.5421                 3.8136
 Frc consts  --      0.0166                 0.0395                 0.0475
 IR Inten    --      0.3314                 0.8885                 0.2735

                      7                      8                      9
                      A                      A                      A
 Frequencies --    164.2720               198.3192               220.6653
 Red. masses --      3.9788                 4.2219                 1.5949
 Frc consts  --      0.0633                 0.0978                 0.0458
 IR Inten    --      1.3745                 3.5107                 0.4943

                     10                     11                     12
                      A                      A                      A
 Frequencies --    255.4033               283.4739               295.7969
 Red. masses --      1.8322                 4.3832                 4.4699
 Frc consts  --      0.0704                 0.2075                 0.2304
 IR Inten    --      0.8305                 1.6566                 0.6414

                     13                     14                     15
                      A                      A                      A
 Frequencies --    308.1327               374.5951               384.3226
 Red. masses --      3.8077                 4.5124                 3.8259
 Frc consts  --      0.2130                 0.3731                 0.3329
 IR Inten    --      1.4085                 3.2081                 3.0683

                     16                     17                     18
                      A                      A                      A
 Frequencies --    414.3451               484.2501               500.8407
 Red. masses --      3.3348                 3.3219                 3.1599
 Frc consts  --      0.3373                 0.4590                 0.4670
 IR Inten    --      0.2684                 1.1099                 0.3243

                     19                     20                     21
                      A                      A                      A
 Frequencies --    507.6394               525.9890               585.0927
 Red. masses --      4.3035                 3.2745                 4.2224
 Frc consts  --      0.6534                 0.5338                 0.8516
 IR Inten    --      2.8689                 0.3188                 3.1669

                     22                     23                     24
                      A                      A                      A
 Frequencies --    612.6459               662.9571               681.7684
 Red. masses --      2.7199                 1.5079                 2.7637
 Frc consts  --      0.6015                 0.3905                 0.7568
 IR Inten    --     26.6890               114.0048                77.4589

                     25                     26                     27
                      A                      A                      A
 Frequencies --    691.3684               724.1280               774.8765
 Red. masses --      2.7471                 2.1803                 1.3792
 Frc consts  --      0.7736                 0.6736                 0.4879
 IR Inten    --     28.5815                 3.9704                 2.2648

                     28                     29                     30
                      A                      A                      A
 Frequencies --    785.6732               803.2170               818.5631
 Red. masses --      7.9944                 5.1221                 4.3487
 Frc consts  --      2.9075                 1.9470                 1.7168
 IR Inten    --     50.7638                 6.5482                13.9869

                     31                     32                     33
                      A                      A                      A
 Frequencies --    839.5606               884.8275               919.8388
 Red. masses --      1.9694                 2.9635                 1.6329
 Frc consts  --      0.8179                 1.3670                 0.8140
 IR Inten    --      1.5955                 3.4391                 0.3981

                     34                     35                     36
                      A                      A                      A
 Frequencies --    941.0734               959.8823               976.4310
 Red. masses --      2.6290                 3.3575                 2.4402
 Frc consts  --      1.3718                 1.8226                 1.3707
 IR Inten    --     15.6458                 7.7055                 1.0847

                     37                     38                     39
                      A                      A                      A
 Frequencies --   1010.2815              1039.1416              1075.5541
 Red. masses --      1.9205                 2.1766                 2.1337
 Frc consts  --      1.1549                 1.3848                 1.4543
 IR Inten    --      0.1659                 3.1049                 1.5362

                     40                     41                     42
                      A                      A                      A
 Frequencies --   1103.2082              1128.0986              1146.1380
 Red. masses --      2.5536                 5.0009                 1.8879
 Frc consts  --      1.8311                 3.7497                 1.4612
 IR Inten    --     14.8993                13.3370                 1.0800

                     43                     44                     45
                      A                      A                      A
 Frequencies --   1166.5292              1187.6010              1194.2687
 Red. masses --      1.9016                 2.4324                 1.5258
 Frc consts  --      1.5246                 2.0213                 1.2822
 IR Inten    --     17.2370               232.0438                33.1317

                     46                     47                     48
                      A                      A                      A
 Frequencies --   1234.7314              1254.9673              1274.8612
 Red. masses --      2.4153                 1.4254                 1.4329
 Frc consts  --      2.1695                 1.3227                 1.3721
 IR Inten    --     68.7032                10.3827                13.2765

                     49                     50                     51
                      A                      A                      A
 Frequencies --   1298.2132              1313.3228              1320.8742
 Red. masses --      1.6705                 1.3904                 1.2746
 Frc consts  --      1.6588                 1.4130                 1.3103
 IR Inten    --      0.1544                10.8905                 2.1909

                     52                     53                     54
                      A                      A                      A
 Frequencies --   1347.5446              1366.8482              1391.9574
 Red. masses --      1.6099                 1.3484                 1.4585
 Frc consts  --      1.7224                 1.4842                 1.6650
 IR Inten    --     26.1733                 3.8243                 1.4513

                     55                     56                     57
                      A                      A                      A
 Frequencies --   1401.1527              1413.3453              1428.0095
 Red. masses --      1.6404                 1.5921                 1.5949
 Frc consts  --      1.8975                 1.8738                 1.9162
 IR Inten    --     12.9652                 4.7674                 6.1763

                     58                     59                     60
                      A                      A                      A
 Frequencies --   1444.6768              1451.4790              1469.5943
 Red. masses --      1.2525                 4.3175                 4.4736
 Frc consts  --      1.5402                 5.3592                 5.6925
 IR Inten    --      3.1291                22.3087               111.0568

                     61                     62                     63
                      A                      A                      A
 Frequencies --   1499.3081              1502.1321              1518.6181
 Red. masses --      1.1232                 1.0871                 1.0692
 Frc consts  --      1.4876                 1.4452                 1.4529
 IR Inten    --      3.4278                 2.1681                 0.8457

                     64                     65                     66
                      A                      A                      A
 Frequencies --   1526.0992              1531.7875              1539.0421
 Red. masses --      1.0942                 1.0490                 1.0607
 Frc consts  --      1.5014                 1.4502                 1.4803
 IR Inten    --      2.4088                 5.3008                 5.7360

                     67                     68                     69
                      A                      A                      A
 Frequencies --   1591.1190              1674.9167              1819.6073
 Red. masses --      4.9892                 8.1655                 9.7660
 Frc consts  --      7.4420                13.4964                19.0512
 IR Inten    --    231.6094                77.5438               461.5489

                     70                     71                     72
                      A                      A                      A
 Frequencies --   1822.9443              2997.0740              3026.7370
 Red. masses --     10.1692                 1.0819                 1.0644
 Frc consts  --     19.9106                 5.7257                 5.7450
 IR Inten    --    533.8136                12.0570                22.1653

                     73                     74                     75
                      A                      A                      A
 Frequencies --   3029.1570              3043.1629              3048.2219
 Red. masses --      1.0612                 1.0677                 1.0376
 Frc consts  --      5.7372                 5.8256                 5.6804
 IR Inten    --     12.2606                13.7864                25.5300

                     76                     77                     78
                      A                      A                      A
 Frequencies --   3052.0304              3063.2464              3068.3774
 Red. masses --      1.0671                 1.1014                 1.0951
 Frc consts  --      5.8566                 6.0891                 6.0746
 IR Inten    --     31.9264                13.2334                30.0323

                     79                     80                     81
                      A                      A                      A
 Frequencies --   3095.6509              3104.8286              3113.7030
 Red. masses --      1.0964                 1.0989                 1.1008
 Frc consts  --      6.1907                 6.2415                 6.2883
 IR Inten    --     15.1564                44.1093                45.1893

                     82                     83                     84
                      A                      A                      A
 Frequencies --   3120.4928              3582.5784              3683.8794
 Red. masses --      1.1012                 1.0775                 1.0639
 Frc consts  --      6.3178                 8.1482                 8.5069
 IR Inten    --     39.9966                45.0479                67.0403

 - Thermochemistry -
 -------------------
 Temperature   298.150 Kelvin.  Pressure   1.00000 Atm.
 Atom     1 has atomic number  6 and mass  12.00000

 Molecular mass:   222.10044 amu.
 Principal axes and moments of inertia in atomic units:
                           1         2         3
     Eigenvalues --  2320.378374928.764147005.48978
           X            0.99997   0.00708   0.00291
           Y           -0.00706   0.99996  -0.00544
           Z           -0.00295   0.00542   0.99998
 This molecule is an asymmetric top.
 Rotational symmetry number  1.
 Warning -- assumption of classical behavior for rotation
           may cause significant error
 Rotational temperatures (Kelvin)      0.03733     0.01757     0.01236
 Rotational constants (GHZ):           0.77778     0.36617     0.25762
 Zero-point vibrational energy     649709.2 (Joules/Mol)
                                  155.28423 (Kcal/Mol)
 Warning -- explicit consideration of  22 degrees of freedom as
           vibrations may cause significant error
 Vibrational temperatures:     55.59    64.25    99.31   153.31   174.89
          (Kelvin)            209.22   236.35   285.34   317.49   367.47
                              407.86   425.59   443.33   538.96   552.95
                              596.15   696.73   720.60   730.38   756.78
                              841.82   881.46   953.85   980.91   994.72
                             1041.86  1114.87  1130.41  1155.65  1177.73
                             1207.94  1273.07  1323.44  1353.99  1381.06
                             1404.87  1453.57  1495.09  1547.48  1587.27
                             1623.08  1649.04  1678.38  1708.69  1718.29
                             1776.50  1805.62  1834.24  1867.84  1889.58
                             1900.44  1938.82  1966.59  2002.72  2015.95
                             2033.49  2054.59  2078.57  2088.35  2114.42
                             2157.17  2161.23  2184.95  2195.72  2203.90
                             2214.34  2289.27  2409.83  2618.01  2622.81
                             4312.12  4354.80  4358.28  4378.43  4385.71
                             4391.19  4407.33  4414.71  4453.95  4467.16
                             4479.92  4489.69  5154.53  5300.28

 Zero-point correction=                           0.247461 (Hartree/Particle)
 Thermal correction to Energy=                    0.261970
 Thermal correction to Enthalpy=                  0.262914
 Thermal correction to Gibbs Free Energy=         0.205181
 Sum of electronic and zero-point Energies=           -762.620830
 Sum of electronic and thermal Energies=              -762.606321
 Sum of electronic and thermal Enthalpies=            -762.605377
 Sum of electronic and thermal Free Energies=         -762.663110

                     E (Thermal)             CV                S
                      KCal/Mol        Cal/Mol-Kelvin    Cal/Mol-Kelvin
 Total                  164.389             55.247            121.509
 Electronic               0.000              0.000              0.000
 Translational            0.889              2.981             42.097
 Rotational               0.889              2.981             32.749
 Vibrational            162.611             49.285             46.664
 Vibration     1          0.594              1.981              5.328
 Vibration     2          0.595              1.980              5.041
 Vibration     3          0.598              1.969              4.181
 Vibration     4          0.605              1.944              3.331
 Vibration     5          0.609              1.931              3.076
 Vibration     6          0.617              1.908              2.731
 Vibration     7          0.623              1.886              2.500
 Vibration     8          0.637              1.842              2.149
 Vibration     9          0.647              1.810              1.954
 Vibration    10          0.666              1.754              1.693
 Vibration    11          0.682              1.704              1.513
 Vibration    12          0.690              1.682              1.441
 Vibration    13          0.698              1.658              1.372
 Vibration    14          0.746              1.524              1.061
 Vibration    15          0.753              1.504              1.022
 Vibration    16          0.778              1.439              0.911
 Vibration    17          0.840              1.285              0.699
 Vibration    18          0.856              1.248              0.656
 Vibration    19          0.863              1.233              0.639
 Vibration    20          0.881              1.192              0.596
 Vibration    21          0.942              1.064              0.476
 Vibration    22          0.972              1.005              0.428

 Optimization completed.
    -- Stationary point found.
 Normal termination of Gaussian 16 at Thu Dec 10 23:19:52 2020.

 ----------------------------------------------------------------------
 # B3LYP/6-311++G(d,p) empiricaldispersion=gd3bj scf=xqc pop=npa geom=c
 heck
 ----------------------------------------------------------------------

 --------------------------------------
 CID_81346727_JID_6481_Energie_neutraal
 --------------------------------------
 Structure from the checkpoint file:  "JID_6481.chk"
 Charge =  0 Multiplicity = 1

 SCF Done:  E(RB3LYP) =  -763.089937713     A.U. after   16 cycles
 Normal termination of Gaussian 16 at Thu Dec 10 23:23:54 2020.

 ----------------------------------------------------------------------
 # B3LYP/6-311++G(d,p) empiricaldispersion=gd3bj scf=xqc pop=npa geom=c
 heck
 ----------------------------------------------------------------------

 ------------------------------------
 CID_81346727_JID_6481_Energie_kation
 ------------------------------------
 Structure from the checkpoint file:  "JID_6481.chk"
 Charge =  1 Multiplicity = 2

 SCF Done:  E(UB3LYP) =  -762.778111179     A.U. after   25 cycles
 Normal termination of Gaussian 16 at Thu Dec 10 23:32:13 2020.
 Gaussian 16:  ES64L-G16RevA.03 25-Dec-2016

 ----------------------------------------------------------------------
 # B3LYP/6-311++G(d,p) empiricaldispersion=gd3bj scf=xqc pop=npa geom=c
 heck
 ----------------------------------------------------------------------

 -----------------------------------
 CID_81346727_JID_6481_Energie_anion
 -----------------------------------
 Structure from the checkpoint file:  "JID_6481.chk"
 Charge = -1 Multiplicity = 2

                         Standard orientation:
 ---------------------------------------------------------------------
 Center     Atomic      Atomic             Coordinates (Angstroms)
 Number     Number       Type             X           Y           Z
 ---------------------------------------------------------------------
      1          6           0       -4.883359    0.273129   -0.513847
      2          6           0       -3.590539    0.887674    0.029149
      3          6           0       -2.329011    0.053489   -0.238136
      4          6           0       -2.320813   -1.278802    0.522431
      5          6           0       -1.123669   -2.135567    0.100852
      6          6           0        0.152052   -1.339526    0.060320
      7          6           0        0.198614    0.035438    0.069635
      8          6           0       -1.071001    0.858314    0.123688
      9          6           0        1.520257    0.589903    0.011430
     10          7           0        2.641453   -0.082482   -0.065756
     11          6           0        2.609515   -1.468193   -0.077924
     12          8           0        3.585777   -2.192661   -0.144512
     13          7           0        1.316861   -2.037342   -0.003433
     14          6           0        1.684772    2.092056    0.099078
     15          8           0        0.945792    2.814914    0.735725
     16          8           0        2.743460    2.543107   -0.592369
     17          1           0       -4.811424    0.095867   -1.593865
     18          1           0       -5.734775    0.940304   -0.342324
     19          1           0       -5.117234   -0.683830   -0.034576
     20          1           0       -3.449954    1.880178   -0.419216
     21          1           0       -3.683301    1.054704    1.111721
     22          1           0       -2.291882   -0.174938   -1.315496
     23          1           0       -2.268122   -1.074850    1.600611
     24          1           0       -3.242274   -1.842815    0.348451
     25          1           0       -0.995332   -2.991809    0.775950
     26          1           0       -1.298423   -2.556080   -0.900362
     27          1           0       -0.985385    1.720733   -0.544949
     28          1           0       -1.187244    1.286389    1.127686
     29          1           0        1.302146   -3.051296   -0.005724
     30          1           0        2.773866    3.505820   -0.434391
 ---------------------------------------------------------------------

 SCF Done:  E(UB3LYP) =  -763.120427988     A.U. after   26 cycles

 The electronic state is 2-A.
 Alpha  occ. eigenvalues --  -19.02246 -18.95569 -18.92434 -14.20366 -14.12011
 Alpha  occ. eigenvalues --  -10.13818 -10.12772 -10.07926 -10.07521 -10.07250
 Alpha  occ. eigenvalues --  -10.07031 -10.06927 -10.06826 -10.04708 -10.04683
 Alpha  occ. eigenvalues --  -10.03348  -0.96267  -0.89174  -0.86963  -0.81240
 Alpha  occ. eigenvalues --   -0.74420  -0.73031  -0.67595  -0.63655  -0.61541
 Alpha  occ. eigenvalues --   -0.55093  -0.53663  -0.52217  -0.48178  -0.45724
 Alpha  occ. eigenvalues --   -0.44546  -0.40373  -0.37877  -0.36852  -0.36062
 Alpha  occ. eigenvalues --   -0.35118  -0.34095  -0.33145  -0.31874  -0.31238
 Alpha  occ. eigenvalues --   -0.30468  -0.29178  -0.28352  -0.28255  -0.26760
 Alpha  occ. eigenvalues --   -0.26577  -0.25831  -0.25659  -0.24101  -0.22513
 Alpha  occ. eigenvalues --   -0.21785  -0.20926  -0.18586  -0.18406  -0.17124
 Alpha  occ. eigenvalues --   -0.14173  -0.11705  -0.09151  -0.07954   0.03163
 Alpha virt. eigenvalues --    0.06201   0.07939   0.08662   0.09269   0.09926
 Alpha virt. eigenvalues --    0.10287   0.10991   0.11538   0.12593   0.13113
 Alpha virt. eigenvalues --    0.13318   0.14176   0.14580   0.15287   0.16053

  Beta  occ. eigenvalues --  -19.02188 -18.95297 -18.92380 -14.20121 -14.11583
  Beta  occ. eigenvalues --  -10.13667 -10.12761 -10.07924 -10.07520 -10.07063
  Beta  occ. eigenvalues --  -10.06930 -10.06887 -10.06820 -10.04699 -10.04276
  Beta  occ. eigenvalues --  -10.03508  -0.96017  -0.88943  -0.86565  -0.80820
  Beta  occ. eigenvalues --   -0.73570  -0.72969  -0.67483  -0.63584  -0.61304
  Beta  occ. eigenvalues --   -0.54245  -0.53585  -0.52111  -0.48055  -0.45456
  Beta  occ. eigenvalues --   -0.44405  -0.40161  -0.37637  -0.36746  -0.35788
  Beta  occ. eigenvalues --   -0.34967  -0.33909  -0.32880  -0.31734  -0.30522
  Beta  occ. eigenvalues --   -0.30206  -0.28613  -0.28201  -0.27982  -0.26562
  Beta  occ. eigenvalues --   -0.26415  -0.25702  -0.25554  -0.23866  -0.22476
  Beta  occ. eigenvalues --   -0.21726  -0.20823  -0.17700  -0.17263  -0.15115
  Beta  occ. eigenvalues --   -0.13625  -0.11467  -0.08698  -0.06785
  Beta virt. eigenvalues --    0.06111   0.07889   0.08536   0.09195   0.09798
  Beta virt. eigenvalues --    0.09965   0.10285   0.11308   0.11456   0.12538
  Beta virt. eigenvalues --    0.13038   0.13361   0.14307   0.14913   0.15771

 Mulliken charges and spin densities:
               1          2
     1  C   -0.527766  -0.048286
     2  C   -0.409351   0.067308
     3  C    0.693907   0.027695
     4  C   -0.412709   0.020760
     5  C   -0.695891  -0.156744
     6  C   -0.401788   0.310978
     7  C    1.986000  -0.231491
     8  C   -1.894501   0.032124
     9  C   -0.199633   0.286405
    10  N   -0.209741   0.216027
    11  C    0.335840   0.021432
    12  O   -0.424163   0.023013
    13  N   -0.351309   0.114382
    14  C   -0.169975   0.064597
    15  O   -0.332555   0.089363
    16  O   -0.132241   0.003651
    17  H    0.110267   0.017130
    18  H    0.118355   0.009855
    19  H    0.127102   0.009571
    20  H    0.141406  -0.000471
    21  H    0.104137   0.003576
    22  H    0.131013   0.012687
    23  H    0.150106   0.000225
    24  H    0.073456   0.017653
    25  H    0.139981  -0.004148
    26  H    0.086471   0.101794
    27  H    0.194378  -0.006153
    28  H    0.234051  -0.000113
    29  H    0.292062  -0.004280
    30  H    0.243092   0.001461
 Sum of Mulliken charges =  -1.00000   1.00000

 Dipole moment (field-independent basis, Debye):
    X=            -10.7182    Y=             -0.0511    Z=             -0.2588  Tot=             10.7214
 Quadrupole moment (field-independent basis, Debye-Ang):
   XX=           -150.5507   YY=           -114.5894   ZZ=           -102.6682
   XY=             12.9248   XZ=              1.2387   YZ=             -5.5123

 Summary of Natural Population Analysis:

                                       Natural Population
                Natural  -----------------------------------------------
    Atom  No    Charge         Core      Valence    Rydberg      Total
 -----------------------------------------------------------------------
      C    1   -0.28458      0.99967     2.28099    0.00391     3.28458
      C    2   -0.18578      0.99962     2.17886    0.00729     3.18578
      C    3   -0.10813      0.99960     2.09861    0.00993     3.10813
      C    4   -0.18373      0.99962     2.17694    0.00717     3.18373
      C    5   -0.20169      0.99961     2.19511    0.00697     3.20169
      C    6    0.18186      0.99948     1.80881    0.00985     2.81814
      C    7   -0.10390      0.99944     2.09554    0.00892     3.10390
      C    8   -0.18706      0.99960     2.17922    0.00824     3.18706
      C    9    0.15236      0.99948     1.83043    0.01773     2.84764
      N   10   -0.20457      0.99963     2.69601    0.00893     3.70457
      C   11    0.39230      0.99970     1.58410    0.02390     2.60770
      O   12   -0.34105      0.99987     3.33436    0.00682     4.34105
      N   13   -0.26806      0.99962     2.75719    0.01124     3.76806
      C   14    0.41292      0.99970     1.56070    0.02669     2.58708
      O   15   -0.30406      0.99987     3.29712    0.00707     4.30406
      O   16   -0.33230      0.99987     3.32569    0.00674     4.33230
      H   17    0.09430      0.00000     0.40454    0.00116     0.40570
      H   18    0.09414      0.00000     0.40504    0.00082     0.40586
      H   19    0.09405      0.00000     0.40483    0.00112     0.40595
      H   20    0.09543      0.00000     0.40335    0.00123     0.40457
      H   21    0.09244      0.00000     0.40632    0.00124     0.40756
      H   22    0.08922      0.00000     0.40896    0.00182     0.41078
      H   23    0.09443      0.00000     0.40441    0.00116     0.40557
      H   24    0.09197      0.00000     0.40656    0.00147     0.40803
      H   25    0.09907      0.00000     0.39963    0.00129     0.40093
      H   26    0.10199      0.00000     0.39619    0.00182     0.39801
      H   27    0.10427      0.00000     0.39451    0.00122     0.39573
      H   28    0.10147      0.00000     0.39717    0.00136     0.39853
      H   29    0.18825      0.00000     0.31011    0.00164     0.31175
      H   30    0.22444      0.00000     0.27069    0.00487     0.27556
 =======================================================================
   * Total *    0.00000     15.99439    42.81199    0.19362    59.00000

 Normal termination of Gaussian 16 at Thu Dec 10 23:40:55 2020.
