 Gaussian 16, Revision A.03,

 -----------------------------------------------------------
 # opt freq B3LYP/6-31G(d) empiricaldispersion=gd3bj scf=xqc
 -----------------------------------------------------------

 ------------------------------
 CID_85571047_JID_1462_neutraal
 ------------------------------
 Symbolic Z-matrix:
 Charge =  0 Multiplicity = 1

 SCF Done:  E(RB3LYP) =  -949.754169924     A.U. after   15 cycles
 SCF Done:  E(RB3LYP) =  -949.760962204     A.U. after   12 cycles
 SCF Done:  E(RB3LYP) =  -949.762030128     A.U. after   12 cycles
 SCF Done:  E(RB3LYP) =  -949.762225101     A.U. after   12 cycles
 SCF Done:  E(RB3LYP) =  -949.762344765     A.U. after   11 cycles
 SCF Done:  E(RB3LYP) =  -949.762425145     A.U. after   11 cycles
 SCF Done:  E(RB3LYP) =  -949.762491823     A.U. after   11 cycles
 SCF Done:  E(RB3LYP) =  -949.762515993     A.U. after   11 cycles
 SCF Done:  E(RB3LYP) =  -949.762537904     A.U. after   11 cycles
 SCF Done:  E(RB3LYP) =  -949.762546230     A.U. after   10 cycles
 SCF Done:  E(RB3LYP) =  -949.762547425     A.U. after    8 cycles
 SCF Done:  E(RB3LYP) =  -949.762548535     A.U. after    8 cycles
 SCF Done:  E(RB3LYP) =  -949.762549943     A.U. after    8 cycles
 SCF Done:  E(RB3LYP) =  -949.762550961     A.U. after    9 cycles
 SCF Done:  E(RB3LYP) =  -949.762551524     A.U. after    9 cycles
 SCF Done:  E(RB3LYP) =  -949.762551699     A.U. after    8 cycles
 Optimization completed.
    -- Stationary point found.
 Normal termination of Gaussian 16 at Tue Dec  8 20:04:45 2020.

 --------------------------------------------------------------------
 #N Geom=AllCheck Guess=TCheck SCRF=Check GenChk RB3LYP/6-31G(d) Freq
 --------------------------------------------------------------------

 Structure from the checkpoint file:  "JID_1462.chk"
 ------------------------------
 CID_85571047_JID_1462_neutraal
 ------------------------------
 Charge =  0 Multiplicity = 1

 SCF Done:  E(RB3LYP) =  -949.762551699     A.U. after    1 cycles

  Exact polarizability:  93.266  -1.373  79.049   1.532   1.218  73.973
 Approx polarizability: 138.286   0.068 115.537  10.445   3.222 119.356

                      1                      2                      3
                      A                      A                      A
 Frequencies --     58.2497                66.5335               154.2133
 Red. masses --      4.9460                 8.3534                 4.0249
 Frc consts  --      0.0099                 0.0218                 0.0564
 IR Inten    --      0.6755                 1.5285                 0.5502

                      4                      5                      6
                      A                      A                      A
 Frequencies --    193.3996               218.8847               244.5356
 Red. masses --      3.3737                 1.2245                 1.2652
 Frc consts  --      0.0743                 0.0346                 0.0446
 IR Inten    --      2.4418                 0.2804                 0.2795

                      7                      8                      9
                      A                      A                      A
 Frequencies --    255.4668               265.7094               336.1260
 Red. masses --      1.6375                 3.9291                 8.0847
 Frc consts  --      0.0630                 0.1634                 0.5382
 IR Inten    --      0.5745                 1.4946                 7.1323

                     10                     11                     12
                      A                      A                      A
 Frequencies --    367.0765               395.8448               410.0662
 Red. masses --      4.6861                 7.9928                 7.9444
 Frc consts  --      0.3720                 0.7379                 0.7871
 IR Inten    --     12.9908                13.5515                 5.6634

                     13                     14                     15
                      A                      A                      A
 Frequencies --    443.3194               493.6530               549.6387
 Red. masses --      3.4146                 6.1966                 2.9810
 Frc consts  --      0.3954                 0.8897                 0.5306
 IR Inten    --      5.1551                10.0413                58.2467

                     16                     17                     18
                      A                      A                      A
 Frequencies --    559.1354               570.4085               650.6934
 Red. masses --      4.5202                 2.2545                 5.7708
 Frc consts  --      0.8326                 0.4322                 1.4396
 IR Inten    --     49.6216                54.6992                35.6225

                     19                     20                     21
                      A                      A                      A
 Frequencies --    727.3761               745.5744               814.0058
 Red. masses --      6.0571                 5.2315                 2.7755
 Frc consts  --      1.8881                 1.7134                 1.0835
 IR Inten    --     73.7383                33.1822                14.4735

                     22                     23                     24
                      A                      A                      A
 Frequencies --    842.9421               890.7215               928.6969
 Red. masses --      2.6326                 4.4728                 2.4331
 Frc consts  --      1.1021                 2.0908                 1.2364
 IR Inten    --     26.2308                92.5470                78.1424

                     25                     26                     27
                      A                      A                      A
 Frequencies --   1017.0240              1028.7403              1057.2887
 Red. masses --      1.5405                 2.9794                 1.3775
 Frc consts  --      0.9388                 1.8578                 0.9073
 IR Inten    --     25.6589                 5.2041                21.1420

                     28                     29                     30
                      A                      A                      A
 Frequencies --   1102.1598              1159.9819              1170.6168
 Red. masses --      2.0768                 3.5662                 2.5420
 Frc consts  --      1.4864                 2.8272                 2.0524
 IR Inten    --     33.4913               288.2036                22.3597

                     31                     32                     33
                      A                      A                      A
 Frequencies --   1176.1439              1293.2786              1322.1016
 Red. masses --      2.3506                 3.1893                 1.5079
 Frc consts  --      1.9158                 3.1429                 1.5529
 IR Inten    --      7.9771               146.3692                23.2638

                     34                     35                     36
                      A                      A                      A
 Frequencies --   1345.2433              1373.7593              1386.1554
 Red. masses --      1.4095                 8.6598                 1.5513
 Frc consts  --      1.5029                 9.6289                 1.7562
 IR Inten    --     16.6805               190.5083               116.7488

                     37                     38                     39
                      A                      A                      A
 Frequencies --   1392.5508              1403.0819              1439.6945
 Red. masses --      1.5097                 1.3808                 1.2255
 Frc consts  --      1.7249                 1.6016                 1.4966
 IR Inten    --     40.8451                18.3703                12.9946

                     40                     41                     42
                      A                      A                      A
 Frequencies --   1450.2713              1519.1668              1522.2720
 Red. masses --      1.2400                 1.0520                 1.0487
 Frc consts  --      1.5366                 1.4304                 1.4318
 IR Inten    --      9.3806                 4.3990                 7.0411

                     43                     44                     45
                      A                      A                      A
 Frequencies --   1527.0320              1533.0924              1822.6119
 Red. masses --      1.0465                 1.0548                 9.9155
 Frc consts  --      1.4377                 1.4607                19.4067
 IR Inten    --      7.4306                 7.4912               295.9510

                     46                     47                     48
                      A                      A                      A
 Frequencies --   3066.6295              3073.4166              3097.2126
 Red. masses --      1.0357                 1.0382                 1.0846
 Frc consts  --      5.7385                 5.7781                 6.1300
 IR Inten    --     15.1119                 5.3168                 4.9638

                     49                     50                     51
                      A                      A                      A
 Frequencies --   3113.3835              3138.7659              3146.3850
 Red. masses --      1.0882                 1.1016                 1.0999
 Frc consts  --      6.2149                 6.3945                 6.4156
 IR Inten    --      8.3790                13.6917                13.5505

                     52                     53                     54
                      A                      A                      A
 Frequencies --   3155.1891              3164.8053              3552.8501
 Red. masses --      1.1040                 1.1036                 1.0759
 Frc consts  --      6.4752                 6.5125                 8.0018
 IR Inten    --     10.5597                 9.8233                64.1999

 - Thermochemistry -
 -------------------
 Temperature   298.150 Kelvin.  Pressure   1.00000 Atm.
 Atom     1 has atomic number  6 and mass  12.00000

 Molecular mass:   179.02523 amu.
 Principal axes and moments of inertia in atomic units:
                           1         2         3
     Eigenvalues --  1279.259582015.241742231.57817
           X            0.99864  -0.03048  -0.04239
           Y            0.02646   0.99538  -0.09232
           Z            0.04500   0.09108   0.99483
 This molecule is an asymmetric top.
 Rotational symmetry number  1.
 Warning -- assumption of classical behavior for rotation
           may cause significant error
 Rotational temperatures (Kelvin)      0.06771     0.04298     0.03881
 Rotational constants (GHZ):           1.41077     0.89555     0.80873
 Zero-point vibrational energy     405134.4 (Joules/Mol)
                                   96.82944 (Kcal/Mol)
 Warning -- explicit consideration of  17 degrees of freedom as
           vibrations may cause significant error
 Vibrational temperatures:     83.81    95.73   221.88   278.26   314.93
          (Kelvin)            351.83   367.56   382.30   483.61   528.14
                              569.53   589.99   637.84   710.26   790.81
                              804.47   820.69   936.20  1046.53  1072.72
                             1171.17  1212.81  1281.55  1336.19  1463.27
                             1480.13  1521.20  1585.76  1668.96  1684.26
                             1692.21  1860.74  1902.21  1935.51  1976.53
                             1994.37  2003.57  2018.72  2071.40  2086.62
                             2185.74  2190.21  2197.06  2205.78  2622.33
                             4412.20  4421.96  4456.20  4479.46  4515.98
                             4526.95  4539.61  4553.45  5111.76

 Zero-point correction=                           0.154308 (Hartree/Particle)
 Thermal correction to Energy=                    0.165167
 Thermal correction to Enthalpy=                  0.166111
 Thermal correction to Gibbs Free Energy=         0.117775
 Sum of electronic and zero-point Energies=           -949.608244
 Sum of electronic and thermal Energies=              -949.597385
 Sum of electronic and thermal Enthalpies=            -949.596441
 Sum of electronic and thermal Free Energies=         -949.644776

                     E (Thermal)             CV                S
                      KCal/Mol        Cal/Mol-Kelvin    Cal/Mol-Kelvin
 Total                  103.644             40.743            101.731
 Electronic               0.000              0.000              0.000
 Translational            0.889              2.981             41.454
 Rotational               0.889              2.981             30.132
 Vibrational            101.866             34.782             30.145
 Vibration     1          0.596              1.974              4.516
 Vibration     2          0.598              1.970              4.253
 Vibration     3          0.620              1.898              2.620
 Vibration     4          0.635              1.849              2.195
 Vibration     5          0.647              1.812              1.968
 Vibration     6          0.660              1.772              1.770
 Vibration     7          0.666              1.754              1.693
 Vibration     8          0.672              1.736              1.624
 Vibration     9          0.717              1.603              1.230
 Vibration    10          0.740              1.540              1.092
 Vibration    11          0.763              1.479              0.978
 Vibration    12          0.774              1.448              0.926
 Vibration    13          0.803              1.376              0.816
 Vibration    14          0.849              1.264              0.674
 Vibration    15          0.905              1.140              0.545
 Vibration    16          0.915              1.120              0.526
 Vibration    17          0.927              1.095              0.503

 Optimization completed.
    -- Stationary point found.
 Normal termination of Gaussian 16 at Tue Dec  8 20:08:50 2020.

 ----------------------------------------------------------------------
 # B3LYP/6-311++G(d,p) empiricaldispersion=gd3bj scf=xqc pop=npa geom=c
 heck
 ----------------------------------------------------------------------

 --------------------------------------
 CID_85571047_JID_1462_Energie_neutraal
 --------------------------------------
 Structure from the checkpoint file:  "JID_1462.chk"
 Charge =  0 Multiplicity = 1

 SCF Done:  E(RB3LYP) =  -949.954853412     A.U. after   16 cycles
 Normal termination of Gaussian 16 at Tue Dec  8 20:10:48 2020.

 ----------------------------------------------------------------------
 # B3LYP/6-311++G(d,p) empiricaldispersion=gd3bj scf=xqc pop=npa geom=c
 heck
 ----------------------------------------------------------------------

 ------------------------------------
 CID_85571047_JID_1462_Energie_kation
 ------------------------------------
 Structure from the checkpoint file:  "JID_1462.chk"
 Charge =  1 Multiplicity = 2

 SCF Done:  E(UB3LYP) =  -949.577491012     A.U. after   28 cycles
 Normal termination of Gaussian 16 at Tue Dec  8 20:15:03 2020.
 Gaussian 16:  ES64L-G16RevA.03 25-Dec-2016

 ----------------------------------------------------------------------
 # B3LYP/6-311++G(d,p) empiricaldispersion=gd3bj scf=xqc pop=npa geom=c
 heck
 ----------------------------------------------------------------------

 -----------------------------------
 CID_85571047_JID_1462_Energie_anion
 -----------------------------------
 Structure from the checkpoint file:  "JID_1462.chk"
 Charge = -1 Multiplicity = 2

                         Standard orientation:
 ---------------------------------------------------------------------
 Center     Atomic      Atomic             Coordinates (Angstroms)
 Number     Number       Type             X           Y           Z
 ---------------------------------------------------------------------
      1          6           0       -2.140615   -0.204444    1.582298
      2          6           0       -1.694313    0.306972    0.199915
      3          6           0       -0.642897    1.415817    0.298493
      4          8           0        0.567242    0.848779    0.918746
      5         16           0        1.422313   -0.254975    0.115649
      6          8           0        2.146473   -1.017526    1.110422
      7          8           0        2.121933    0.334304   -1.015625
      8          7           0        0.141969   -1.208537   -0.490433
      9          6           0       -1.208690   -0.869742   -0.631564
     10          8           0       -1.933738   -1.553485   -1.323638
     11          6           0       -0.356849    2.143188   -1.007486
     12          1           0       -1.290892   -0.595459    2.148419
     13          1           0       -2.882907   -0.999100    1.469607
     14          1           0       -2.591477    0.611701    2.156529
     15          1           0       -2.562580    0.703652   -0.335262
     16          1           0       -0.949439    2.134507    1.061670
     17          1           0        0.451690   -1.969975   -1.090804
     18          1           0       -1.249518    2.708783   -1.294379
     19          1           0        0.475479    2.839554   -0.881288
     20          1           0       -0.106251    1.458364   -1.821016
 ---------------------------------------------------------------------

 SCF Done:  E(UB3LYP) =  -949.946811834     A.U. after   32 cycles

 The electronic state is 2-A.
 Alpha  occ. eigenvalues --  -89.01838 -19.09095 -19.04788 -19.04558 -19.01462
 Alpha  occ. eigenvalues --  -14.27512 -10.19567 -10.15528 -10.09828 -10.07140
 Alpha  occ. eigenvalues --  -10.06810  -8.07614  -6.03980  -6.03846  -6.03744
 Alpha  occ. eigenvalues --   -1.08012  -0.96926  -0.96508  -0.94281  -0.84215
 Alpha  occ. eigenvalues --   -0.73185  -0.65693  -0.60261  -0.57447  -0.55597
 Alpha  occ. eigenvalues --   -0.48133  -0.45994  -0.43130  -0.41207  -0.38692
 Alpha  occ. eigenvalues --   -0.37140  -0.36284  -0.35362  -0.34102  -0.32446
 Alpha  occ. eigenvalues --   -0.30180  -0.29595  -0.29022  -0.27869  -0.27655
 Alpha  occ. eigenvalues --   -0.27053  -0.25990  -0.25027  -0.24207  -0.21753
 Alpha  occ. eigenvalues --   -0.19592  -0.17905   0.04614
 Alpha virt. eigenvalues --    0.07403   0.07681   0.08402   0.09460   0.10197
 Alpha virt. eigenvalues --    0.11256   0.11791   0.12177   0.12450   0.13278
 Alpha virt. eigenvalues --    0.13829   0.14525   0.15963   0.16135   0.16527

  Beta  occ. eigenvalues --  -89.01832 -19.09081 -19.04783 -19.04533 -19.01393
  Beta  occ. eigenvalues --  -14.27471 -10.19462 -10.15495 -10.09816 -10.07102
  Beta  occ. eigenvalues --  -10.06756  -8.07607  -6.03973  -6.03841  -6.03738
  Beta  occ. eigenvalues --   -1.07973  -0.96858  -0.96395  -0.94239  -0.84131
  Beta  occ. eigenvalues --   -0.73109  -0.65616  -0.60202  -0.57292  -0.55510
  Beta  occ. eigenvalues --   -0.48061  -0.45927  -0.43080  -0.41143  -0.38612
  Beta  occ. eigenvalues --   -0.37065  -0.36068  -0.35276  -0.34015  -0.32307
  Beta  occ. eigenvalues --   -0.30110  -0.29529  -0.28955  -0.27825  -0.27610
  Beta  occ. eigenvalues --   -0.26965  -0.25938  -0.24923  -0.24142  -0.21726
  Beta  occ. eigenvalues --   -0.19419  -0.17828
  Beta virt. eigenvalues --    0.07307   0.08343   0.08669   0.09053   0.10364
  Beta virt. eigenvalues --    0.10917   0.11524   0.12173   0.12557   0.12971
  Beta virt. eigenvalues --    0.13546   0.14257   0.14802   0.16005   0.16192

 Mulliken charges and spin densities:
               1          2
     1  C    1.307036  -1.877642
     2  C   -0.432903   0.582281
     3  C   -0.168334  -0.039676
     4  O   -0.110173  -0.004046
     5  S    1.002671  -0.544851
     6  O   -0.178695   0.007657
     7  O   -0.162812  -0.004992
     8  N   -0.542382   0.078511
     9  C    0.406595  -0.406582
    10  O   -0.317568   0.047218
    11  C    1.009738  -1.646150
    12  H   -0.100038   0.267999
    13  H   -0.010616   0.168177
    14  H   -0.565247   0.741795
    15  H   -0.763497   1.054260
    16  H   -0.970422   1.256719
    17  H    0.176927   0.189174
    18  H   -0.458062   0.623284
    19  H   -0.060182   0.244364
    20  H   -0.062036   0.262499
 Sum of Mulliken charges =  -1.00000   1.00000

 Dipole moment (field-independent basis, Debye):
    X=              5.6568    Y=             -4.8228    Z=             -1.3937  Tot=              7.5631
 Quadrupole moment (field-independent basis, Debye-Ang):
   XX=           -128.9374   YY=           -113.4720   ZZ=           -106.9446
   XY=             12.2733   XZ=              1.0278   YZ=             -3.7867

 Summary of Natural Population Analysis:

                                       Natural Population
                Natural  -----------------------------------------------
    Atom  No    Charge         Core      Valence    Rydberg      Total
 -----------------------------------------------------------------------
      C    1   -0.28085      0.99964     2.27444    0.00677     3.28085
      C    2   -0.16762      0.99953     2.15431    0.01378     3.16762
      C    3    0.06437      0.99953     1.91882    0.01728     2.93563
      O    4   -0.37061      0.99989     3.36177    0.00895     4.37061
      S    5    1.20377      4.99939     1.69078    0.10607     6.79623
      O    6   -0.43692      0.99989     3.43160    0.00542     4.43692
      O    7   -0.44026      0.99990     3.43508    0.00528     4.44026
      N    8   -0.43799      0.99965     2.92809    0.01025     3.93799
      C    9    0.36689      0.99964     1.60866    0.02481     2.63311
      O   10   -0.29160      0.99987     3.28564    0.00608     4.29160
      C   11   -0.30121      0.99963     2.29515    0.00643     3.30121
      H   12    0.10223      0.00000     0.39631    0.00147     0.39777
      H   13    0.10472      0.00000     0.39436    0.00091     0.39528
      H   14    0.11107      0.00000     0.38488    0.00405     0.38893
      H   15    0.12739      0.00000     0.36792    0.00469     0.37261
      H   16    0.11042      0.00000     0.38515    0.00444     0.38958
      H   17    0.20829      0.00000     0.28925    0.00246     0.29171
      H   18    0.11471      0.00000     0.38250    0.00279     0.38529
      H   19    0.10918      0.00000     0.38977    0.00104     0.39082
      H   20    0.10401      0.00000     0.39471    0.00128     0.39599
 =======================================================================
   * Total *   -0.00000     14.99657    31.76919    0.23425    47.00000

 Normal termination of Gaussian 16 at Tue Dec  8 20:19:59 2020.
