 Gaussian 16, Revision A.03,

 -----------------------------------------------------------
 # opt freq B3LYP/6-31G(d) empiricaldispersion=gd3bj scf=xqc
 -----------------------------------------------------------

 -------------------------------
 CID_142909381_JID_2995_neutraal
 -------------------------------
 Symbolic Z-matrix:
 Charge =  0 Multiplicity = 1

 SCF Done:  E(RB3LYP) =  -515.009254389     A.U. after   14 cycles
 SCF Done:  E(RB3LYP) =  -515.014141049     A.U. after   12 cycles
 SCF Done:  E(RB3LYP) =  -515.014946978     A.U. after   12 cycles
 SCF Done:  E(RB3LYP) =  -515.015246416     A.U. after   11 cycles
 SCF Done:  E(RB3LYP) =  -515.015342034     A.U. after   10 cycles
 SCF Done:  E(RB3LYP) =  -515.015372746     A.U. after   10 cycles
 SCF Done:  E(RB3LYP) =  -515.015384528     A.U. after   10 cycles
 SCF Done:  E(RB3LYP) =  -515.015385734     A.U. after    8 cycles
 SCF Done:  E(RB3LYP) =  -515.015386109     A.U. after    8 cycles
 SCF Done:  E(RB3LYP) =  -515.015386217     A.U. after    7 cycles
 SCF Done:  E(RB3LYP) =  -515.015386282     A.U. after    7 cycles
 Optimization completed.
    -- Stationary point found.

 1\1\GINC-NODE209\FOpt\RB3LYP\6-31G(d)\C9H13N3\VSC10255\09-Dec-2020\0\\
 # opt freq B3LYP/6-31G(d) empiricaldispersion=gd3bj scf=xqc\\CID_14290
 9381_JID_2995_neutraal\\0,1\C,0.0347605837,0.8055987245,0.0834165321\C
 ,-0.7467018072,-0.2552778989,-0.6525155514\C,0.721673604,-0.4573227969
 ,-0.3740467797\C,1.7122796418,-0.3878276744,-1.5191731562\N,3.03513018
 78,0.090374406,-1.1353535286\C,3.8931225003,-0.6748635008,-0.362111112
 6\C,3.737685833,-2.0758977256,-0.2252103476\C,4.6689069531,-2.77204349
 8,0.5270527802\C,5.7278455905,-2.0880022891,1.1353072816\C,5.786075347

 Normal termination of Gaussian 16 at Wed Dec  9 18:21:28 2020.

 --------------------------------------------------------------------
 #N Geom=AllCheck Guess=TCheck SCRF=Check GenChk RB3LYP/6-31G(d) Freq
 --------------------------------------------------------------------

 Structure from the checkpoint file:  "JID_2995.chk"
 -------------------------------
 CID_142909381_JID_2995_neutraal
 -------------------------------
 Charge =  0 Multiplicity = 1

 SCF Done:  E(RB3LYP) =  -515.015386282     A.U. after    1 cycles

  Exact polarizability: 147.062  -6.857 109.438  15.796   7.501  74.505
 Approx polarizability: 201.128 -14.505 180.658  33.356  15.620 115.950

                      1                      2                      3
                      A                      A                      A
 Frequencies --     39.3193                65.5538                77.4489
 Red. masses --      4.1972                 3.6243                 2.6779
 Frc consts  --      0.0038                 0.0092                 0.0095
 IR Inten    --      0.4010                 0.3712                 0.2550

                      4                      5                      6
                      A                      A                      A
 Frequencies --    129.4795               171.5765               220.7525
 Red. masses --      3.1012                 3.4716                 1.3130
 Frc consts  --      0.0306                 0.0602                 0.0377
 IR Inten    --      7.2310                 0.4903                41.8145

                      7                      8                      9
                      A                      A                      A
 Frequencies --    252.6809               271.8613               324.0184
 Red. masses --      2.7454                 3.2129                 3.4230
 Frc consts  --      0.1033                 0.1399                 0.2117
 IR Inten    --      8.8968                 5.1694                 1.0724

                     10                     11                     12
                      A                      A                      A
 Frequencies --    411.0449               423.8512               444.0557
 Red. masses --      3.7164                 3.7698                 2.2984
 Frc consts  --      0.3700                 0.3990                 0.2670
 IR Inten    --     14.3794                 1.9983                 5.4770

                     13                     14                     15
                      A                      A                      A
 Frequencies --    505.3902               543.7189               618.9866
 Red. masses --      3.4621                 2.9005                 4.1118
 Frc consts  --      0.5210                 0.5052                 0.9282
 IR Inten    --      5.8211                 8.9055                 8.3546

                     16                     17                     18
                      A                      A                      A
 Frequencies --    641.1935               750.4563               778.5379
 Red. masses --      6.3166                 1.7939                 1.9195
 Frc consts  --      1.5301                 0.5952                 0.6855
 IR Inten    --      8.6405                 9.1110                 9.0806

                     19                     20                     21
                      A                      A                      A
 Frequencies --    784.9330               791.8315               811.4469
 Red. masses --      2.0704                 1.9837                 1.5835
 Frc consts  --      0.7516                 0.7328                 0.6143
 IR Inten    --     35.8701                 6.4866                10.9975

                     22                     23                     24
                      A                      A                      A
 Frequencies --    852.5460               857.4727               915.3307
 Red. masses --      1.6963                 1.4212                 1.6621
 Frc consts  --      0.7264                 0.6157                 0.8204
 IR Inten    --     13.5962                 2.0125                 3.7674

                     25                     26                     27
                      A                      A                      A
 Frequencies --    957.6313               971.5597               986.6614
 Red. masses --      2.6941                 1.3781                 2.4753
 Frc consts  --      1.4556                 0.7664                 1.4198
 IR Inten    --      8.0428                 0.1931                 4.1107

                     28                     29                     30
                      A                      A                      A
 Frequencies --    989.3443               998.2427              1043.3213
 Red. masses --      1.4561                 5.7359                 1.9143
 Frc consts  --      0.8397                 3.3676                 1.2277
 IR Inten    --      1.1750                 6.6641                92.3496

                     31                     32                     33
                      A                      A                      A
 Frequencies --   1047.8173              1065.7862              1083.5059
 Red. masses --      2.5749                 1.4467                 1.4136
 Frc consts  --      1.6657                 0.9682                 0.9778
 IR Inten    --     39.3954                 8.0503                 4.7264

                     34                     35                     36
                      A                      A                      A
 Frequencies --   1086.0194              1136.4527              1145.7783
 Red. masses --      1.9733                 1.4837                 1.1167
 Frc consts  --      1.3713                 1.1290                 0.8638
 IR Inten    --      8.5136                 1.5735                 1.3421

                     37                     38                     39
                      A                      A                      A
 Frequencies --   1195.4515              1198.7746              1211.3893
 Red. masses --      1.1890                 1.6961                 1.4004
 Frc consts  --      1.0011                 1.4361                 1.2108
 IR Inten    --      9.1795                12.4200                 0.6155

                     40                     41                     42
                      A                      A                      A
 Frequencies --   1238.7854              1284.3883              1293.6902
 Red. masses --      1.8655                 2.3431                 1.5045
 Frc consts  --      1.6867                 2.2774                 1.4835
 IR Inten    --      1.2124                18.6507                65.4263

                     43                     44                     45
                      A                      A                      A
 Frequencies --   1341.8633              1357.3465              1371.1871
 Red. masses --      4.9460                 1.4779                 1.2835
 Frc consts  --      5.2471                 1.6043                 1.4218
 IR Inten    --     12.4170                 1.4642                28.8546

                     46                     47                     48
                      A                      A                      A
 Frequencies --   1378.3852              1409.3741              1443.9362
 Red. masses --      1.3559                 2.3068                 1.5272
 Frc consts  --      1.5178                 2.6997                 1.8761
 IR Inten    --     18.8533                48.0009                12.1197

                     49                     50                     51
                      A                      A                      A
 Frequencies --   1488.1210              1498.0532              1513.0224
 Red. masses --      2.3920                 1.0875                 1.1145
 Frc consts  --      3.1209                 1.4379                 1.5031
 IR Inten    --     97.1793                 2.2450                13.7410

                     52                     53                     54
                      A                      A                      A
 Frequencies --   1527.7799              1539.3905              1618.9379
 Red. masses --      2.5042                 1.3567                 5.6606
 Frc consts  --      3.4438                 1.8943                 8.7413
 IR Inten    --    174.4490                 9.2849                32.9670

                     55                     56                     57
                      A                      A                      A
 Frequencies --   1659.8961              1736.0344              3065.5766
 Red. masses --      5.4219                 1.0805                 1.0653
 Frc consts  --      8.8017                 1.9185                 5.8983
 IR Inten    --    213.7268                32.1626                36.1913

                     58                     59                     60
                      A                      A                      A
 Frequencies --   3122.3978              3143.5863              3152.2733
 Red. masses --      1.0981                 1.0534                 1.0578
 Frc consts  --      6.3079                 6.1335                 6.1930
 IR Inten    --      7.9720                25.3603                17.0886

                     61                     62                     63
                      A                      A                      A
 Frequencies --   3159.3477              3164.1006              3191.0050
 Red. masses --      1.0884                 1.0893                 1.0887
 Frc consts  --      6.4010                 6.4254                 6.5317
 IR Inten    --     12.5031                35.2814                13.9595

                     64                     65                     66
                      A                      A                      A
 Frequencies --   3219.4709              3220.9778              3233.4792
 Red. masses --      1.1187                 1.0946                 1.0927
 Frc consts  --      6.8317                 6.6910                 6.7313
 IR Inten    --      4.8485                23.1658                 9.6234

                     67                     68                     69
                      A                      A                      A
 Frequencies --   3236.9363              3413.1917              3502.2074
 Red. masses --      1.1164                 1.0531                 1.0877
 Frc consts  --      6.8917                 7.2285                 7.8601
 IR Inten    --     17.4823                 4.8887                 0.3309

 - Thermochemistry -
 -------------------
 Temperature   298.150 Kelvin.  Pressure   1.00000 Atm.
 Atom     1 has atomic number  6 and mass  12.00000

 Molecular mass:   163.11095 amu.
 Principal axes and moments of inertia in atomic units:
                           1         2         3
     Eigenvalues --   920.903023212.649793669.09156
           X            1.00000   0.00118   0.00068
           Y           -0.00119   0.99984   0.01770
           Z           -0.00066  -0.01770   0.99984
 This molecule is an asymmetric top.
 Rotational symmetry number  1.
 Warning -- assumption of classical behavior for rotation
           may cause significant error
 Rotational temperatures (Kelvin)      0.09405     0.02696     0.02361
 Rotational constants (GHZ):           1.95975     0.56176     0.49188
 Zero-point vibrational energy     564194.6 (Joules/Mol)
                                  134.84574 (Kcal/Mol)
 Warning -- explicit consideration of  15 degrees of freedom as
           vibrations may cause significant error
 Vibrational temperatures:     56.57    94.32   111.43   186.29   246.86
          (Kelvin)            317.61   363.55   391.15   466.19   591.40
                              609.83   638.90   727.14   782.29   890.58
                              922.53  1079.74  1120.14  1129.34  1139.27
                             1167.49  1226.62  1233.71  1316.96  1377.82
                             1397.86  1419.59  1423.45  1436.25  1501.11
                             1507.58  1533.43  1558.92  1562.54  1635.10
                             1648.52  1719.99  1724.77  1742.92  1782.34
                             1847.95  1861.33  1930.64  1952.92  1972.83
                             1983.19  2027.77  2077.50  2141.07  2155.36
                             2176.90  2198.13  2214.84  2329.29  2388.22
                             2497.77  4410.68  4492.43  4522.92  4535.42
                             4545.60  4552.44  4591.14  4632.10  4634.27
                             4652.26  4657.23  4910.82  5038.90

 Zero-point correction=                           0.214890 (Hartree/Particle)
 Thermal correction to Energy=                    0.226011
 Thermal correction to Enthalpy=                  0.226956
 Thermal correction to Gibbs Free Energy=         0.177090
 Sum of electronic and zero-point Energies=           -514.800496
 Sum of electronic and thermal Energies=              -514.789375
 Sum of electronic and thermal Enthalpies=            -514.788431
 Sum of electronic and thermal Free Energies=         -514.838297

                     E (Thermal)             CV                S
                      KCal/Mol        Cal/Mol-Kelvin    Cal/Mol-Kelvin
 Total                  141.824             42.473            104.952
 Electronic               0.000              0.000              0.000
 Translational            0.889              2.981             41.176
 Rotational               0.889              2.981             30.763
 Vibrational            140.047             36.511             33.013
 Vibration     1          0.594              1.981              5.293
 Vibration     2          0.597              1.971              4.283
 Vibration     3          0.599              1.964              3.955
 Vibration     4          0.612              1.924              2.954
 Vibration     5          0.626              1.877              2.418
 Vibration     6          0.647              1.809              1.953
 Vibration     7          0.664              1.758              1.712
 Vibration     8          0.675              1.725              1.584
 Vibration     9          0.709              1.627              1.290
 Vibration    10          0.775              1.446              0.923
 Vibration    11          0.786              1.418              0.879
 Vibration    12          0.804              1.374              0.814
 Vibration    13          0.861              1.238              0.645
 Vibration    14          0.899              1.153              0.557
 Vibration    15          0.979              0.992              0.418

 Optimization completed.
    -- Stationary point found.

 1\1\GINC-NODE209\Freq\RB3LYP\6-31G(d)\C9H13N3\VSC10255\09-Dec-2020\0\\
 #N Geom=AllCheck Guess=TCheck SCRF=Check GenChk RB3LYP/6-31G(d) Freq\\
 CID_142909381_JID_2995_neutraal\\0,1\C,0.0347605837,0.8055987245,0.083
 4165321\C,-0.7467018072,-0.2552778989,-0.6525155514\C,0.721673604,-0.4
 573227969,-0.3740467797\C,1.7122796418,-0.3878276744,-1.5191731562\N,3
 .0351301878,0.090374406,-1.1353535286\C,3.8931225003,-0.6748635008,-0.
 3621111126\C,3.737685833,-2.0758977256,-0.2252103476\C,4.6689069531,-2
 .772043498,0.5270527802\C,5.7278455905,-2.0880022891,1.1353072816\C,5.

 Normal termination of Gaussian 16 at Wed Dec  9 18:26:50 2020.

 ----------------------------------------------------------------------
 # B3LYP/6-311++G(d,p) empiricaldispersion=gd3bj scf=xqc pop=npa geom=c
 heck
 ----------------------------------------------------------------------

 ---------------------------------------
 CID_142909381_JID_2995_Energie_neutraal
 ---------------------------------------
 Structure from the checkpoint file:  "JID_2995.chk"
 Charge =  0 Multiplicity = 1

 SCF Done:  E(RB3LYP) =  -515.159273343     A.U. after   14 cycles
 Normal termination of Gaussian 16 at Wed Dec  9 18:29:00 2020.

 ----------------------------------------------------------------------
 # B3LYP/6-311++G(d,p) empiricaldispersion=gd3bj scf=xqc pop=npa geom=c
 heck
 ----------------------------------------------------------------------

 -------------------------------------
 CID_142909381_JID_2995_Energie_kation
 -------------------------------------
 Structure from the checkpoint file:  "JID_2995.chk"
 Charge =  1 Multiplicity = 2

 SCF Done:  E(UB3LYP) =  -514.880748022     A.U. after   20 cycles
 Normal termination of Gaussian 16 at Wed Dec  9 18:33:14 2020.
 Gaussian 16:  ES64L-G16RevA.03 25-Dec-2016

 ------------------------------------
 CID_142909381_JID_2995_Energie_anion
 ------------------------------------
 Structure from the checkpoint file:  "JID_2995.chk"
 Charge = -1 Multiplicity = 2

                         Standard orientation:
 ---------------------------------------------------------------------
 Center     Atomic      Atomic             Coordinates (Angstroms)
 Number     Number       Type             X           Y           Z
 ---------------------------------------------------------------------
      1          6           0       -3.032043    0.098273    1.100687
      2          6           0       -3.588388   -1.016074    0.248366
      3          6           0       -2.110181   -0.717728    0.228675
      4          6           0       -1.496750   -0.078669   -1.001264
      5          7           0       -0.342790    0.767426   -0.721213
      6          6           0        0.872200    0.236864   -0.318786
      7          6           0        1.206866   -1.123467   -0.526868
      8          6           0        2.462120   -1.560392   -0.138123
      9          6           0        3.362188   -0.664768    0.450920
     10          6           0        2.934697    0.646155    0.621269
     11          7           0        1.729063    1.099640    0.256782
     12          7           0       -0.691491    2.069304   -0.277601
     13          1           0       -2.988025   -0.049970    2.175970
     14          1           0       -3.227084    1.122034    0.795516
     15          1           0       -3.924876   -1.925587    0.737640
     16          1           0       -4.171973   -0.743268   -0.627714
     17          1           0       -1.463241   -1.427767    0.740101
     18          1           0       -1.205239   -0.842732   -1.730722
     19          1           0       -2.230541    0.567152   -1.489613
     20          1           0        0.503585   -1.812435   -0.977531
     21          1           0        2.738595   -2.600492   -0.289573
     22          1           0        4.351430   -0.975406    0.769028
     23          1           0        3.590900    1.384454    1.080278
     24          1           0       -0.485236    2.123144    0.723746
     25          1           0       -0.016022    2.705116   -0.702157
 ---------------------------------------------------------------------

 SCF Done:  E(UB3LYP) =  -515.142511163     A.U. after   33 cycles
 SCF Done:  E(UB3LYP) =  -515.142511163     a.u. after    1 cycles

 The electronic state is 2-A.
 Alpha  occ. eigenvalues --  -14.25238 -14.22948 -14.19894 -10.14093 -10.10413
 Alpha  occ. eigenvalues --  -10.10110 -10.08099 -10.07958 -10.07548 -10.07319
 Alpha  occ. eigenvalues --  -10.07095 -10.06524  -0.90623  -0.82888  -0.76604
 Alpha  occ. eigenvalues --   -0.71854  -0.69482  -0.65247  -0.58813  -0.52642
 Alpha  occ. eigenvalues --   -0.51315  -0.50501  -0.47471  -0.43989  -0.41124
 Alpha  occ. eigenvalues --   -0.40817  -0.39240  -0.37780  -0.36445  -0.34455
 Alpha  occ. eigenvalues --   -0.33767  -0.30234  -0.29874  -0.29674  -0.27265
 Alpha  occ. eigenvalues --   -0.27155  -0.26865  -0.21179  -0.19571  -0.19383
 Alpha  occ. eigenvalues --   -0.18169  -0.17949  -0.15797  -0.10917   0.04697
 Alpha virt. eigenvalues --    0.06683   0.07312   0.07406   0.08024   0.08389
 Alpha virt. eigenvalues --    0.08917   0.09720   0.10165   0.10541   0.11300
 Alpha virt. eigenvalues --    0.11645   0.12257   0.13183   0.14417   0.14898

  Beta  occ. eigenvalues --  -14.25235 -14.22933 -14.19878 -10.14096 -10.10395
  Beta  occ. eigenvalues --  -10.10083 -10.08058 -10.07952 -10.07524 -10.07306
  Beta  occ. eigenvalues --  -10.07067 -10.06515  -0.90604  -0.82851  -0.76584
  Beta  occ. eigenvalues --   -0.71823  -0.69417  -0.65204  -0.58777  -0.52566
  Beta  occ. eigenvalues --   -0.51278  -0.50438  -0.47428  -0.43941  -0.41085
  Beta  occ. eigenvalues --   -0.40792  -0.39187  -0.37723  -0.36407  -0.34404
  Beta  occ. eigenvalues --   -0.33737  -0.30170  -0.29813  -0.29641  -0.27226
  Beta  occ. eigenvalues --   -0.27122  -0.26829  -0.21145  -0.19548  -0.19335
  Beta  occ. eigenvalues --   -0.18142  -0.17844  -0.15771  -0.10869
  Beta virt. eigenvalues --    0.06879   0.07520   0.07617   0.08114   0.08573
  Beta virt. eigenvalues --    0.08996   0.09525   0.09779   0.10652   0.11038
  Beta virt. eigenvalues --    0.11687   0.12015   0.12501   0.13495   0.14465

 Mulliken charges and spin densities:
               1          2
     1  C   -0.011208  -0.444927
     2  C    0.907913  -1.336164
     3  C   -1.653554   2.001381
     4  C    1.485109  -2.162856
     5  N    0.245584   0.068130
     6  C    0.021138  -0.834698
     7  C   -0.592421   1.386915
     8  C    0.924766  -1.459922
     9  C    1.521983  -1.576379
    10  C   -0.627284   0.358465
    11  N   -0.320316   0.144565
    12  N   -0.361748  -0.025402
    13  H   -0.123854   0.267511
    14  H    0.101184   0.060433
    15  H   -0.413615   0.564392
    16  H   -0.044695   0.155562
    17  H    0.020580   0.185657
    18  H   -0.187235   0.367302
    19  H   -0.037565   0.221436
    20  H   -0.384104   0.560280
    21  H   -1.006349   1.202994
    22  H   -0.474932   0.637160
    23  H   -0.280854   0.461279
    24  H    0.108186   0.119768
    25  H    0.183290   0.077117
 Sum of Mulliken charges =  -1.00000   1.00000

 Dipole moment (field-independent basis, Debye):
    X=             -2.4368    Y=              5.2498    Z=             -0.3187  Tot=              5.7965
 Quadrupole moment (field-independent basis, Debye-Ang):
   XX=           -146.0482   YY=           -118.9804   ZZ=           -102.5046
   XY=              4.0058   XZ=              0.7543   YZ=             -0.7442

 Summary of Natural Population Analysis:

                                       Natural Population
                Natural  -----------------------------------------------
    Atom  No    Charge         Core      Valence    Rydberg      Total
 -----------------------------------------------------------------------
      C    1   -0.19908      0.99962     2.19128    0.00818     3.19908
      C    2   -0.19744      0.99962     2.18834    0.00948     3.19744
      C    3   -0.12745      0.99958     2.11718    0.01068     3.12745
      C    4   -0.08341      0.99958     2.07069    0.01313     3.08341
      N    5   -0.16707      0.99963     2.65373    0.01371     3.66707
      C    6    0.19837      0.99951     1.78580    0.01632     2.80163
      C    7   -0.13991      0.99952     2.13115    0.00924     3.13991
      C    8   -0.06895      0.99957     2.05796    0.01142     3.06895
      C    9   -0.14747      0.99955     2.13711    0.01081     3.14747
      C   10    0.03904      0.99958     1.94740    0.01399     2.96096
      N   11   -0.27190      0.99968     2.76069    0.01154     3.77190
      N   12   -0.31551      0.99977     2.80592    0.00982     3.81551
      H   13    0.10208      0.00000     0.39698    0.00094     0.39792
      H   14    0.10452      0.00000     0.39429    0.00119     0.39548
      H   15    0.10469      0.00000     0.39390    0.00140     0.39531
      H   16    0.09935      0.00000     0.39966    0.00099     0.40065
      H   17    0.10750      0.00000     0.39079    0.00171     0.39250
      H   18    0.10169      0.00000     0.39653    0.00177     0.39831
      H   19    0.10353      0.00000     0.39485    0.00162     0.39647
      H   20    0.10845      0.00000     0.38896    0.00259     0.39155
      H   21    0.10564      0.00000     0.39081    0.00355     0.39436
      H   22    0.10544      0.00000     0.39268    0.00188     0.39456
      H   23    0.08798      0.00000     0.41069    0.00133     0.41202
      H   24    0.17294      0.00000     0.32480    0.00226     0.32706
      H   25    0.17697      0.00000     0.32072    0.00231     0.32303
 =======================================================================
   * Total *   -0.00000     11.99522    31.84292    0.16186    44.00000

 Normal termination of Gaussian 16 at Wed Dec  9 18:40:07 2020.
