 Gaussian 16, Revision A.03,

 -----------------------------------------------------------
 # opt freq B3LYP/6-31G(d) empiricaldispersion=gd3bj scf=xqc
 -----------------------------------------------------------

 -------------------------------
 CID_113638618_JID_8506_neutraal
 -------------------------------
 Symbolic Z-matrix:
 Charge =  0 Multiplicity = 1

 SCF Done:  E(RB3LYP) =  -784.676382061     A.U. after   15 cycles
 SCF Done:  E(RB3LYP) =  -784.680514961     A.U. after   13 cycles
 SCF Done:  E(RB3LYP) =  -784.680033283     A.U. after   12 cycles
 SCF Done:  E(RB3LYP) =  -784.681611047     A.U. after   12 cycles
 SCF Done:  E(RB3LYP) =  -784.682061499     A.U. after   12 cycles
 SCF Done:  E(RB3LYP) =  -784.682300493     A.U. after   11 cycles
 SCF Done:  E(RB3LYP) =  -784.682385538     A.U. after   11 cycles
 SCF Done:  E(RB3LYP) =  -784.682413948     A.U. after   10 cycles
 SCF Done:  E(RB3LYP) =  -784.682446488     A.U. after   10 cycles
 SCF Done:  E(RB3LYP) =  -784.682480383     A.U. after   11 cycles
 SCF Done:  E(RB3LYP) =  -784.682582245     A.U. after   10 cycles
 SCF Done:  E(RB3LYP) =  -784.682591547     A.U. after    9 cycles
 SCF Done:  E(RB3LYP) =  -784.682600794     A.U. after   10 cycles
 SCF Done:  E(RB3LYP) =  -784.682607727     A.U. after   10 cycles
 SCF Done:  E(RB3LYP) =  -784.682609094     A.U. after    9 cycles
 Optimization completed.
    -- Stationary point found.
 Normal termination of Gaussian 16 at Fri Dec 11 20:56:00 2020.

 --------------------------------------------------------------------
 #N Geom=AllCheck Guess=TCheck SCRF=Check GenChk RB3LYP/6-31G(d) Freq
 --------------------------------------------------------------------

 Structure from the checkpoint file:  "JID_8506.chk"
 -------------------------------
 CID_113638618_JID_8506_neutraal
 -------------------------------
 Charge =  0 Multiplicity = 1

 SCF Done:  E(RB3LYP) =  -784.682609095     A.U. after    1 cycles

  Exact polarizability: 221.746  -7.190 194.117  16.912   7.421  87.236
 Approx polarizability: 322.072  -8.320 324.902  42.402  20.639 143.590

                      1                      2                      3
                      A                      A                      A
 Frequencies --     43.6915                47.7834                55.8537
 Red. masses --      4.0161                 4.7094                 1.6163
 Frc consts  --      0.0045                 0.0063                 0.0030
 IR Inten    --      2.8055                 0.2240                 0.3421

                      4                      5                      6
                      A                      A                      A
 Frequencies --     62.4300               102.9310               127.0249
 Red. masses --      1.7968                 4.4036                 1.1219
 Frc consts  --      0.0041                 0.0275                 0.0107
 IR Inten    --      0.9610                 0.2037                 0.0443

                      7                      8                      9
                      A                      A                      A
 Frequencies --    144.9612               174.2102               194.4103
 Red. masses --      4.9176                 3.8752                 4.1292
 Frc consts  --      0.0609                 0.0693                 0.0920
 IR Inten    --      1.4886                 2.4209                 3.2507

                     10                     11                     12
                      A                      A                      A
 Frequencies --    247.7179               263.9735               293.9960
 Red. masses --      4.2575                 4.0849                 4.6590
 Frc consts  --      0.1539                 0.1677                 0.2373
 IR Inten    --      2.1121                 1.4296                 6.3790

                     13                     14                     15
                      A                      A                      A
 Frequencies --    324.6354               337.8277               352.4524
 Red. masses --      3.6086                 5.4355                 4.3451
 Frc consts  --      0.2241                 0.3655                 0.3180
 IR Inten    --      1.5231                10.3807                 1.6827

                     16                     17                     18
                      A                      A                      A
 Frequencies --    358.0701               441.8381               457.7921
 Red. masses --      5.4412                 2.8136                 1.4436
 Frc consts  --      0.4110                 0.3236                 0.1783
 IR Inten    --      1.0491                20.1663                71.3784

                     19                     20                     21
                      A                      A                      A
 Frequencies --    460.1415               493.2798               582.9327
 Red. masses --      3.9867                 5.0422                 4.9081
 Frc consts  --      0.4973                 0.7229                 0.9827
 IR Inten    --     11.5719                 1.5400                 4.4591

                     22                     23                     24
                      A                      A                      A
 Frequencies --    601.6196               614.7396               620.7215
 Red. masses --      3.6695                 3.2018                 4.8857
 Frc consts  --      0.7825                 0.7129                 1.1091
 IR Inten    --      2.7633                 0.3066                 5.8995

                     25                     26                     27
                      A                      A                      A
 Frequencies --    636.0999               652.5300               698.7679
 Red. masses --      4.3533                 3.2818                 4.1940
 Frc consts  --      1.0378                 0.8233                 1.2065
 IR Inten    --      6.5744                 3.7604                 1.7759

                     28                     29                     30
                      A                      A                      A
 Frequencies --    751.2843               766.9402               776.9931
 Red. masses --      2.9325                 5.3636                 2.9932
 Frc consts  --      0.9752                 1.8588                 1.0647
 IR Inten    --     23.4089                13.4905                 5.6187

                     31                     32                     33
                      A                      A                      A
 Frequencies --    805.2147               824.4302               831.9306
 Red. masses --      1.6936                 1.4220                 3.7488
 Frc consts  --      0.6470                 0.5695                 1.5287
 IR Inten    --     11.1500                41.2456                 7.1656

                     34                     35                     36
                      A                      A                      A
 Frequencies --    845.7673               858.1698               863.3515
 Red. masses --      1.5200                 1.7586                 1.4500
 Frc consts  --      0.6406                 0.7631                 0.6368
 IR Inten    --      4.5847                 4.1094                 7.1317

                     37                     38                     39
                      A                      A                      A
 Frequencies --    892.1474               935.1425               956.7468
 Red. masses --      7.2974                 3.0518                 2.1633
 Frc consts  --      3.4221                 1.5724                 1.1667
 IR Inten    --    129.9299                24.6461                 0.1304

                     40                     41                     42
                      A                      A                      A
 Frequencies --    964.7448              1017.2026              1034.2599
 Red. masses --      1.4571                 2.1409                 2.9727
 Frc consts  --      0.7990                 1.3051                 1.8735
 IR Inten    --      2.1731                 3.7250                11.4672

                     43                     44                     45
                      A                      A                      A
 Frequencies --   1035.2394              1074.2961              1081.7963
 Red. masses --      1.4858                 1.4923                 1.4576
 Frc consts  --      0.9382                 1.0147                 1.0050
 IR Inten    --      6.2405                 4.3483                 2.3247

                     46                     47                     48
                      A                      A                      A
 Frequencies --   1097.4677              1123.0996              1168.6086
 Red. masses --      3.7267                 1.4094                 1.8825
 Frc consts  --      2.6446                 1.0474                 1.5147
 IR Inten    --     25.8185                65.1078               113.9001

                     49                     50                     51
                      A                      A                      A
 Frequencies --   1182.4356              1189.7880              1202.1783
 Red. masses --      1.4917                 2.3223                 1.7956
 Frc consts  --      1.2288                 1.9369                 1.5289
 IR Inten    --      0.8125                21.0221                 1.2138

                     52                     53                     54
                      A                      A                      A
 Frequencies --   1239.3652              1276.1880              1285.2846
 Red. masses --      2.0965                 2.3287                 2.2193
 Frc consts  --      1.8973                 2.2346                 2.1601
 IR Inten    --      6.0484                22.5884                13.6046

                     55                     56                     57
                      A                      A                      A
 Frequencies --   1320.8718              1352.1999              1380.0279
 Red. masses --      4.1585                 2.1959                 3.9592
 Frc consts  --      4.2747                 2.3656                 4.4425
 IR Inten    --      8.1519                26.3749                 4.9654

                     58                     59                     60
                      A                      A                      A
 Frequencies --   1392.6535              1401.2619              1443.3474
 Red. masses --      5.1566                 5.8120                 1.3738
 Frc consts  --      5.8925                 6.7238                 1.6862
 IR Inten    --     41.2619                34.6525                13.7246

                     61                     62                     63
                      A                      A                      A
 Frequencies --   1443.7996              1445.4538              1495.7611
 Red. masses --      2.3633                 1.2973                 2.9318
 Frc consts  --      2.9026                 1.5970                 3.8647
 IR Inten    --     39.2644                 2.0876                29.5523

                     64                     65                     66
                      A                      A                      A
 Frequencies --   1502.8210              1513.8959              1519.2336
 Red. masses --      1.0429                 1.0446                 1.1184
 Frc consts  --      1.3878                 1.4106                 1.5209
 IR Inten    --      6.2861                 5.1361                16.4578

                     67                     68                     69
                      A                      A                      A
 Frequencies --   1523.6639              1554.0032              1575.3092
 Red. masses --      1.1826                 3.4282                 3.9109
 Frc consts  --      1.6176                 4.8778                 5.7182
 IR Inten    --     25.2541                47.8262               139.3500

                     70                     71                     72
                      A                      A                      A
 Frequencies --   1589.3841              1620.3455              1658.9927
 Red. masses --      5.1423                 5.6687                 6.7816
 Frc consts  --      7.6535                 8.7690                10.9969
 IR Inten    --    245.1904                 1.9731                 3.0494

                     73                     74                     75
                      A                      A                      A
 Frequencies --   1687.8351              1715.8961              3041.5371
 Red. masses --      6.3312                12.0162                 1.0374
 Frc consts  --     10.6266                20.8449                 5.6545
 IR Inten    --      6.3086               222.7180                44.3992

                     76                     77                     78
                      A                      A                      A
 Frequencies --   3047.1264              3092.7574              3097.7940
 Red. masses --      1.0380                 1.1007                 1.1017
 Frc consts  --      5.6782                 6.2031                 6.2289
 IR Inten    --     34.9689                21.7790                15.3913

                     79                     80                     81
                      A                      A                      A
 Frequencies --   3123.4265              3143.8607              3180.2082
 Red. masses --      1.1010                 1.0996                 1.0890
 Frc consts  --      6.3283                 6.4033                 6.4889
 IR Inten    --     18.7495                10.4309                17.7088

                     82                     83                     84
                      A                      A                      A
 Frequencies --   3182.8666              3226.3968              3285.1244
 Red. masses --      1.0906                 1.0922                 1.0967
 Frc consts  --      6.5095                 6.6988                 6.9734
 IR Inten    --     17.7301                 7.5672                 1.4123

                     85                     86                     87
                      A                      A                      A
 Frequencies --   3291.9299              3311.8562              3662.4707
 Red. masses --      1.0970                 1.0985                 1.0801
 Frc consts  --      7.0045                 7.0988                 8.5363
 IR Inten    --      1.4925                 0.8955                75.9691

 - Thermochemistry -
 -------------------
 Temperature   298.150 Kelvin.  Pressure   1.00000 Atm.
 Atom     1 has atomic number  6 and mass  12.00000

 Molecular mass:   239.09463 amu.
 Principal axes and moments of inertia in atomic units:
                           1         2         3
     Eigenvalues --  2666.878126548.076648770.75466
           X            0.99999   0.00126  -0.00369
           Y           -0.00126   1.00000  -0.00028
           Z            0.00369   0.00029   0.99999
 This molecule is an asymmetric top.
 Rotational symmetry number  1.
 Warning -- assumption of classical behavior for rotation
           may cause significant error
 Rotational temperatures (Kelvin)      0.03248     0.01323     0.00988
 Rotational constants (GHZ):           0.67672     0.27561     0.20577
 Zero-point vibrational energy     647757.6 (Joules/Mol)
                                  154.81779 (Kcal/Mol)
 Warning -- explicit consideration of  24 degrees of freedom as
           vibrations may cause significant error
 Vibrational temperatures:     62.86    68.75    80.36    89.82   148.09
          (Kelvin)            182.76   208.57   250.65   279.71   356.41
                              379.80   422.99   467.08   486.06   507.10
                              515.18   635.71   658.66   662.04   709.72
                              838.71   865.60   884.47   893.08   915.21
                              938.85  1005.37  1080.93  1103.46  1117.92
                             1158.52  1186.17  1196.96  1216.87  1234.71
                             1242.17  1283.60  1345.46  1376.55  1388.05
                             1463.53  1488.07  1489.48  1545.67  1556.46
                             1579.01  1615.89  1681.37  1701.26  1711.84
                             1729.67  1783.17  1836.15  1849.24  1900.44
                             1945.51  1985.55  2003.72  2016.10  2076.66
                             2077.31  2079.69  2152.07  2162.22  2178.16
                             2185.84  2192.21  2235.86  2266.52  2286.77
                             2331.32  2386.92  2428.42  2468.79  4376.09
                             4384.14  4449.79  4457.03  4493.91  4523.31
                             4575.61  4579.44  4642.07  4726.56  4736.35
                             4765.02  5269.48

 Zero-point correction=                           0.246718 (Hartree/Particle)
 Thermal correction to Energy=                    0.262279
 Thermal correction to Enthalpy=                  0.263223
 Thermal correction to Gibbs Free Energy=         0.202798
 Sum of electronic and zero-point Energies=           -784.435891
 Sum of electronic and thermal Energies=              -784.420330
 Sum of electronic and thermal Enthalpies=            -784.419386
 Sum of electronic and thermal Free Energies=         -784.479811

                     E (Thermal)             CV                S
                      KCal/Mol        Cal/Mol-Kelvin    Cal/Mol-Kelvin
 Total                  164.583             59.619            127.175
 Electronic               0.000              0.000              0.000
 Translational            0.889              2.981             42.316
 Rotational               0.889              2.981             33.393
 Vibrational            162.805             53.657             51.466
 Vibration     1          0.595              1.980              5.084
 Vibration     2          0.595              1.978              4.907
 Vibration     3          0.596              1.975              4.599
 Vibration     4          0.597              1.972              4.379
 Vibration     5          0.605              1.947              3.398
 Vibration     6          0.611              1.926              2.991
 Vibration     7          0.616              1.908              2.737
 Vibration     8          0.627              1.874              2.390
 Vibration     9          0.635              1.848              2.185
 Vibration    10          0.661              1.767              1.747
 Vibration    11          0.671              1.739              1.635
 Vibration    12          0.689              1.685              1.451
 Vibration    13          0.709              1.626              1.287
 Vibration    14          0.718              1.600              1.222
 Vibration    15          0.729              1.570              1.155
 Vibration    16          0.733              1.559              1.130
 Vibration    17          0.802              1.379              0.821
 Vibration    18          0.816              1.344              0.773
 Vibration    19          0.818              1.338              0.766
 Vibration    20          0.849              1.265              0.675
 Vibration    21          0.940              1.068              0.480
 Vibration    22          0.960              1.028              0.447
 Vibration    23          0.974              1.001              0.425
 Vibration    24          0.981              0.988              0.415

                           ! Non-Optimized Parameters !
 Normal termination of Gaussian 16 at Fri Dec 11 21:06:27 2020.

 ----------------------------------------------------------------------
 # B3LYP/6-311++G(d,p) empiricaldispersion=gd3bj scf=xqc pop=npa geom=c
 heck
 ----------------------------------------------------------------------

 ---------------------------------------
 CID_113638618_JID_8506_Energie_neutraal
 ---------------------------------------
 Structure from the checkpoint file:  "JID_8506.chk"
 Charge =  0 Multiplicity = 1

 SCF Done:  E(RB3LYP) =  -784.890361518     A.U. after   16 cycles
 Normal termination of Gaussian 16 at Fri Dec 11 21:10:57 2020.

 ----------------------------------------------------------------------
 # B3LYP/6-311++G(d,p) empiricaldispersion=gd3bj scf=xqc pop=npa geom=c
 heck
 ----------------------------------------------------------------------

 -------------------------------------
 CID_113638618_JID_8506_Energie_kation
 -------------------------------------
 Structure from the checkpoint file:  "JID_8506.chk"
 Charge =  1 Multiplicity = 2

 SCF Done:  E(UB3LYP) =  -784.610232705     A.U. after   31 cycles
 Normal termination of Gaussian 16 at Fri Dec 11 21:22:48 2020.
 Gaussian 16:  ES64L-G16RevA.03 25-Dec-2016

 ----------------------------------------------------------------------
 # B3LYP/6-311++G(d,p) empiricaldispersion=gd3bj scf=xqc pop=npa geom=c
 heck
 ----------------------------------------------------------------------

 ------------------------------------
 CID_113638618_JID_8506_Energie_anion
 ------------------------------------
 Structure from the checkpoint file:  "JID_8506.chk"
 Charge = -1 Multiplicity = 2

                         Standard orientation:
 ---------------------------------------------------------------------
 Center     Atomic      Atomic             Coordinates (Angstroms)
 Number     Number       Type             X           Y           Z
 ---------------------------------------------------------------------
      1          6           0        4.538014   -2.261610   -0.232363
      2          6           0        3.361488   -1.316987   -0.188050
      3          6           0        3.510874   -0.010976    0.268642
      4          6           0        2.385609    0.816016    0.293579
      5          6           0        1.094486    0.381263   -0.108910
      6          6           0        0.971427   -0.932688   -0.595777
      7          6           0        2.088481   -1.754342   -0.622587
      8          6           0        0.207599    1.521610    0.036014
      9          6           0        0.986169    2.569715    0.486803
     10          7           0        2.276841    2.149319    0.658234
     11          6           0       -1.229172    1.703180   -0.231889
     12          8           0       -1.682621    2.818658   -0.494864
     13          6           0       -2.138603    0.540143   -0.141725
     14          6           0       -3.379520    0.502454   -0.715935
     15          8           0       -4.007904   -0.662290   -0.422826
     16          6           0       -3.163867   -1.396429    0.383758
     17          6           0       -2.009443   -0.703713    0.579452
     18          6           0       -3.669628   -2.714225    0.849877
     19          1           0        4.691396   -2.661250   -1.242230
     20          1           0        5.463119   -1.763800    0.074605
     21          1           0        4.385467   -3.121074    0.432630
     22          1           0        4.482768    0.356318    0.588934
     23          1           0        0.016437   -1.300104   -0.953289
     24          1           0        1.988435   -2.770078   -0.997510
     25          1           0        0.680578    3.581850    0.706614
     26          1           0        3.034862    2.722017    0.996441
     27          1           0       -3.913376    1.202578   -1.338575
     28          1           0       -1.169124   -1.019756    1.179092
     29          1           0       -4.586821   -2.606615    1.441578
     30          1           0       -3.897180   -3.377849    0.006801
     31          1           0       -2.913741   -3.198882    1.473448
 ---------------------------------------------------------------------

 SCF Done:  E(UB3LYP) =  -784.890741244     A.U. after   33 cycles
 SCF Done:  E(UB3LYP) =  -784.891951666     a.u. after   10 cycles

 The electronic state is 2-A.
 Alpha  occ. eigenvalues --  -19.06467 -18.92825 -14.23676 -10.11212 -10.08966
 Alpha  occ. eigenvalues --  -10.08643 -10.08555 -10.08404 -10.07346 -10.07053
 Alpha  occ. eigenvalues --  -10.06882 -10.06072 -10.05613 -10.05516 -10.05359
 Alpha  occ. eigenvalues --  -10.05212 -10.03989 -10.03250  -0.99108  -0.86837
 Alpha  occ. eigenvalues --   -0.85979  -0.73672  -0.68884  -0.67649  -0.66797
 Alpha  occ. eigenvalues --   -0.63925  -0.62397  -0.58215  -0.57137  -0.52784
 Alpha  occ. eigenvalues --   -0.50979  -0.47925  -0.46516  -0.43511  -0.42825
 Alpha  occ. eigenvalues --   -0.41481  -0.37874  -0.36413  -0.35630  -0.35373
 Alpha  occ. eigenvalues --   -0.33185  -0.32589  -0.32279  -0.31810  -0.30799
 Alpha  occ. eigenvalues --   -0.30668  -0.30464  -0.29421  -0.28685  -0.28653
 Alpha  occ. eigenvalues --   -0.27539  -0.26194  -0.25394  -0.24337  -0.22879
 Alpha  occ. eigenvalues --   -0.22699  -0.21944  -0.16367  -0.15319  -0.11512
 Alpha  occ. eigenvalues --   -0.11016  -0.09851  -0.08682   0.04357
 Alpha virt. eigenvalues --    0.06188   0.06928   0.07267   0.09007   0.09086
 Alpha virt. eigenvalues --    0.09958   0.10025   0.10429   0.10557   0.11355
 Alpha virt. eigenvalues --    0.11848   0.12390   0.12643   0.12839   0.13064

  Beta  occ. eigenvalues --  -19.06358 -18.92448 -14.23601 -10.11249 -10.08983
  Beta  occ. eigenvalues --  -10.08641 -10.08294 -10.08093 -10.07339 -10.07081
  Beta  occ. eigenvalues --  -10.06602 -10.06020 -10.05603 -10.05496 -10.05323
  Beta  occ. eigenvalues --  -10.05195 -10.04042 -10.03310  -0.98904  -0.86352
  Beta  occ. eigenvalues --   -0.85564  -0.73627  -0.68833  -0.67565  -0.66698
  Beta  occ. eigenvalues --   -0.63782  -0.62323  -0.58009  -0.56963  -0.52229
  Beta  occ. eigenvalues --   -0.50788  -0.47818  -0.46434  -0.43347  -0.42726
  Beta  occ. eigenvalues --   -0.41327  -0.37699  -0.36270  -0.35457  -0.35236
  Beta  occ. eigenvalues --   -0.33085  -0.32567  -0.32201  -0.31746  -0.30624
  Beta  occ. eigenvalues --   -0.30419  -0.30126  -0.29235  -0.28614  -0.28511
  Beta  occ. eigenvalues --   -0.27418  -0.26014  -0.24863  -0.24205  -0.22603
  Beta  occ. eigenvalues --   -0.21897  -0.21407  -0.16196  -0.14744  -0.11206
  Beta  occ. eigenvalues --   -0.10281  -0.09398  -0.08004
  Beta virt. eigenvalues --    0.06600   0.07029   0.07928   0.09023   0.09210
  Beta virt. eigenvalues --    0.09523   0.10094   0.10292   0.10563   0.10666
  Beta virt. eigenvalues --    0.11384   0.12041   0.12452   0.12645   0.13135

 Mulliken charges and spin densities:
               1          2
     1  C    0.198425  -0.670209
     2  C    0.291312   0.265868
     3  C   -0.966949   0.116512
     4  C    0.204117  -0.707465
     5  C    1.259994  -0.435461
     6  C   -0.828605   0.083110
     7  C   -0.846570   0.320067
     8  C    1.397149  -0.411851
     9  C   -0.191474   0.482301
    10  N   -0.174855   0.098699
    11  C   -1.842304   0.304818
    12  O   -0.374950   0.144226
    13  C    0.587934  -0.116736
    14  C    0.060429   0.230672
    15  O   -0.028942   0.014881
    16  C   -0.458446  -0.041301
    17  C    0.566556   0.009624
    18  C   -0.676611   0.000545
    19  H    0.113074   0.022610
    20  H    0.025188   0.114140
    21  H    0.140876   0.001339
    22  H   -0.432279   0.553640
    23  H    0.194957   0.005199
    24  H    0.115990   0.010518
    25  H    0.041454   0.125853
    26  H   -0.192533   0.494718
    27  H    0.189163  -0.015523
    28  H    0.195106   0.001669
    29  H    0.138286  -0.000789
    30  H    0.146522  -0.001620
    31  H    0.147987  -0.000052
 Sum of Mulliken charges =  -1.00000   1.00000

 Dipole moment (field-independent basis, Debye):
    X=             -0.5481    Y=             -7.1217    Z=              0.3257  Tot=              7.1501
 Quadrupole moment (field-independent basis, Debye-Ang):
   XX=           -160.9004   YY=           -137.1592   ZZ=           -119.5151
   XY=              4.4088   XZ=             -6.9042   YZ=             -0.9396

 Summary of Natural Population Analysis:

                                       Natural Population
                Natural  -----------------------------------------------
    Atom  No    Charge         Core      Valence    Rydberg      Total
 -----------------------------------------------------------------------
      C    1   -0.28829      0.99964     2.28386    0.00479     3.28829
      C    2   -0.03799      0.99953     2.02906    0.00940     3.03799
      C    3   -0.11156      0.99947     2.10296    0.00913     3.11156
      C    4    0.07363      0.99948     1.91528    0.01161     2.92637
      C    5   -0.03659      0.99947     2.02769    0.00943     3.03659
      C    6   -0.09462      0.99954     2.08727    0.00781     3.09462
      C    7   -0.11180      0.99953     2.10374    0.00853     3.11180
      C    8   -0.11271      0.99947     2.10166    0.01158     3.11271
      C    9    0.08429      0.99954     1.90288    0.01330     2.91571
      N   10   -0.26281      0.99966     2.75426    0.00890     3.76281
      C   11    0.29636      0.99955     1.68556    0.01853     2.70364
      O   12   -0.27275      0.99989     3.26749    0.00537     4.27275
      C   13   -0.11100      0.99950     2.10199    0.00952     3.11100
      C   14    0.13714      0.99948     1.85007    0.01331     2.86286
      O   15   -0.23657      0.99986     3.22823    0.00848     4.23657
      C   16    0.12369      0.99949     1.86405    0.01277     2.87631
      C   17   -0.13803      0.99947     2.13161    0.00695     3.13803
      C   18   -0.30194      0.99963     2.29807    0.00424     3.30194
      H   19    0.09778      0.00000     0.40110    0.00112     0.40222
      H   20    0.09937      0.00000     0.39984    0.00079     0.40063
      H   21    0.09764      0.00000     0.40119    0.00117     0.40236
      H   22    0.09860      0.00000     0.40018    0.00123     0.40140
      H   23    0.10558      0.00000     0.39309    0.00133     0.39442
      H   24    0.09159      0.00000     0.40732    0.00108     0.40841
      H   25    0.10212      0.00000     0.39687    0.00101     0.39788
      H   26    0.19880      0.00000     0.29616    0.00504     0.30120
      H   27    0.09357      0.00000     0.40540    0.00103     0.40643
      H   28    0.11175      0.00000     0.38747    0.00079     0.38825
      H   29    0.09987      0.00000     0.39888    0.00125     0.40013
      H   30    0.10007      0.00000     0.39875    0.00117     0.39993
      H   31    0.10482      0.00000     0.39447    0.00070     0.39518
 =======================================================================
   * Total *   -0.00000     17.99218    44.81647    0.19136    63.00000

 Normal termination of Gaussian 16 at Fri Dec 11 23:05:19 2020.
