 Gaussian 16, Revision A.03,

 -----------------------------------------------------------
 # opt freq B3LYP/6-31G(d) empiricaldispersion=gd3bj scf=xqc
 -----------------------------------------------------------

 -------------------------------
 CID_17152239_JID_10184_neutraal
 -------------------------------
 Symbolic Z-matrix:
 Charge =  0 Multiplicity = 1

 SCF Done:  E(RB3LYP) =  -892.713025933     A.U. after   15 cycles
 SCF Done:  E(RB3LYP) =  -892.721341380     A.U. after   13 cycles
 SCF Done:  E(RB3LYP) =  -892.722138656     A.U. after   12 cycles
 SCF Done:  E(RB3LYP) =  -892.722840572     A.U. after   12 cycles
 SCF Done:  E(RB3LYP) =  -892.722832672     A.U. after   12 cycles
 SCF Done:  E(RB3LYP) =  -892.723027618     A.U. after   11 cycles
 SCF Done:  E(RB3LYP) =  -892.723089639     A.U. after   11 cycles
 SCF Done:  E(RB3LYP) =  -892.723105589     A.U. after   11 cycles
 SCF Done:  E(RB3LYP) =  -892.723112565     A.U. after    9 cycles
 SCF Done:  E(RB3LYP) =  -892.723114860     A.U. after   10 cycles
 SCF Done:  E(RB3LYP) =  -892.723119352     A.U. after   11 cycles
 SCF Done:  E(RB3LYP) =  -892.723120310     A.U. after    9 cycles
 SCF Done:  E(RB3LYP) =  -892.723120425     A.U. after    8 cycles
 SCF Done:  E(RB3LYP) =  -892.723120504     A.U. after    7 cycles
 SCF Done:  E(RB3LYP) =  -892.723120529     A.U. after    6 cycles
 Optimization completed.
    -- Stationary point found.
 Normal termination of Gaussian 16 at Mon Dec 14 17:37:39 2020.

 --------------------------------------------------------------------
 #N Geom=AllCheck Guess=TCheck SCRF=Check GenChk RB3LYP/6-31G(d) Freq
 --------------------------------------------------------------------

 Structure from the checkpoint file:  "JID_10184.chk"
 -------------------------------
 CID_17152239_JID_10184_neutraal
 -------------------------------
 Charge =  0 Multiplicity = 1

 SCF Done:  E(RB3LYP) =  -892.723120529     A.U. after    1 cycles

  Exact polarizability: 208.021  20.558 164.176   7.938 -18.309 140.086
 Approx polarizability: 272.885  34.266 278.926  15.631 -37.409 234.135

                      1                      2                      3
                      A                      A                      A
 Frequencies --     12.0174                27.0743                47.7488
 Red. masses --      4.0016                 6.6475                 7.4648
 Frc consts  --      0.0003                 0.0029                 0.0100
 IR Inten    --      0.2772                 0.2953                 3.5616

                      4                      5                      6
                      A                      A                      A
 Frequencies --     58.1161                75.1453                98.2663
 Red. masses --      4.0802                 7.5886                 4.3166
 Frc consts  --      0.0081                 0.0252                 0.0246
 IR Inten    --      1.3435                 4.7178                 0.3701

                      7                      8                      9
                      A                      A                      A
 Frequencies --    115.4679               127.9510               181.3450
 Red. masses --      3.9924                 4.8613                 4.0662
 Frc consts  --      0.0314                 0.0469                 0.0788
 IR Inten    --      0.7913                 6.1701                 0.1867

                     10                     11                     12
                      A                      A                      A
 Frequencies --    204.0469               251.6870               259.7170
 Red. masses --      6.2534                 2.0101                 5.1177
 Frc consts  --      0.1534                 0.0750                 0.2034
 IR Inten    --      0.5274                 1.0253                 1.3779

                     13                     14                     15
                      A                      A                      A
 Frequencies --    289.8072               337.1478               390.5089
 Red. masses --      3.4805                 2.7045                 5.9472
 Frc consts  --      0.1722                 0.1811                 0.5344
 IR Inten    --      0.6355                 2.5529                13.0730

                     16                     17                     18
                      A                      A                      A
 Frequencies --    406.8532               410.0650               421.8767
 Red. masses --      3.9535                 2.8540                 3.1853
 Frc consts  --      0.3856                 0.2828                 0.3340
 IR Inten    --      4.2456                 7.4924                 0.4683

                     19                     20                     21
                      A                      A                      A
 Frequencies --    441.2537               478.3801               500.4862
 Red. masses --      3.3136                 3.0090                 5.4765
 Frc consts  --      0.3801                 0.4057                 0.8082
 IR Inten    --      3.1114                 0.7075                14.1941

                     22                     23                     24
                      A                      A                      A
 Frequencies --    537.8874               544.3429               572.3081
 Red. masses --      2.3157                 2.3293                 1.8677
 Frc consts  --      0.3948                 0.4067                 0.3604
 IR Inten    --     30.1867                11.3260                53.9150

                     25                     26                     27
                      A                      A                      A
 Frequencies --    627.8313               634.5639               639.8766
 Red. masses --      3.8614                 6.0118                 3.3770
 Frc consts  --      0.8968                 1.4263                 0.8147
 IR Inten    --     35.6546                 2.3994                27.1784

                     28                     29                     30
                      A                      A                      A
 Frequencies --    689.5552               710.8055               731.2072
 Red. masses --      6.5797                 1.9513                 6.9498
 Frc consts  --      1.8433                 0.5809                 2.1893
 IR Inten    --      6.1658                17.9406                18.0224

                     31                     32                     33
                      A                      A                      A
 Frequencies --    750.0987               775.2392               813.6726
 Red. masses --      3.7178                 1.9000                 1.2647
 Frc consts  --      1.2325                 0.6728                 0.4933
 IR Inten    --      3.1252                36.0021                 1.0023

                     34                     35                     36
                      A                      A                      A
 Frequencies --    829.9298               837.7212               841.5348
 Red. masses --      1.8071                 1.3461                 1.4404
 Frc consts  --      0.7333                 0.5566                 0.6010
 IR Inten    --     21.9352                 6.2664                 5.7297

                     37                     38                     39
                      A                      A                      A
 Frequencies --    849.3187               861.6781               900.1199
 Red. masses --      1.6380                 4.2615                 1.4595
 Frc consts  --      0.6962                 1.8643                 0.6967
 IR Inten    --      1.2349                 3.5663                 3.1419

                     40                     41                     42
                      A                      A                      A
 Frequencies --    924.1649               939.3556               949.6352
 Red. masses --      3.8413                 8.6717                 2.5826
 Frc consts  --      1.9330                 4.5083                 1.3722
 IR Inten    --      4.0772                 2.6299                28.0981

                     43                     44                     45
                      A                      A                      A
 Frequencies --    957.7501               971.2097               984.6943
 Red. masses --      1.3739                 1.7931                 1.2447
 Frc consts  --      0.7425                 0.9965                 0.7111
 IR Inten    --      3.1255                 0.9254                 0.1332

                     46                     47                     48
                      A                      A                      A
 Frequencies --    991.4407              1015.5433              1017.2048
 Red. masses --      6.0858                 2.2240                 2.8452
 Frc consts  --      3.5245                 1.3514                 1.7345
 IR Inten    --      6.4313                 2.1114                 0.6219

                     49                     50                     51
                      A                      A                      A
 Frequencies --   1050.6672              1062.4356              1069.3827
 Red. masses --      2.3109                 2.4815                 1.8760
 Frc consts  --      1.5030                 1.6503                 1.2640
 IR Inten    --     38.8442                 0.9939                 9.4815

                     52                     53                     54
                      A                      A                      A
 Frequencies --   1083.6944              1115.2142              1120.2028
 Red. masses --      2.5617                 2.7302                 1.7137
 Frc consts  --      1.7725                 2.0006                 1.2670
 IR Inten    --     55.9777                 2.4878                 3.4609

                     55                     56                     57
                      A                      A                      A
 Frequencies --   1143.8780              1190.0477              1193.9607
 Red. masses --      2.4020                 1.8688                 1.0851
 Frc consts  --      1.8517                 1.5593                 0.9114
 IR Inten    --     22.0002                25.6945                 0.8613

                     58                     59                     60
                      A                      A                      A
 Frequencies --   1212.5623              1220.9778              1222.6408
 Red. masses --      1.6575                 1.1597                 1.2639
 Frc consts  --      1.4358                 1.0186                 1.1132
 IR Inten    --      3.7551                 5.9216                 0.9826

                     61                     62                     63
                      A                      A                      A
 Frequencies --   1228.8169              1251.6924              1289.8742
 Red. masses --      2.2733                 1.7042                 1.4686
 Frc consts  --      2.0224                 1.5731                 1.4396
 IR Inten    --      9.1771                92.6848                20.1173

                     64                     65                     66
                      A                      A                      A
 Frequencies --   1304.9569              1325.0929              1330.4642
 Red. masses --      1.5496                 2.3407                 7.5075
 Frc consts  --      1.5547                 2.4215                 7.8298
 IR Inten    --     81.0447               129.0254                 4.9492

                     67                     68                     69
                      A                      A                      A
 Frequencies --   1346.3044              1351.5724              1355.4177
 Red. masses --      1.6755                 1.9918                 1.8322
 Frc consts  --      1.7893                 2.1438                 1.9832
 IR Inten    --      0.6691                31.9750                27.2492

                     70                     71                     72
                      A                      A                      A
 Frequencies --   1374.1098              1389.4724              1396.0555
 Red. masses --      1.5190                 1.5327                 1.4424
 Frc consts  --      1.6899                 1.7434                 1.6563
 IR Inten    --      0.3724                13.7475                 3.5076

                     73                     74                     75
                      A                      A                      A
 Frequencies --   1400.2946              1416.4048              1432.2178
 Red. masses --      1.3402                 1.4740                 3.0640
 Frc consts  --      1.5483                 1.7423                 3.7030
 IR Inten    --      1.9968                 3.4867                10.2858

                     76                     77                     78
                      A                      A                      A
 Frequencies --   1438.8774              1480.3242              1503.5728
 Red. masses --      1.4971                 1.9849                 2.1767
 Frc consts  --      1.8261                 2.5627                 2.8993
 IR Inten    --     80.1232                17.9143                 0.8467

                     79                     80                     81
                      A                      A                      A
 Frequencies --   1508.8941              1521.3646              1521.6755
 Red. masses --      1.1339                 1.1158                 5.8730
 Frc consts  --      1.5210                 1.5216                 8.0123
 IR Inten    --      0.1952                14.8820                 2.9725

                     82                     83                     84
                      A                      A                      A
 Frequencies --   1524.0983              1535.2719              1548.9984
 Red. masses --      1.0912                 1.1120                 3.7965
 Frc consts  --      1.4934                 1.5443                 5.3671
 IR Inten    --      2.2784                22.4395                19.2945

                     85                     86                     87
                      A                      A                      A
 Frequencies --   1552.4039              1640.1518              1667.0866
 Red. masses --      2.2059                 5.5698                 5.5227
 Frc consts  --      3.1321                 8.8279                 9.0432
 IR Inten    --     75.4900                 9.8944                76.7055

                     88                     89                     90
                      A                      A                      A
 Frequencies --   1801.9785              2932.0095              2942.2247
 Red. masses --      8.6512                 1.0733                 1.0742
 Frc consts  --     16.5510                 5.4363                 5.4790
 IR Inten    --    288.4425                38.0786                88.8579

                     91                     92                     93
                      A                      A                      A
 Frequencies --   3058.6742              3065.5883              3067.0525
 Red. masses --      1.0835                 1.0633                 1.0650
 Frc consts  --      5.9722                 5.8876                 5.9027
 IR Inten    --      7.1755                27.6552                18.0597

                     94                     95                     96
                      A                      A                      A
 Frequencies --   3110.6569              3126.3830              3131.1602
 Red. masses --      1.0889                 1.1002                 1.0977
 Frc consts  --      6.2079                 6.3359                 6.3407
 IR Inten    --     17.0988                 8.0728                28.7428

                     97                     98                     99
                      A                      A                      A
 Frequencies --   3141.4396              3182.3717              3189.0379
 Red. masses --      1.0889                 1.0848                 1.0884
 Frc consts  --      6.3314                 6.4731                 6.5218
 IR Inten    --     15.6428                 6.5872                 8.9816

                    100                    101                    102
                      A                      A                      A
 Frequencies --   3202.4327              3211.6495              3220.9812
 Red. masses --      1.0918                 1.0957                 1.0930
 Frc consts  --      6.5973                 6.6590                 6.6813
 IR Inten    --     30.8586                28.5401                 7.9440

                    103                    104                    105
                      A                      A                      A
 Frequencies --   3287.8048              3294.0408              3562.3608
 Red. masses --      1.0979                 1.1007                 1.0770
 Frc consts  --      6.9922                 7.0369                 8.0529
 IR Inten    --      0.4237                 0.2387                31.0436

 - Thermochemistry -
 -------------------
 Temperature   298.150 Kelvin.  Pressure   1.00000 Atm.
 Atom     1 has atomic number  6 and mass  12.00000

 Molecular mass:   271.14331 amu.
 Principal axes and moments of inertia in atomic units:
                           1         2         3
     Eigenvalues --  2824.224949876.91700**********
           X            0.99999   0.00302   0.00107
           Y           -0.00299   0.99959  -0.02858
           Z           -0.00115   0.02858   0.99959
 This molecule is an asymmetric top.
 Rotational symmetry number  1.
 Warning -- assumption of classical behavior for rotation
           may cause significant error
 Rotational temperatures (Kelvin)      0.03067     0.00877     0.00769
 Rotational constants (GHZ):           0.63902     0.18272     0.16017
 Zero-point vibrational energy     806777.3 (Joules/Mol)
                                  192.82440 (Kcal/Mol)
 Warning -- explicit consideration of  24 degrees of freedom as
           vibrations may cause significant error
 Vibrational temperatures:     17.29    38.95    68.70    83.62   108.12
          (Kelvin)            141.38   166.13   184.09   260.91   293.58
                              362.12   373.67   416.97   485.08   561.86
                              585.37   589.99   606.99   634.87   688.28
                              720.09   773.90   783.19   823.42   903.31
                              913.00   920.64   992.12  1022.69  1052.04
                             1079.22  1115.40  1170.69  1194.08  1205.29
                             1210.78  1221.98  1239.76  1295.07  1329.67
                             1351.52  1366.31  1377.99  1397.35  1416.76
                             1426.46  1461.14  1463.53  1511.68  1528.61
                             1538.60  1559.19  1604.54  1611.72  1645.79
                             1712.21  1717.84  1744.61  1756.71  1759.11
                             1767.99  1800.91  1855.84  1877.54  1906.51
                             1914.24  1937.03  1944.61  1950.14  1977.04
                             1999.14  2008.61  2014.71  2037.89  2060.64
                             2070.22  2129.86  2163.31  2170.96  2188.90
                             2189.35  2192.84  2208.91  2228.66  2233.56
                             2359.81  2398.57  2592.65  4218.51  4233.21
                             4400.75  4410.70  4412.80  4475.54  4498.17
                             4505.04  4519.83  4578.72  4588.31  4607.59
                             4620.85  4634.27  4730.42  4739.39  5125.44

 Zero-point correction=                           0.307285 (Hartree/Particle)
 Thermal correction to Energy=                    0.324133
 Thermal correction to Enthalpy=                  0.325077
 Thermal correction to Gibbs Free Energy=         0.259768
 Sum of electronic and zero-point Energies=           -892.415835
 Sum of electronic and thermal Energies=              -892.398987
 Sum of electronic and thermal Enthalpies=            -892.398043
 Sum of electronic and thermal Free Energies=         -892.463353

                     E (Thermal)             CV                S
                      KCal/Mol        Cal/Mol-Kelvin    Cal/Mol-Kelvin
 Total                  203.397             65.560            137.456
 Electronic               0.000              0.000              0.000
 Translational            0.889              2.981             42.691
 Rotational               0.889              2.981             34.107
 Vibrational            201.619             59.598             60.657
 Vibration     1          0.593              1.987              7.646
 Vibration     2          0.593              1.984              6.033
 Vibration     3          0.595              1.978              4.909
 Vibration     4          0.596              1.974              4.520
 Vibration     5          0.599              1.966              4.014
 Vibration     6          0.604              1.950              3.488
 Vibration     7          0.608              1.937              3.175
 Vibration     8          0.611              1.925              2.977
 Vibration     9          0.630              1.865              2.315
 Vibration    10          0.640              1.834              2.096
 Vibration    11          0.664              1.760              1.719
 Vibration    12          0.668              1.746              1.664
 Vibration    13          0.686              1.693              1.475
 Vibration    14          0.718              1.601              1.226
 Vibration    15          0.758              1.490              0.998
 Vibration    16          0.772              1.455              0.938
 Vibration    17          0.774              1.448              0.926
 Vibration    18          0.784              1.423              0.886
 Vibration    19          0.801              1.380              0.823
 Vibration    20          0.835              1.298              0.714
 Vibration    21          0.856              1.249              0.657
 Vibration    22          0.893              1.166              0.570
 Vibration    23          0.899              1.152              0.556
 Vibration    24          0.929              1.091              0.500

                           ! Non-Optimized Parameters !
 Normal termination of Gaussian 16 at Mon Dec 14 17:57:08 2020.

 ----------------------------------------------------------------------
 # B3LYP/6-311++G(d,p) empiricaldispersion=gd3bj scf=xqc pop=npa geom=c
 heck
 ----------------------------------------------------------------------

 ---------------------------------------
 CID_17152239_JID_10184_Energie_neutraal
 ---------------------------------------
 Structure from the checkpoint file:  "JID_10184.chk"
 Charge =  0 Multiplicity = 1

 SCF Done:  E(RB3LYP) =  -892.964862035     A.U. after   15 cycles
 Normal termination of Gaussian 16 at Mon Dec 14 18:05:40 2020.

 ----------------------------------------------------------------------
 # B3LYP/6-311++G(d,p) empiricaldispersion=gd3bj scf=xqc pop=npa geom=c
 heck
 ----------------------------------------------------------------------

 -------------------------------------
 CID_17152239_JID_10184_Energie_kation
 -------------------------------------
 Structure from the checkpoint file:  "JID_10184.chk"
 Charge =  1 Multiplicity = 2

 SCF Done:  E(UB3LYP) =  -892.685625340     A.U. after   23 cycles
 Normal termination of Gaussian 16 at Mon Dec 14 18:24:02 2020.
 Gaussian 16:  ES64L-G16RevA.03 25-Dec-2016

 ----------------------------------------------------------------------
 # B3LYP/6-311++G(d,p) empiricaldispersion=gd3bj scf=xqc pop=npa geom=c
 heck
 ----------------------------------------------------------------------

 ------------------------------------
 CID_17152239_JID_10184_Energie_anion
 ------------------------------------
 Structure from the checkpoint file:  "JID_10184.chk"
 Charge = -1 Multiplicity = 2

                         Standard orientation:
 ---------------------------------------------------------------------
 Center     Atomic      Atomic             Coordinates (Angstroms)
 Number     Number       Type             X           Y           Z
 ---------------------------------------------------------------------
      1          6           0       -0.664280   -0.660664   -1.363476
      2          6           0        0.860101   -0.777918   -1.333549
      3          7           0        1.389608   -0.365323   -0.030131
      4          6           0        0.865204   -1.171897    1.063740
      5          6           0       -0.662209   -1.071453    1.115531
      6          6           0       -1.260125   -1.516923   -0.232950
      7          6           0       -2.775933   -1.650940   -0.233457
      8          8           0       -3.333017   -2.733782   -0.254072
      9          7           0       -3.593289   -0.515956   -0.264032
     10          7           0       -3.212410    0.770535    0.051027
     11          6           0       -2.991747    1.804282   -0.828827
     12          7           0       -2.707846    2.899378   -0.177609
     13          7           0       -2.754300    2.599463    1.184393
     14          6           0       -3.063179    1.336471    1.297717
     15          6           0        2.767520   -0.039906    0.002905
     16          6           0        3.247160    0.985791   -0.832190
     17          6           0        4.588825    1.348208   -0.816144
     18          6           0        5.487412    0.710918    0.044387
     19          6           0        5.019187   -0.296704    0.883486
     20          6           0        3.676050   -0.678476    0.860886
     21          1           0       -1.040085   -0.994322   -2.337842
     22          1           0       -0.929638    0.391930   -1.235990
     23          1           0        1.155584   -1.820540   -1.559431
     24          1           0        1.295725   -0.147094   -2.109468
     25          1           0        1.283241   -0.795732    2.001150
     26          1           0        1.158680   -2.235814    0.971528
     27          1           0       -0.929469   -0.033633    1.332605
     28          1           0       -1.041925   -1.701988    1.928014
     29          1           0       -0.940397   -2.552729   -0.399107
     30          1           0       -4.584417   -0.715802   -0.174911
     31          1           0       -3.052877    1.677952   -1.899820
     32          1           0       -3.190336    0.776798    2.213159
     33          1           0        2.550293    1.519686   -1.471057
     34          1           0        4.931752    2.148208   -1.466638
     35          1           0        6.533239    1.002239    0.062378
     36          1           0        5.702541   -0.805546    1.558136
     37          1           0        3.345960   -1.484767    1.505982
 ---------------------------------------------------------------------

 SCF Done:  E(UB3LYP) =  -892.960171468     A.U. after   33 cycles
 SCF Done:  E(UB3LYP) =  -892.960171468     a.u. after    1 cycles

 The electronic state is 2-A.
 Alpha  occ. eigenvalues --  -19.02150 -14.32784 -14.29757 -14.24314 -14.24022
 Alpha  occ. eigenvalues --  -14.24003 -10.20624 -10.14798 -10.14775 -10.13294
 Alpha  occ. eigenvalues --  -10.12400 -10.12130 -10.11074 -10.09851 -10.09749
 Alpha  occ. eigenvalues --  -10.09682 -10.09668 -10.09297 -10.09226 -10.09180
 Alpha  occ. eigenvalues --   -1.00286  -0.96972  -0.90282  -0.87077  -0.77522
 Alpha  occ. eigenvalues --   -0.76028  -0.73595  -0.73269  -0.68943  -0.66867
 Alpha  occ. eigenvalues --   -0.66411  -0.59992  -0.56695  -0.56398  -0.55026
 Alpha  occ. eigenvalues --   -0.53087  -0.52253  -0.51051  -0.49754  -0.49074
 Alpha  occ. eigenvalues --   -0.46004  -0.41990  -0.40251  -0.39769  -0.39643
 Alpha  occ. eigenvalues --   -0.38329  -0.37664  -0.37350  -0.36507  -0.36310
 Alpha  occ. eigenvalues --   -0.36071  -0.35053  -0.34636  -0.34232  -0.32423
 Alpha  occ. eigenvalues --   -0.30988  -0.29085  -0.28961  -0.28108  -0.27402
 Alpha  occ. eigenvalues --   -0.26902  -0.26395  -0.24704  -0.23411  -0.22205
 Alpha  occ. eigenvalues --   -0.21543  -0.20267  -0.18743  -0.18441  -0.17809
 Alpha  occ. eigenvalues --   -0.17052  -0.12950   0.03593
 Alpha virt. eigenvalues --    0.04987   0.06005   0.06198   0.06253   0.07023
 Alpha virt. eigenvalues --    0.07111   0.07533   0.07681   0.08116   0.08736
 Alpha virt. eigenvalues --    0.09202   0.10082   0.10261   0.10464   0.10759

  Beta  occ. eigenvalues --  -19.02141 -14.32723 -14.29705 -14.24314 -14.24015
  Beta  occ. eigenvalues --  -14.23997 -10.20625 -10.14737 -10.14717 -10.13289
  Beta  occ. eigenvalues --  -10.12387 -10.12115 -10.11066 -10.09847 -10.09740
  Beta  occ. eigenvalues --  -10.09673 -10.09661 -10.09290 -10.09216 -10.09168
  Beta  occ. eigenvalues --   -1.00199  -0.96951  -0.90209  -0.87065  -0.77504
  Beta  occ. eigenvalues --   -0.75953  -0.73565  -0.73193  -0.68922  -0.66846
  Beta  occ. eigenvalues --   -0.66387  -0.59958  -0.56664  -0.56315  -0.54963
  Beta  occ. eigenvalues --   -0.53035  -0.52220  -0.50955  -0.49619  -0.49039
  Beta  occ. eigenvalues --   -0.45974  -0.41948  -0.40216  -0.39717  -0.39611
  Beta  occ. eigenvalues --   -0.38272  -0.37623  -0.37268  -0.36478  -0.36180
  Beta  occ. eigenvalues --   -0.36037  -0.35034  -0.34611  -0.34208  -0.32403
  Beta  occ. eigenvalues --   -0.30961  -0.29064  -0.28932  -0.28082  -0.27383
  Beta  occ. eigenvalues --   -0.26883  -0.26368  -0.24682  -0.23395  -0.22020
  Beta  occ. eigenvalues --   -0.21481  -0.20233  -0.18490  -0.18399  -0.17785
  Beta  occ. eigenvalues --   -0.17016  -0.12926
  Beta virt. eigenvalues --    0.05275   0.06203   0.06245   0.06472   0.07061
  Beta virt. eigenvalues --    0.07143   0.07505   0.07592   0.07912   0.08357
  Beta virt. eigenvalues --    0.09198   0.09953   0.10335   0.10485   0.10836

 Mulliken charges and spin densities:
               1          2
     1  C   -0.283634   0.079769
     2  C   -0.317352  -0.444135
     3  N    0.376019   0.045870
     4  C    0.030884  -0.342357
     5  C   -0.014926  -0.539423
     6  C    1.550483  -1.202972
     7  C   -0.792486   0.635608
     8  O   -0.264731   0.022601
     9  N   -0.626613   0.081418
    10  N    0.412509  -0.159940
    11  C    0.088617  -0.246750
    12  N   -0.058162   0.023036
    13  N   -0.046656   0.016253
    14  C    0.183020  -0.395570
    15  C    0.092541  -0.536377
    16  C   -0.242648   0.377306
    17  C   -0.027600  -0.176220
    18  C    0.075193  -0.486497
    19  C   -0.663936   0.528651
    20  C    0.142918  -0.108516
    21  H   -0.121580   0.327510
    22  H    0.333787  -0.140838
    23  H   -0.025954   0.168468
    24  H   -0.006833   0.147591
    25  H    0.034222   0.131213
    26  H   -0.114518   0.261935
    27  H    0.308380  -0.057423
    28  H   -0.121602   0.337552
    29  H    0.283340  -0.029682
    30  H   -0.512689   0.889822
    31  H   -0.214114   0.389880
    32  H   -0.201397   0.380596
    33  H    0.048721   0.088429
    34  H    0.029607   0.137879
    35  H   -0.006736   0.139033
    36  H   -0.242648   0.423300
    37  H   -0.083427   0.232979
 Sum of Mulliken charges =  -1.00000   1.00000

 Dipole moment (field-independent basis, Debye):
    X=              6.2455    Y=             -0.7152    Z=             -1.5121  Tot=              6.4657
 Quadrupole moment (field-independent basis, Debye-Ang):
   XX=           -227.2182   YY=           -175.1039   ZZ=           -148.2061
   XY=              3.4517   XZ=             -3.2189   YZ=             -3.9539

 Summary of Natural Population Analysis:

                                       Natural Population
                Natural  -----------------------------------------------
    Atom  No    Charge         Core      Valence    Rydberg      Total
 -----------------------------------------------------------------------
      C    1   -0.19357      0.99960     2.18516    0.00881     3.19357
      C    2   -0.07638      0.99960     2.06725    0.00953     3.07638
      N    3   -0.26732      0.99965     2.75679    0.01088     3.76732
      C    4   -0.08354      0.99961     2.07262    0.01130     3.08354
      C    5   -0.18985      0.99960     2.18168    0.00857     3.18985
      C    6   -0.15332      0.99954     2.14314    0.01064     3.15332
      C    7    0.35401      0.99963     1.62350    0.02287     2.64599
      O    8   -0.30046      0.99988     3.29486    0.00573     4.30046
      N    9   -0.22981      0.99965     2.71567    0.01449     3.72981
      N   10   -0.13338      0.99962     2.61616    0.01761     3.63338
      C   11    0.10773      0.99961     1.87534    0.01732     2.89227
      N   12   -0.15943      0.99972     2.64707    0.01264     3.65943
      N   13   -0.15717      0.99972     2.64478    0.01266     3.65717
      C   14    0.10485      0.99961     1.87810    0.01744     2.89515
      C   15    0.09411      0.99948     1.89485    0.01157     2.90589
      C   16   -0.11155      0.99952     2.10384    0.00819     3.11155
      C   17   -0.09775      0.99957     2.08863    0.00955     3.09775
      C   18   -0.11754      0.99956     2.10825    0.00973     3.11754
      C   19   -0.09472      0.99957     2.08485    0.01030     3.09472
      C   20   -0.12588      0.99952     2.11703    0.00933     3.12588
      H   21    0.10386      0.00000     0.39516    0.00098     0.39614
      H   22    0.10410      0.00000     0.39366    0.00224     0.39590
      H   23    0.08393      0.00000     0.41475    0.00131     0.41607
      H   24    0.10245      0.00000     0.39637    0.00118     0.39755
      H   25    0.10451      0.00000     0.39430    0.00119     0.39549
      H   26    0.08471      0.00000     0.41364    0.00165     0.41529
      H   27    0.10456      0.00000     0.39349    0.00195     0.39544
      H   28    0.10498      0.00000     0.39399    0.00103     0.39502
      H   29    0.11139      0.00000     0.38657    0.00203     0.38861
      H   30    0.20692      0.00000     0.27043    0.02265     0.29308
      H   31    0.10441      0.00000     0.39408    0.00151     0.39559
      H   32    0.10485      0.00000     0.39363    0.00152     0.39515
      H   33    0.10395      0.00000     0.39504    0.00101     0.39605
      H   34    0.09982      0.00000     0.39943    0.00075     0.40018
      H   35    0.09992      0.00000     0.39930    0.00079     0.40008
      H   36    0.10070      0.00000     0.39839    0.00091     0.39930
      H   37    0.10591      0.00000     0.39290    0.00119     0.39409
 =======================================================================
   * Total *   -0.00000     19.99227    51.72468    0.28305    72.00000

 Normal termination of Gaussian 16 at Mon Dec 14 18:52:34 2020.
