 Gaussian 16, Revision A.03,

 -----------------------------------------------------------
 # opt freq B3LYP/6-31G(d) empiricaldispersion=gd3bj scf=xqc
 -----------------------------------------------------------

 -------------------------------
 CID_102571817_JID_8370_neutraal
 -------------------------------
 Symbolic Z-matrix:
 Charge =  0 Multiplicity = 1

 SCF Done:  E(RB3LYP) =  -1415.79137571     A.U. after   15 cycles
 SCF Done:  E(RB3LYP) =  -1415.79961673     A.U. after   12 cycles
 SCF Done:  E(RB3LYP) =  -1415.80085102     A.U. after   12 cycles
 SCF Done:  E(RB3LYP) =  -1415.80107024     A.U. after   12 cycles
 SCF Done:  E(RB3LYP) =  -1415.80113606     A.U. after   11 cycles
 SCF Done:  E(RB3LYP) =  -1415.80118142     A.U. after   10 cycles
 SCF Done:  E(RB3LYP) =  -1415.80118838     A.U. after   10 cycles
 SCF Done:  E(RB3LYP) =  -1415.80118892     A.U. after    8 cycles
 SCF Done:  E(RB3LYP) =  -1415.80118914     A.U. after    8 cycles
 Optimization completed.
    -- Stationary point found.
 Normal termination of Gaussian 16 at Fri Dec 11 20:15:32 2020.

 --------------------------------------------------------------------
 #N Geom=AllCheck Guess=TCheck SCRF=Check GenChk RB3LYP/6-31G(d) Freq
 --------------------------------------------------------------------

 Structure from the checkpoint file:  "JID_8370.chk"
 -------------------------------
 CID_102571817_JID_8370_neutraal
 -------------------------------
 Charge =  0 Multiplicity = 1

 SCF Done:  E(RB3LYP) =  -1415.80118914     A.U. after    1 cycles

  Exact polarizability: 266.675   2.031 209.893  -0.538  12.361 132.617
 Approx polarizability: 389.288   8.078 379.396  -7.929  27.410 224.564

                      1                      2                      3
                      A                      A                      A
 Frequencies --     33.3692                48.2193                65.8893
 Red. masses --      4.6196                 5.5812                 4.6165
 Frc consts  --      0.0030                 0.0076                 0.0118
 IR Inten    --      0.3921                 0.5159                 0.2458

                      4                      5                      6
                      A                      A                      A
 Frequencies --     96.6377               148.0519               159.4135
 Red. masses --      4.6841                 3.6953                 3.5077
 Frc consts  --      0.0258                 0.0477                 0.0525
 IR Inten    --      1.1813                 0.1439                 0.4347

                      7                      8                      9
                      A                      A                      A
 Frequencies --    174.8819               186.9553               203.2804
 Red. masses --      1.3204                 3.5468                 3.8579
 Frc consts  --      0.0238                 0.0730                 0.0939
 IR Inten    --      0.9720                 0.4747                 0.4583

                     10                     11                     12
                      A                      A                      A
 Frequencies --    239.6233               247.6817               281.4274
 Red. masses --      3.4088                 2.2285                 3.7348
 Frc consts  --      0.1153                 0.0805                 0.1743
 IR Inten    --      1.4912                 0.3679                 0.4566

                     13                     14                     15
                      A                      A                      A
 Frequencies --    298.9977               331.9141               356.2951
 Red. masses --      3.7068                 4.6563                 3.5547
 Frc consts  --      0.1952                 0.3022                 0.2659
 IR Inten    --      0.9241                 1.0001                 0.9741

                     16                     17                     18
                      A                      A                      A
 Frequencies --    365.4622               431.6754               440.5089
 Red. masses --      4.2149                 4.3091                 3.4235
 Frc consts  --      0.3317                 0.4731                 0.3914
 IR Inten    --      7.1516                 0.4675                 2.6054

                     19                     20                     21
                      A                      A                      A
 Frequencies --    474.3508               482.5296               506.8213
 Red. masses --      3.3987                 3.4595                 3.8442
 Frc consts  --      0.4506                 0.4746                 0.5818
 IR Inten    --      1.1218                 0.5427                 0.4394

                     22                     23                     24
                      A                      A                      A
 Frequencies --    518.4581               531.9792               565.2917
 Red. masses --      6.0350                 6.9276                 3.8101
 Frc consts  --      0.9558                 1.1551                 0.7173
 IR Inten    --      0.4423                 0.9083                 7.4008

                     25                     26                     27
                      A                      A                      A
 Frequencies --    614.6537               636.0000               654.3124
 Red. masses --      5.5726                 6.4043                 4.0286
 Frc consts  --      1.2404                 1.5263                 1.0162
 IR Inten    --      1.6805                 9.7417                 1.3089

                     28                     29                     30
                      A                      A                      A
 Frequencies --    676.6026               694.5072               735.0318
 Red. masses --      4.1985                 5.4058                 2.7174
 Frc consts  --      1.1324                 1.5363                 0.8650
 IR Inten    --      0.1705                 4.3060                 6.6632

                     31                     32                     33
                      A                      A                      A
 Frequencies --    752.4195               770.1725               792.7232
 Red. masses --      1.3027                 1.8640                 2.4214
 Frc consts  --      0.4345                 0.6514                 0.8965
 IR Inten    --      0.8370                 6.3055                17.1777

                     34                     35                     36
                      A                      A                      A
 Frequencies --    808.2055               814.1069               833.2054
 Red. masses --      4.6317                 1.8986                 2.5095
 Frc consts  --      1.7825                 0.7414                 1.0265
 IR Inten    --      5.1023                49.7153                 3.4035

                     37                     38                     39
                      A                      A                      A
 Frequencies --    885.4596               890.5372               915.7875
 Red. masses --      1.7564                 2.3421                 3.0332
 Frc consts  --      0.8114                 1.0944                 1.4988
 IR Inten    --      1.7287                 6.3641                 6.1231

                     40                     41                     42
                      A                      A                      A
 Frequencies --    930.8318               962.3583               965.1210
 Red. masses --      1.7240                 1.3299                 1.9520
 Frc consts  --      0.8801                 0.7257                 1.0713
 IR Inten    --      2.5469                 0.4034                 0.3230

                     43                     44                     45
                      A                      A                      A
 Frequencies --    977.8072               995.6032              1008.8056
 Red. masses --      1.3056                 1.2727                 1.6699
 Frc consts  --      0.7355                 0.7433                 1.0013
 IR Inten    --      1.0397                 0.1207                 1.7582

                     46                     47                     48
                      A                      A                      A
 Frequencies --   1033.9357              1054.9881              1064.7900
 Red. masses --      3.0798                 2.5893                 1.4628
 Frc consts  --      1.9398                 1.6979                 0.9772
 IR Inten    --      2.3293                 4.4576                 3.0905

                     49                     50                     51
                      A                      A                      A
 Frequencies --   1077.9442              1086.1425              1115.8693
 Red. masses --      2.0719                 2.2483                 2.1638
 Frc consts  --      1.4184                 1.5627                 1.5874
 IR Inten    --      3.6035                 1.0890                 1.2155

                     52                     53                     54
                      A                      A                      A
 Frequencies --   1149.3741              1173.8390              1180.7113
 Red. masses --      2.7020                 1.0604                 1.3270
 Frc consts  --      2.1031                 0.8609                 1.0900
 IR Inten    --     36.7410                 0.8379                 0.7605

                     55                     56                     57
                      A                      A                      A
 Frequencies --   1192.7700              1194.3691              1209.4937
 Red. masses --      1.2582                 1.1363                 1.4282
 Frc consts  --      1.0547                 0.9550                 1.2310
 IR Inten    --      1.6504                 2.5315                 3.1382

                     58                     59                     60
                      A                      A                      A
 Frequencies --   1251.5528              1266.7765              1291.9440
 Red. masses --      2.2505                 1.8518                 1.2224
 Frc consts  --      2.0770                 1.7508                 1.2021
 IR Inten    --      2.3472                 3.4976                 0.8121

                     61                     62                     63
                      A                      A                      A
 Frequencies --   1300.8153              1311.0361              1356.1727
 Red. masses --      1.9903                 1.2897                 1.2043
 Frc consts  --      1.9843                 1.3061                 1.3050
 IR Inten    --      1.2995                 3.2908                33.9525

                     64                     65                     66
                      A                      A                      A
 Frequencies --   1380.6892              1392.2573              1412.6282
 Red. masses --      3.3159                 1.4719                 7.8481
 Frc consts  --      3.7243                 1.6810                 9.2273
 IR Inten    --      4.4660                 1.0667                 0.2682

                     67                     68                     69
                      A                      A                      A
 Frequencies --   1436.3093              1441.2528              1486.1468
 Red. masses --      2.0925                 1.2259                 2.1388
 Frc consts  --      2.5433                 1.5003                 2.7832
 IR Inten    --      9.5240                 1.3187                 2.6483

                     70                     71                     72
                      A                      A                      A
 Frequencies --   1490.0705              1491.9779              1504.0761
 Red. masses --      1.0902                 1.0814                 1.0974
 Frc consts  --      1.4262                 1.4183                 1.4627
 IR Inten    --      0.6042                15.6373                 9.3324

                     73                     74                     75
                      A                      A                      A
 Frequencies --   1509.2855              1512.1211              1517.5474
 Red. masses --      2.2945                 1.0995                 1.0486
 Frc consts  --      3.0794                 1.4812                 1.4227
 IR Inten    --      0.4552                 1.8151                11.6418

                     76                     77                     78
                      A                      A                      A
 Frequencies --   1563.2798              1631.2386              1636.5922
 Red. masses --      3.4049                 6.8186                 7.0802
 Frc consts  --      4.9026                10.6900                11.1732
 IR Inten    --      9.4497                 1.2606                14.1054

                     79                     80                     81
                      A                      A                      A
 Frequencies --   1654.6644              1681.6904              3043.4162
 Red. masses --      5.2850                 5.9000                 1.0592
 Frc consts  --      8.5254                 9.8310                 5.7806
 IR Inten    --     12.8106                 0.0865                41.7560

                     82                     83                     84
                      A                      A                      A
 Frequencies --   3046.1666              3080.3438              3089.1883
 Red. masses --      1.0387                 1.0936                 1.0650
 Frc consts  --      5.6785                 6.1136                 5.9881
 IR Inten    --     23.4834                 7.5115                20.9370

                     85                     86                     87
                      A                      A                      A
 Frequencies --   3090.2093              3097.3277              3142.0347
 Red. masses --      1.0672                 1.1012                 1.1053
 Frc consts  --      6.0046                 6.2244                 6.4289
 IR Inten    --     21.1831                13.8276                 6.3824

                     88                     89                     90
                      A                      A                      A
 Frequencies --   3143.4543              3155.9300              3179.1321
 Red. masses --      1.1053                 1.0983                 1.0865
 Frc consts  --      6.4351                 6.4452                 6.4700
 IR Inten    --      7.2822                11.1690                 1.0238

                     91                     92                     93
                      A                      A                      A
 Frequencies --   3182.7114              3191.3554              3199.0486
 Red. masses --      1.0864                 1.0893                 1.0913
 Frc consts  --      6.4837                 6.5368                 6.5802
 IR Inten    --      2.8343                14.3869                26.6301

                     94                     95                     96
                      A                      A                      A
 Frequencies --   3206.7269              3213.1639              3223.4954
 Red. masses --      1.0949                 1.0951                 1.0931
 Frc consts  --      6.6333                 6.6612                 6.6923
 IR Inten    --     37.3051                18.3518                 9.7516

 - Thermochemistry -
 -------------------
 Temperature   298.150 Kelvin.  Pressure   1.00000 Atm.
 Atom     1 has atomic number  6 and mass  12.00000

 Molecular mass:   272.06934 amu.
 Principal axes and moments of inertia in atomic units:
                           1         2         3
     Eigenvalues --  2767.853587494.456628588.00461
           X            0.99996  -0.00462   0.00771
           Y            0.00441   0.99961   0.02748
           Z           -0.00783  -0.02744   0.99959
 This molecule is an asymmetric top.
 Rotational symmetry number  1.
 Warning -- assumption of classical behavior for rotation
           may cause significant error
 Rotational temperatures (Kelvin)      0.03129     0.01156     0.01009
 Rotational constants (GHZ):           0.65204     0.24081     0.21015
 Zero-point vibrational energy     728777.1 (Joules/Mol)
                                  174.18192 (Kcal/Mol)
 Warning -- explicit consideration of  25 degrees of freedom as
           vibrations may cause significant error
 Vibrational temperatures:     48.01    69.38    94.80   139.04   213.01
          (Kelvin)            229.36   251.62   268.99   292.48   344.76
                              356.36   404.91   430.19   477.55   512.63
                              525.82   621.08   633.79   682.49   694.25
                              729.20   745.95   765.40   813.33   884.35
                              915.06   941.41   973.48   999.24  1057.55
                             1082.56  1108.11  1140.55  1162.83  1171.32
                             1198.80  1273.98  1281.28  1317.61  1339.26
                             1384.62  1388.59  1406.85  1432.45  1451.45
                             1487.60  1517.89  1532.00  1550.92  1562.72
                             1605.49  1653.69  1688.89  1698.78  1716.13
                             1718.43  1740.19  1800.71  1822.61  1858.82
                             1871.58  1886.29  1951.23  1986.50  2003.15
                             2032.46  2066.53  2073.64  2138.23  2143.88
                             2146.62  2164.03  2171.53  2175.61  2183.41
                             2249.21  2346.99  2354.69  2380.69  2419.58
                             4378.80  4382.75  4431.93  4444.65  4446.12
                             4456.36  4520.69  4522.73  4540.68  4574.06
                             4579.21  4591.65  4602.72  4613.76  4623.03
                             4637.89

 Zero-point correction=                           0.277577 (Hartree/Particle)
 Thermal correction to Energy=                    0.293536
 Thermal correction to Enthalpy=                  0.294480
 Thermal correction to Gibbs Free Energy=         0.233915
 Sum of electronic and zero-point Energies=          -1415.523613
 Sum of electronic and thermal Energies=             -1415.507653
 Sum of electronic and thermal Enthalpies=           -1415.506709
 Sum of electronic and thermal Free Energies=        -1415.567274

                     E (Thermal)             CV                S
                      KCal/Mol        Cal/Mol-Kelvin    Cal/Mol-Kelvin
 Total                  184.196             63.539            127.469
 Electronic               0.000              0.000              0.000
 Translational            0.889              2.981             42.701
 Rotational               0.889              2.981             33.543
 Vibrational            182.419             57.577             51.224
 Vibration     1          0.594              1.983              5.618
 Vibration     2          0.595              1.978              4.889
 Vibration     3          0.597              1.971              4.273
 Vibration     4          0.603              1.952              3.521
 Vibration     5          0.617              1.905              2.697
 Vibration     6          0.621              1.892              2.557
 Vibration     7          0.627              1.873              2.382
 Vibration     8          0.632              1.858              2.258
 Vibration     9          0.639              1.835              2.103
 Vibration    10          0.657              1.780              1.806
 Vibration    11          0.661              1.767              1.747
 Vibration    12          0.681              1.708              1.525
 Vibration    13          0.692              1.676              1.423
 Vibration    14          0.714              1.612              1.251
 Vibration    15          0.732              1.562              1.138
 Vibration    16          0.739              1.543              1.099
 Vibration    17          0.793              1.401              0.853
 Vibration    18          0.800              1.382              0.825
 Vibration    19          0.831              1.307              0.725
 Vibration    20          0.839              1.289              0.703
 Vibration    21          0.862              1.235              0.641
 Vibration    22          0.873              1.209              0.614
 Vibration    23          0.887              1.179              0.583
 Vibration    24          0.921              1.106              0.513
 Vibration    25          0.974              1.001              0.425

                           ! Non-Optimized Parameters !
 Normal termination of Gaussian 16 at Fri Dec 11 20:34:05 2020.

 ----------------------------------------------------------------------
 # B3LYP/6-311++G(d,p) empiricaldispersion=gd3bj scf=xqc pop=npa geom=c
 heck
 ----------------------------------------------------------------------

 ---------------------------------------
 CID_102571817_JID_8370_Energie_neutraal
 ---------------------------------------
 Structure from the checkpoint file:  "JID_8370.chk"
 Charge =  0 Multiplicity = 1

 SCF Done:  E(RB3LYP) =  -1416.00821109     A.U. after   16 cycles
 Normal termination of Gaussian 16 at Fri Dec 11 20:43:09 2020.

 ----------------------------------------------------------------------
 # B3LYP/6-311++G(d,p) empiricaldispersion=gd3bj scf=xqc pop=npa geom=c
 heck
 ----------------------------------------------------------------------

 -------------------------------------
 CID_102571817_JID_8370_Energie_kation
 -------------------------------------
 Structure from the checkpoint file:  "JID_8370.chk"
 Charge =  1 Multiplicity = 2

 SCF Done:  E(UB3LYP) =  -1415.75682692     A.U. after   23 cycles
 Normal termination of Gaussian 16 at Fri Dec 11 21:02:08 2020.
 Gaussian 16:  ES64L-G16RevA.03 25-Dec-2016

 ----------------------------------------------------------------------
 # B3LYP/6-311++G(d,p) empiricaldispersion=gd3bj scf=xqc pop=npa geom=c
 heck
 ----------------------------------------------------------------------

 ------------------------------------
 CID_102571817_JID_8370_Energie_anion
 ------------------------------------
 Structure from the checkpoint file:  "JID_8370.chk"
 Charge = -1 Multiplicity = 2

                         Standard orientation:
 ---------------------------------------------------------------------
 Center     Atomic      Atomic             Coordinates (Angstroms)
 Number     Number       Type             X           Y           Z
 ---------------------------------------------------------------------
      1          6           0       -0.333234   -1.072695    2.164676
      2          6           0       -1.162897   -0.507276    1.032728
      3          6           0       -0.677594    0.439710    0.197534
      4         16           0       -1.525893    1.385764   -1.066012
      5          6           0       -3.280755    1.380630   -0.529816
      6          6           0       -4.063572    0.159015   -1.007720
      7          6           0       -3.338240   -1.152769   -0.713465
      8         16           0       -2.764094   -1.302690    1.021738
      9          6           0        0.765470    0.824576    0.236134
     10          6           0        1.128319    2.100456    0.629501
     11          6           0        2.482671    2.490670    0.702095
     12          6           0        3.477106    1.601900    0.364994
     13          6           0        3.157207    0.290716   -0.070460
     14          6           0        4.170254   -0.635236   -0.436902
     15          6           0        3.850085   -1.898898   -0.873518
     16          6           0        2.493292   -2.289620   -0.970617
     17          6           0        1.487779   -1.418842   -0.618119
     18          6           0        1.782292   -0.110333   -0.148966
     19          1           0        0.509159   -0.421468    2.404293
     20          1           0        0.056778   -2.065339    1.909290
     21          1           0       -0.947106   -1.185866    3.066549
     22          1           0       -3.292993    1.456862    0.559787
     23          1           0       -3.708115    2.303584   -0.933255
     24          1           0       -5.046854    0.161261   -0.520194
     25          1           0       -4.237159    0.224553   -2.089406
     26          1           0       -2.468357   -1.275768   -1.362655
     27          1           0       -3.997161   -2.011302   -0.873755
     28          1           0        0.348870    2.807369    0.895962
     29          1           0        2.732603    3.495437    1.030234
     30          1           0        4.522990    1.892766    0.421910
     31          1           0        5.208752   -0.321023   -0.367806
     32          1           0        4.634567   -2.597231   -1.150793
     33          1           0        2.244956   -3.284195   -1.330244
     34          1           0        0.449772   -1.720846   -0.700009
 ---------------------------------------------------------------------

 SCF Done:  E(UB3LYP) =  -1416.01197436     A.U. after   31 cycles

 The electronic state is 2-A.
 Alpha  occ. eigenvalues --  -88.73695 -88.72948 -10.09976 -10.09235 -10.08187
 Alpha  occ. eigenvalues --  -10.07893 -10.07709 -10.05198 -10.04329 -10.04142
 Alpha  occ. eigenvalues --  -10.03407 -10.03262 -10.03078 -10.02967 -10.02755
 Alpha  occ. eigenvalues --  -10.02445 -10.02368 -10.01843  -7.82327  -7.81538
 Alpha  occ. eigenvalues --   -5.78719  -5.78315  -5.77949  -5.77741  -5.77522
 Alpha  occ. eigenvalues --   -5.76940  -0.74555  -0.72997  -0.69489  -0.68041
 Alpha  occ. eigenvalues --   -0.66808  -0.62973  -0.60308  -0.59903  -0.58546
 Alpha  occ. eigenvalues --   -0.55250  -0.53222  -0.48608  -0.47443  -0.46692
 Alpha  occ. eigenvalues --   -0.45506  -0.40439  -0.37724  -0.37437  -0.36916
 Alpha  occ. eigenvalues --   -0.35683  -0.34750  -0.33991  -0.31430  -0.31008
 Alpha  occ. eigenvalues --   -0.30129  -0.29365  -0.28634  -0.28359  -0.27641
 Alpha  occ. eigenvalues --   -0.27354  -0.26439  -0.25421  -0.24842  -0.23958
 Alpha  occ. eigenvalues --   -0.22697  -0.21284  -0.20685  -0.19880  -0.19322
 Alpha  occ. eigenvalues --   -0.18877  -0.17722  -0.14978  -0.14335  -0.11191
 Alpha  occ. eigenvalues --   -0.09318  -0.07222   0.04475
 Alpha virt. eigenvalues --    0.06345   0.08126   0.08651   0.09134   0.09546
 Alpha virt. eigenvalues --    0.09681   0.10277   0.10695   0.11080   0.11586
 Alpha virt. eigenvalues --    0.11722   0.11977   0.12816   0.12902   0.13721

  Beta  occ. eigenvalues --  -88.73691 -88.72937 -10.09971 -10.09201 -10.08174
  Beta  occ. eigenvalues --  -10.07776 -10.07690 -10.05205 -10.04374 -10.04220
  Beta  occ. eigenvalues --  -10.03373 -10.03194 -10.02968 -10.02821 -10.02538
  Beta  occ. eigenvalues --  -10.02297 -10.02188 -10.01500  -7.82323  -7.81525
  Beta  occ. eigenvalues --   -5.78717  -5.78309  -5.77943  -5.77734  -5.77492
  Beta  occ. eigenvalues --   -5.76932  -0.74363  -0.72814  -0.69286  -0.67798
  Beta  occ. eigenvalues --   -0.66598  -0.62603  -0.60192  -0.59706  -0.58247
  Beta  occ. eigenvalues --   -0.55033  -0.53141  -0.48083  -0.47360  -0.46596
  Beta  occ. eigenvalues --   -0.45203  -0.40328  -0.37632  -0.37132  -0.36847
  Beta  occ. eigenvalues --   -0.35527  -0.34645  -0.33852  -0.31301  -0.30885
  Beta  occ. eigenvalues --   -0.30028  -0.29289  -0.28540  -0.28278  -0.27490
  Beta  occ. eigenvalues --   -0.27308  -0.26308  -0.25138  -0.24419  -0.23811
  Beta  occ. eigenvalues --   -0.22575  -0.21216  -0.20552  -0.19757  -0.18807
  Beta  occ. eigenvalues --   -0.18254  -0.17488  -0.14379  -0.13684  -0.10558
  Beta  occ. eigenvalues --   -0.08445  -0.06257
  Beta virt. eigenvalues --    0.06461   0.08177   0.08609   0.09045   0.09387
  Beta virt. eigenvalues --    0.09542   0.09660   0.10255   0.10996   0.11200
  Beta virt. eigenvalues --    0.11556   0.11872   0.12243   0.12717   0.12886

 Mulliken charges and spin densities:
               1          2
     1  C   -0.581928   0.006883
     2  C    0.087412   0.006986
     3  C   -0.058209   0.038618
     4  S   -0.264087  -0.023078
     5  C   -0.550840   0.139483
     6  C    0.331916  -0.579574
     7  C   -0.477312   0.195029
     8  S   -0.285456  -0.021202
     9  C    0.621446   0.093664
    10  C   -0.181623   0.175010
    11  C   -0.429406   0.032926
    12  C   -0.408052   0.236022
    13  C    0.573369  -0.043878
    14  C   -0.209942   0.160533
    15  C   -0.424375   0.036258
    16  C   -0.470718   0.063451
    17  C   -0.757020   0.102165
    18  C    0.693627  -0.015652
    19  H    0.148616   0.006120
    20  H    0.161627   0.010061
    21  H    0.123812   0.001984
    22  H    0.205072  -0.004032
    23  H    0.046385   0.157377
    24  H    0.003946   0.112797
    25  H    0.018380   0.109380
    26  H    0.170266  -0.005224
    27  H    0.145723   0.071501
    28  H    0.120604  -0.009305
    29  H    0.119817  -0.000759
    30  H    0.078558  -0.021946
    31  H    0.094407  -0.011713
    32  H    0.102830  -0.002399
    33  H    0.123063  -0.004713
    34  H    0.128090  -0.012773
 Sum of Mulliken charges =  -1.00000   1.00000

 Dipole moment (field-independent basis, Debye):
    X=             -3.9376    Y=             -0.7976    Z=              0.4129  Tot=              4.0388
 Quadrupole moment (field-independent basis, Debye-Ang):
   XX=           -169.0087   YY=           -144.0815   ZZ=           -140.0926
   XY=              0.8849   XZ=              2.8895   YZ=              2.7956

 Summary of Natural Population Analysis:

                                       Natural Population
                Natural  -----------------------------------------------
    Atom  No    Charge         Core      Valence    Rydberg      Total
 -----------------------------------------------------------------------
      C    1   -0.29728      0.99962     2.29177    0.00589     3.29728
      C    2   -0.08482      0.99932     2.07359    0.01191     3.08482
      C    3   -0.09694      0.99926     2.08323    0.01444     3.09694
      S    4    0.12421      4.99954     2.85644    0.01981     7.87579
      C    5   -0.25831      0.99959     2.24645    0.01226     3.25831
      C    6   -0.20309      0.99961     2.19205    0.01144     3.20309
      C    7   -0.25640      0.99959     2.24475    0.01206     3.25640
      S    8    0.10133      4.99953     2.87972    0.01942     7.89867
      C    9   -0.01861      0.99948     2.00214    0.01699     3.01861
      C   10   -0.06253      0.99951     2.05452    0.00850     3.06253
      C   11   -0.11181      0.99957     2.10268    0.00957     3.11181
      C   12   -0.03075      0.99953     2.02281    0.00841     3.03075
      C   13   -0.06336      0.99955     2.04943    0.01438     3.06336
      C   14   -0.05673      0.99954     2.04859    0.00860     3.05673
      C   15   -0.11070      0.99957     2.10087    0.01026     3.11070
      C   16   -0.09732      0.99957     2.08836    0.00939     3.09732
      C   17   -0.08745      0.99959     2.07289    0.01497     3.08745
      C   18    0.03697      0.99946     1.95346    0.01011     2.96303
      H   19    0.11481      0.00000     0.38434    0.00085     0.38519
      H   20    0.10659      0.00000     0.39223    0.00118     0.39341
      H   21    0.09654      0.00000     0.40247    0.00099     0.40346
      H   22    0.10935      0.00000     0.38942    0.00123     0.39065
      H   23    0.10478      0.00000     0.39413    0.00109     0.39522
      H   24    0.09667      0.00000     0.40193    0.00140     0.40333
      H   25    0.09844      0.00000     0.40009    0.00147     0.40156
      H   26    0.11299      0.00000     0.38554    0.00147     0.38701
      H   27    0.10398      0.00000     0.39505    0.00098     0.39602
      H   28    0.09464      0.00000     0.40433    0.00103     0.40536
      H   29    0.08989      0.00000     0.40905    0.00106     0.41011
      H   30    0.08484      0.00000     0.41362    0.00154     0.41516
      H   31    0.08714      0.00000     0.41134    0.00152     0.41286
      H   32    0.08908      0.00000     0.40985    0.00107     0.41092
      H   33    0.08934      0.00000     0.40963    0.00103     0.41066
      H   34    0.09685      0.00000     0.40150    0.00165     0.40315
 =======================================================================
   * Total *    0.00233     25.99143    45.76826    0.23797    71.99767

 Normal termination of Gaussian 16 at Fri Dec 11 21:27:04 2020.
