 Gaussian 16, Revision A.03,

 -----------------------------------------------------------
 # opt freq B3LYP/6-31G(d) empiricaldispersion=gd3bj scf=xqc
 -----------------------------------------------------------

 ------------------------------
 CID_59637153_JID_6488_neutraal
 ------------------------------
 Symbolic Z-matrix:
 Charge =  0 Multiplicity = 1

 SCF Done:  E(RB3LYP) =  -729.562642838     A.U. after   15 cycles
 SCF Done:  E(RB3LYP) =  -729.566492943     A.U. after   12 cycles
 SCF Done:  E(RB3LYP) =  -729.566477732     A.U. after   12 cycles
 SCF Done:  E(RB3LYP) =  -729.566693261     A.U. after   12 cycles
 SCF Done:  E(RB3LYP) =  -729.566832241     A.U. after   11 cycles
 SCF Done:  E(RB3LYP) =  -729.566838115     A.U. after   10 cycles
 SCF Done:  E(RB3LYP) =  -729.566853058     A.U. after    9 cycles
 SCF Done:  E(RB3LYP) =  -729.566855129     A.U. after   10 cycles
 SCF Done:  E(RB3LYP) =  -729.566855957     A.U. after    9 cycles
 SCF Done:  E(RB3LYP) =  -729.566856770     A.U. after    9 cycles
 SCF Done:  E(RB3LYP) =  -729.566857358     A.U. after    9 cycles
 SCF Done:  E(RB3LYP) =  -729.566857632     A.U. after    9 cycles
 SCF Done:  E(RB3LYP) =  -729.566857682     A.U. after    7 cycles
 Optimization completed.
    -- Stationary point found.
 Normal termination of Gaussian 16 at Thu Dec 10 23:13:14 2020.

 --------------------------------------------------------------------
 #N Geom=AllCheck Guess=TCheck SCRF=Check GenChk RB3LYP/6-31G(d) Freq
 --------------------------------------------------------------------

 Structure from the checkpoint file:  "JID_6488.chk"
 ------------------------------
 CID_59637153_JID_6488_neutraal
 ------------------------------
 Charge =  0 Multiplicity = 1

 SCF Done:  E(RB3LYP) =  -729.566857682     A.U. after    1 cycles

  Exact polarizability: 175.586  -0.945 141.392  12.634   3.791  91.762
 Approx polarizability: 249.581   5.078 241.784  32.800  11.463 142.311

                      1                      2                      3
                      A                      A                      A
 Frequencies --     21.9848                55.8905                85.7707
 Red. masses --      4.9014                 5.8456                 3.2990
 Frc consts  --      0.0014                 0.0108                 0.0143
 IR Inten    --      0.6326                 2.4635                 1.4806

                      4                      5                      6
                      A                      A                      A
 Frequencies --    103.1670               134.8982               143.6855
 Red. masses --      3.5995                 1.2069                 4.9588
 Frc consts  --      0.0226                 0.0129                 0.0603
 IR Inten    --      0.6410                 0.3931                 1.5396

                      7                      8                      9
                      A                      A                      A
 Frequencies --    158.3739               225.0994               229.0123
 Red. masses --      3.4537                 4.8579                 2.9298
 Frc consts  --      0.0510                 0.1450                 0.0905
 IR Inten    --      0.4346                 3.3681                 0.8202

                     10                     11                     12
                      A                      A                      A
 Frequencies --    265.9003               269.8132               290.1629
 Red. masses --      3.4178                 1.0803                 4.0271
 Frc consts  --      0.1424                 0.0463                 0.1998
 IR Inten    --      3.0515                 0.1434                 6.7644

                     13                     14                     15
                      A                      A                      A
 Frequencies --    310.6089               326.1433               329.4410
 Red. masses --      1.2717                 3.1714                 2.6456
 Frc consts  --      0.0723                 0.1988                 0.1692
 IR Inten    --      1.5516                 5.5649                 0.7892

                     16                     17                     18
                      A                      A                      A
 Frequencies --    357.2392               383.1122               423.3572
 Red. masses --      3.4404                 6.7739                 3.7094
 Frc consts  --      0.2587                 0.5858                 0.3917
 IR Inten    --      0.1954                 7.2849                 0.8011

                     19                     20                     21
                      A                      A                      A
 Frequencies --    532.4517               543.9425               548.3868
 Red. masses --      4.0906                 4.4095                 5.1969
 Frc consts  --      0.6833                 0.7687                 0.9208
 IR Inten    --     10.1002                 3.8501                 0.7902

                     22                     23                     24
                      A                      A                      A
 Frequencies --    572.9719               602.7778               653.1279
 Red. masses --      4.1261                 3.8109                 5.8351
 Frc consts  --      0.7981                 0.8158                 1.4665
 IR Inten    --      2.2897                 2.5947                15.6354

                     25                     26                     27
                      A                      A                      A
 Frequencies --    733.1237               746.6430               767.9155
 Red. masses --      4.8503                 5.0874                 3.4862
 Frc consts  --      1.5359                 1.6710                 1.2112
 IR Inten    --      6.3816                10.2299                 9.1632

                     28                     29                     30
                      A                      A                      A
 Frequencies --    782.8327               804.8008               851.9812
 Red. masses --      1.5394                 3.9200                 4.0782
 Frc consts  --      0.5558                 1.4959                 1.7441
 IR Inten    --     29.3671                 6.6115                 9.3962

                     31                     32                     33
                      A                      A                      A
 Frequencies --    884.5684               898.4707               905.7767
 Red. masses --      4.5131                 1.5524                 2.8623
 Frc consts  --      2.0806                 0.7384                 1.3836
 IR Inten    --      1.0645                 0.5784                 3.6855

                     34                     35                     36
                      A                      A                      A
 Frequencies --    965.4387               967.3680               985.2402
 Red. masses --      1.4704                 1.4558                 2.3643
 Frc consts  --      0.8075                 0.8026                 1.3522
 IR Inten    --      0.1860                 2.3690                16.9756

                     37                     38                     39
                      A                      A                      A
 Frequencies --    999.1381              1038.8810              1049.3431
 Red. masses --      1.2853                 2.5114                 1.9111
 Frc consts  --      0.7559                 1.5969                 1.2399
 IR Inten    --      0.0220                24.2522                 4.0150

                     40                     41                     42
                      A                      A                      A
 Frequencies --   1056.1565              1078.9379              1116.7111
 Red. masses --      1.9843                 4.4144                 2.3853
 Frc consts  --      1.3041                 3.0277                 1.7526
 IR Inten    --      4.9216                55.5262                15.9603

                     43                     44                     45
                      A                      A                      A
 Frequencies --   1147.8760              1157.5571              1186.3485
 Red. masses --      1.7423                 2.3739                 1.2789
 Frc consts  --      1.3526                 1.8742                 1.0605
 IR Inten    --      6.3732                 8.1810                 1.0452

                     46                     47                     48
                      A                      A                      A
 Frequencies --   1195.4994              1215.7017              1220.4875
 Red. masses --      1.1505                 1.8706                 1.4622
 Frc consts  --      0.9688                 1.6289                 1.2833
 IR Inten    --      4.8628                 0.1350                 4.5023

                     49                     50                     51
                      A                      A                      A
 Frequencies --   1248.0961              1263.6008              1298.7479
 Red. masses --      2.9327                 1.9256                 4.6868
 Frc consts  --      2.6916                 1.8115                 4.6577
 IR Inten    --     54.1843                13.3191               312.9550

                     52                     53                     54
                      A                      A                      A
 Frequencies --   1315.0577              1315.8845              1329.2756
 Red. masses --      1.8394                 2.0263                 2.1272
 Frc consts  --      1.8742                 2.0672                 2.2146
 IR Inten    --      1.4480                84.5803                55.1200

                     55                     56                     57
                      A                      A                      A
 Frequencies --   1381.0354              1427.6151              1449.6718
 Red. masses --      6.3790                 1.2177                 1.2142
 Frc consts  --      7.1683                 1.4623                 1.5034
 IR Inten    --     12.7684                 5.0176                 3.9432

                     58                     59                     60
                      A                      A                      A
 Frequencies --   1492.2617              1508.7799              1512.9455
 Red. masses --      1.2078                 2.4266                 1.0478
 Frc consts  --      1.5846                 3.2546                 1.4131
 IR Inten    --      9.3999                12.0941                 5.9548

                     61                     62                     63
                      A                      A                      A
 Frequencies --   1515.4125              1518.3969              1521.9933
 Red. masses --      1.0841                 2.0285                 1.0793
 Frc consts  --      1.4669                 2.7555                 1.4731
 IR Inten    --      0.7653                 4.8489                 0.3158

                     64                     65                     66
                      A                      A                      A
 Frequencies --   1523.8640              1536.5159              1539.8331
 Red. masses --      1.0561                 1.0824                 1.0735
 Frc consts  --      1.4450                 1.5056                 1.4997
 IR Inten    --      9.2358                11.5771                12.5250

                     67                     68                     69
                      A                      A                      A
 Frequencies --   1644.8275              1662.3911              1818.1545
 Red. masses --      6.7163                 6.2869                11.4201
 Frc consts  --     10.7058                10.2365                22.2425
 IR Inten    --      5.9546                48.5708               233.0719

                     70                     71                     72
                      A                      A                      A
 Frequencies --   1820.0873              3049.5556              3057.1764
 Red. masses --     12.6936                 1.0344                 1.0358
 Frc consts  --     24.7752                 5.6679                 5.7039
 IR Inten    --    271.3353                19.3219                20.1902

                     73                     74                     75
                      A                      A                      A
 Frequencies --   3076.7866              3077.6403              3118.9004
 Red. masses --      1.0724                 1.0394                 1.1029
 Frc consts  --      5.9815                 5.8006                 6.3208
 IR Inten    --     12.0182                22.2644                 8.6593

                     76                     77                     78
                      A                      A                      A
 Frequencies --   3123.1367              3127.2355              3146.5301
 Red. masses --      1.1027                 1.1031                 1.1022
 Frc consts  --      6.3368                 6.3560                 6.4293
 IR Inten    --     26.6483                29.9893                14.9840

                     79                     80                     81
                      A                      A                      A
 Frequencies --   3153.1494              3186.0553              3187.7763
 Red. masses --      1.1070                 1.0860                 1.1072
 Frc consts  --      6.4848                 6.4953                 6.6289
 IR Inten    --     17.9834                 1.5692                13.9798

                     82                     83                     84
                      A                      A                      A
 Frequencies --   3197.7198              3207.1848              3217.7752
 Red. masses --      1.0896                 1.0932                 1.0962
 Frc consts  --      6.5643                 6.6250                 6.6874
 IR Inten    --     11.1165                18.7098                18.3753

 - Thermochemistry -
 -------------------
 Temperature   298.150 Kelvin.  Pressure   1.00000 Atm.
 Atom     1 has atomic number  6 and mass  12.00000

 Molecular mass:   218.09429 amu.
 Principal axes and moments of inertia in atomic units:
                           1         2         3
     Eigenvalues --  1841.695684501.886095376.73713
           X            0.99993   0.00405  -0.01069
           Y           -0.00424   0.99983  -0.01799
           Z            0.01061   0.01804   0.99978
 This molecule is an asymmetric top.
 Rotational symmetry number  1.
 Warning -- assumption of classical behavior for rotation
           may cause significant error
 Rotational temperatures (Kelvin)      0.04703     0.01924     0.01611
 Rotational constants (GHZ):           0.97993     0.40089     0.33566
 Zero-point vibrational energy     645356.5 (Joules/Mol)
                                  154.24391 (Kcal/Mol)
 Warning -- explicit consideration of  23 degrees of freedom as
           vibrations may cause significant error
 Vibrational temperatures:     31.63    80.41   123.40   148.43   194.09
          (Kelvin)            206.73   227.86   323.87   329.50   382.57
                              388.20   417.48   446.90   469.25   473.99
                              513.99   551.21   609.12   766.08   782.61
                              789.01   824.38   867.26   939.71  1054.80
                             1074.25  1104.86  1126.32  1157.93  1225.81
                             1272.70  1292.70  1303.21  1389.05  1391.83
                             1417.54  1437.54  1494.72  1509.77  1519.57
                             1552.35  1606.70  1651.54  1665.47  1706.89
                             1720.06  1749.12  1756.01  1795.73  1818.04
                             1868.61  1892.07  1893.26  1912.53  1987.00
                             2054.02  2085.75  2147.03  2170.80  2176.79
                             2180.34  2184.63  2189.81  2192.50  2210.70
                             2215.48  2366.54  2391.81  2615.92  2618.70
                             4387.63  4398.59  4426.81  4428.04  4487.40
                             4493.50  4499.39  4527.15  4536.68  4584.02
                             4586.50  4600.81  4614.42  4629.66

 Zero-point correction=                           0.245803 (Hartree/Particle)
 Thermal correction to Energy=                    0.260612
 Thermal correction to Enthalpy=                  0.261556
 Thermal correction to Gibbs Free Energy=         0.203506
 Sum of electronic and zero-point Energies=           -729.321054
 Sum of electronic and thermal Energies=              -729.306246
 Sum of electronic and thermal Enthalpies=            -729.305301
 Sum of electronic and thermal Free Energies=         -729.363351

                     E (Thermal)             CV                S
                      KCal/Mol        Cal/Mol-Kelvin    Cal/Mol-Kelvin
 Total                  163.537             56.224            122.177
 Electronic               0.000              0.000              0.000
 Translational            0.889              2.981             42.042
 Rotational               0.889              2.981             32.167
 Vibrational            161.759             50.262             47.968
 Vibration     1          0.593              1.985              6.446
 Vibration     2          0.596              1.975              4.597
 Vibration     3          0.601              1.959              3.754
 Vibration     4          0.605              1.947              3.394
 Vibration     5          0.613              1.918              2.875
 Vibration     6          0.616              1.909              2.754
 Vibration     7          0.621              1.893              2.569
 Vibration     8          0.650              1.803              1.918
 Vibration     9          0.652              1.797              1.887
 Vibration    10          0.672              1.736              1.623
 Vibration    11          0.674              1.729              1.597
 Vibration    12          0.686              1.692              1.473
 Vibration    13          0.699              1.653              1.359
 Vibration    14          0.710              1.623              1.279
 Vibration    15          0.712              1.617              1.263
 Vibration    16          0.732              1.560              1.134
 Vibration    17          0.752              1.506              1.027
 Vibration    18          0.786              1.419              0.881
 Vibration    19          0.887              1.178              0.582
 Vibration    20          0.899              1.153              0.557
 Vibration    21          0.904              1.143              0.548
 Vibration    22          0.929              1.090              0.499
 Vibration    23          0.961              1.026              0.445

 Optimization completed.
    -- Stationary point found.
 Normal termination of Gaussian 16 at Thu Dec 10 23:24:14 2020.

 ----------------------------------------------------------------------
 # B3LYP/6-311++G(d,p) empiricaldispersion=gd3bj scf=xqc pop=npa geom=c
 heck
 ----------------------------------------------------------------------

 --------------------------------------
 CID_59637153_JID_6488_Energie_neutraal
 --------------------------------------
 Structure from the checkpoint file:  "JID_6488.chk"
 Charge =  0 Multiplicity = 1

 SCF Done:  E(RB3LYP) =  -729.768219998     A.U. after   15 cycles
 Normal termination of Gaussian 16 at Thu Dec 10 23:28:58 2020.

 ----------------------------------------------------------------------
 # B3LYP/6-311++G(d,p) empiricaldispersion=gd3bj scf=xqc pop=npa geom=c
 heck
 ----------------------------------------------------------------------

 ------------------------------------
 CID_59637153_JID_6488_Energie_kation
 ------------------------------------
 Structure from the checkpoint file:  "JID_6488.chk"
 Charge =  1 Multiplicity = 2

 SCF Done:  E(UB3LYP) =  -729.443173986     A.U. after   33 cycles
 SCF Done:  E(UB3LYP) =  -729.443173986     a.u. after    1 cycles
 Normal termination of Gaussian 16 at Thu Dec 10 23:43:54 2020.
 Gaussian 16:  ES64L-G16RevA.03 25-Dec-2016

 ----------------------------------------------------------------------
 # B3LYP/6-311++G(d,p) empiricaldispersion=gd3bj scf=xqc pop=npa geom=c
 heck
 ----------------------------------------------------------------------

 -----------------------------------
 CID_59637153_JID_6488_Energie_anion
 -----------------------------------
 Structure from the checkpoint file:  "JID_6488.chk"
 Charge = -1 Multiplicity = 2

                         Standard orientation:
 ---------------------------------------------------------------------
 Center     Atomic      Atomic             Coordinates (Angstroms)
 Number     Number       Type             X           Y           Z
 ---------------------------------------------------------------------
      1          6           0        0.097901    2.435917   -1.087138
      2          6           0        0.030816    1.211528   -0.162759
      3          6           0       -0.820156    0.065541   -0.826184
      4          6           0       -0.006029   -1.233762   -0.658975
      5          8           0       -0.398698   -2.355554   -0.909390
      6          6           0        1.344068   -0.833956   -0.214616
      7          6           0        2.466175   -1.649781   -0.053705
      8          6           0        3.659020   -1.057216    0.348425
      9          6           0        3.714278    0.325638    0.582515
     10          6           0        2.585552    1.132720    0.424311
     11          6           0        1.388217    0.542183    0.021895
     12          6           0       -2.251666    0.003310   -0.345196
     13          8           0       -3.167284    0.619418   -0.847564
     14          8           0       -2.381560   -0.773434    0.747572
     15          6           0       -3.708618   -0.850064    1.291030
     16          6           0       -0.514279    1.634916    1.216954
     17          1           0        0.698278    3.235440   -0.639015
     18          1           0       -0.909892    2.825642   -1.266161
     19          1           0        0.543985    2.176652   -2.053295
     20          1           0       -0.878086    0.259484   -1.903195
     21          1           0        2.389749   -2.715347   -0.248049
     22          1           0        4.552504   -1.660399    0.479709
     23          1           0        4.653032    0.775956    0.893441
     24          1           0        2.646887    2.200505    0.615195
     25          1           0       -4.047856    0.138957    1.610702
     26          1           0       -4.402965   -1.240726    0.543458
     27          1           0       -3.636290   -1.527531    2.141563
     28          1           0        0.159631    2.367323    1.673212
     29          1           0       -1.501496    2.099498    1.116434
     30          1           0       -0.598834    0.779275    1.891713
 ---------------------------------------------------------------------

 SCF Done:  E(UB3LYP) =  -729.781767378     A.U. after   27 cycles

 The electronic state is 2-A.
 Alpha  occ. eigenvalues --  -19.05506 -18.99503 -18.91703 -10.17994 -10.12519
 Alpha  occ. eigenvalues --  -10.07204 -10.05913 -10.04745 -10.04723 -10.04588
 Alpha  occ. eigenvalues --  -10.02851 -10.02837 -10.02447 -10.01688 -10.01297
 Alpha  occ. eigenvalues --  -10.00488  -0.99499  -0.90597  -0.85839  -0.73302
 Alpha  occ. eigenvalues --   -0.68722  -0.63966  -0.61461  -0.59519  -0.57930
 Alpha  occ. eigenvalues --   -0.57335  -0.49053  -0.47990  -0.45488  -0.42044
 Alpha  occ. eigenvalues --   -0.41052  -0.38053  -0.37730  -0.36459  -0.33890
 Alpha  occ. eigenvalues --   -0.33525  -0.32639  -0.31838  -0.30363  -0.29328
 Alpha  occ. eigenvalues --   -0.28788  -0.27980  -0.27453  -0.26648  -0.25648
 Alpha  occ. eigenvalues --   -0.25320  -0.24141  -0.22948  -0.22777  -0.21432
 Alpha  occ. eigenvalues --   -0.20549  -0.19757  -0.19175  -0.18705  -0.16199
 Alpha  occ. eigenvalues --   -0.11224  -0.10785  -0.07864   0.04745
 Alpha virt. eigenvalues --    0.07649   0.08611   0.09605   0.10486   0.10842
 Alpha virt. eigenvalues --    0.11388   0.11561   0.12020   0.12275   0.12617
 Alpha virt. eigenvalues --    0.13017   0.13633   0.14362   0.14710   0.14949

  Beta  occ. eigenvalues --  -19.05506 -18.99495 -18.91169 -10.17960 -10.12519
  Beta  occ. eigenvalues --  -10.07209 -10.05556 -10.04780 -10.04717 -10.04584
  Beta  occ. eigenvalues --  -10.02971 -10.02743 -10.02430 -10.01322 -10.01010
  Beta  occ. eigenvalues --  -10.00404  -0.99485  -0.90583  -0.84860  -0.73057
  Beta  occ. eigenvalues --   -0.68478  -0.63903  -0.61006  -0.59214  -0.57755
  Beta  occ. eigenvalues --   -0.57276  -0.48831  -0.47368  -0.45385  -0.41897
  Beta  occ. eigenvalues --   -0.40670  -0.38000  -0.37627  -0.36387  -0.33660
  Beta  occ. eigenvalues --   -0.33390  -0.32485  -0.31713  -0.30168  -0.29095
  Beta  occ. eigenvalues --   -0.28712  -0.27823  -0.27369  -0.26368  -0.25350
  Beta  occ. eigenvalues --   -0.25172  -0.23946  -0.22535  -0.21794  -0.21090
  Beta  occ. eigenvalues --   -0.20284  -0.19725  -0.18636  -0.17419  -0.16021
  Beta  occ. eigenvalues --   -0.10159  -0.09024  -0.07404
  Beta virt. eigenvalues --    0.07616   0.08552   0.09556   0.10362   0.10792
  Beta virt. eigenvalues --    0.11280   0.11366   0.11645   0.12002   0.12320
  Beta virt. eigenvalues --    0.12760   0.13162   0.13586   0.14423   0.14685

 Mulliken charges and spin densities:
               1          2
     1  C   -0.802463  -0.011130
     2  C    0.933677  -0.005214
     3  C    0.274661   0.049572
     4  C   -0.793792   0.134168
     5  O   -0.409602   0.203774
     6  C    0.313681   0.009555
     7  C   -0.201679   0.275126
     8  C   -0.220002  -0.080779
     9  C   -0.446410   0.295028
    10  C   -0.162413   0.025820
    11  C    0.189800   0.082347
    12  C   -0.392983  -0.046440
    13  O   -0.232109   0.003255
    14  O    0.014350  -0.005296
    15  C   -0.198717  -0.006197
    16  C   -0.784578  -0.002598
    17  H    0.096847   0.012895
    18  H    0.154737   0.013395
    19  H    0.137976   0.005359
    20  H    0.191216   0.067350
    21  H    0.146945  -0.016484
    22  H    0.102021   0.006761
    23  H    0.101236  -0.025011
    24  H    0.089028  -0.001063
    25  H    0.151327   0.005349
    26  H    0.161868   0.003052
    27  H    0.138066   0.002364
    28  H    0.143278   0.004363
    29  H    0.146412   0.001592
    30  H    0.157621  -0.000912
 Sum of Mulliken charges =  -1.00000   1.00000

 Dipole moment (field-independent basis, Debye):
    X=             -2.7562    Y=              3.9730    Z=              2.8393  Tot=              5.6074
 Quadrupole moment (field-independent basis, Debye-Ang):
   XX=           -126.8928   YY=           -117.6144   ZZ=           -105.9071
   XY=              3.8107   XZ=             -9.2689   YZ=             -3.5463

 Summary of Natural Population Analysis:

                                       Natural Population
                Natural  -----------------------------------------------
    Atom  No    Charge         Core      Valence    Rydberg      Total
 -----------------------------------------------------------------------
      C    1   -0.27978      0.99963     2.27452    0.00563     3.27978
      C    2   -0.03731      0.99954     2.02723    0.01054     3.03731
      C    3   -0.18829      0.99949     2.17341    0.01540     3.18829
      C    4    0.32567      0.99959     1.65392    0.02082     2.67433
      O    5   -0.25053      0.99987     3.24400    0.00666     4.25053
      C    6   -0.05830      0.99941     2.04771    0.01118     3.05830
      C    7   -0.02617      0.99953     2.01795    0.00869     3.02617
      C    8   -0.13973      0.99958     2.13118    0.00897     3.13973
      C    9   -0.03139      0.99959     2.02223    0.00958     3.03139
      C   10   -0.12122      0.99951     2.11311    0.00860     3.12122
      C   11    0.02395      0.99946     1.96592    0.01067     2.97605
      C   12    0.42689      0.99965     1.54700    0.02646     2.57311
      O   13   -0.31892      0.99987     3.31329    0.00576     4.31892
      O   14   -0.27024      0.99985     3.26185    0.00854     4.27024
      C   15   -0.10599      0.99961     2.09834    0.00805     3.10599
      C   16   -0.28434      0.99963     2.27944    0.00527     3.28434
      H   17    0.09435      0.00000     0.40477    0.00089     0.40565
      H   18    0.09883      0.00000     0.40038    0.00079     0.40117
      H   19    0.10091      0.00000     0.39837    0.00072     0.39909
      H   20    0.11874      0.00000     0.38023    0.00103     0.38126
      H   21    0.09686      0.00000     0.40159    0.00155     0.40314
      H   22    0.08935      0.00000     0.40961    0.00104     0.41065
      H   23    0.08322      0.00000     0.41526    0.00152     0.41678
      H   24    0.08909      0.00000     0.40939    0.00152     0.41091
      H   25    0.08641      0.00000     0.41251    0.00108     0.41359
      H   26    0.09011      0.00000     0.40881    0.00108     0.40989
      H   27    0.08852      0.00000     0.41073    0.00076     0.41148
      H   28    0.09767      0.00000     0.40150    0.00083     0.40233
      H   29    0.09399      0.00000     0.40514    0.00087     0.40601
      H   30    0.10769      0.00000     0.39145    0.00085     0.39231
 =======================================================================
   * Total *   -0.00000     15.99381    41.82085    0.18534    58.00000

 Normal termination of Gaussian 16 at Thu Dec 10 23:56:22 2020.
