 Gaussian 16, Revision A.03,

 -----------------------------------------------------------
 # opt freq B3LYP/6-31G(d) empiricaldispersion=gd3bj scf=xqc
 -----------------------------------------------------------

 ------------------------------
 CID_82575725_JID_8310_neutraal
 ------------------------------
 Symbolic Z-matrix:
 Charge =  0 Multiplicity = 1

 SCF Done:  E(RB3LYP) =  -803.117781927     A.U. after   15 cycles
 SCF Done:  E(RB3LYP) =  -803.125357746     A.U. after   12 cycles
 SCF Done:  E(RB3LYP) =  -803.125604025     A.U. after   12 cycles
 SCF Done:  E(RB3LYP) =  -803.125238791     A.U. after   12 cycles
 SCF Done:  E(RB3LYP) =  -803.126099774     A.U. after   11 cycles
 SCF Done:  E(RB3LYP) =  -803.126125127     A.U. after    9 cycles
 SCF Done:  E(RB3LYP) =  -803.126131949     A.U. after    9 cycles
 SCF Done:  E(RB3LYP) =  -803.126133816     A.U. after    8 cycles
 SCF Done:  E(RB3LYP) =  -803.126134450     A.U. after    8 cycles
 SCF Done:  E(RB3LYP) =  -803.126134546     A.U. after    7 cycles
 SCF Done:  E(RB3LYP) =  -803.126134603     A.U. after    7 cycles
 Optimization completed.
    -- Stationary point found.
 Normal termination of Gaussian 16 at Fri Dec 11 19:55:26 2020.

 --------------------------------------------------------------------
 #N Geom=AllCheck Guess=TCheck SCRF=Check GenChk RB3LYP/6-31G(d) Freq
 --------------------------------------------------------------------

 Structure from the checkpoint file:  "JID_8310.chk"
 ------------------------------
 CID_82575725_JID_8310_neutraal
 ------------------------------
 Charge =  0 Multiplicity = 1

 SCF Done:  E(RB3LYP) =  -803.126134603     A.U. after    1 cycles

  Exact polarizability: 238.093  13.165 178.451   1.960   1.253  92.734
 Approx polarizability: 359.652  24.144 291.579  15.614   3.223 144.011

                      1                      2                      3
                      A                      A                      A
 Frequencies --     50.0174                65.5713                85.9124
 Red. masses --      4.2186                 3.7496                 2.7658
 Frc consts  --      0.0062                 0.0095                 0.0120
 IR Inten    --      0.5564                 1.6674                 2.9641

                      4                      5                      6
                      A                      A                      A
 Frequencies --    121.7820               134.6748               154.1722
 Red. masses --      3.4154                 3.9565                 5.0520
 Frc consts  --      0.0298                 0.0423                 0.0708
 IR Inten    --      0.0903                 0.1334                 4.2552

                      7                      8                      9
                      A                      A                      A
 Frequencies --    189.3674               212.1835               214.0808
 Red. masses --      1.7008                 1.5216                 1.4798
 Frc consts  --      0.0359                 0.0404                 0.0400
 IR Inten    --      0.8901                 5.0454                16.9152

                     10                     11                     12
                      A                      A                      A
 Frequencies --    256.9460               276.2055               303.2769
 Red. masses --      2.6664                 3.5427                 3.7352
 Frc consts  --      0.1037                 0.1592                 0.2024
 IR Inten    --     10.9271                 4.5386                 1.5378

                     13                     14                     15
                      A                      A                      A
 Frequencies --    311.8850               344.3759               353.0153
 Red. masses --      4.3851                 4.0784                 2.2511
 Frc consts  --      0.2513                 0.2850                 0.1653
 IR Inten    --      1.7724                 4.6438                 3.0437

                     16                     17                     18
                      A                      A                      A
 Frequencies --    396.6566               400.8438               416.9130
 Red. masses --      4.2739                 6.6427                 6.2578
 Frc consts  --      0.3962                 0.6288                 0.6409
 IR Inten    --      0.8603                 0.9519                 0.9003

                     19                     20                     21
                      A                      A                      A
 Frequencies --    449.6790               497.0626               527.4327
 Red. masses --      3.3603                 2.6728                 3.0750
 Frc consts  --      0.4003                 0.3891                 0.5040
 IR Inten    --     12.9938                 5.4163                 4.0354

                     22                     23                     24
                      A                      A                      A
 Frequencies --    556.3586               568.1289               602.8387
 Red. masses --      2.4557                 4.1217                 3.6338
 Frc consts  --      0.4479                 0.7838                 0.7781
 IR Inten    --      2.0555                 3.6985                10.3766

                     25                     26                     27
                      A                      A                      A
 Frequencies --    612.6679               657.4423               680.6459
 Red. masses --      5.6017                 5.8464                 5.7550
 Frc consts  --      1.2388                 1.4889                 1.5709
 IR Inten    --      3.6010                 2.4323                 8.0236

                     28                     29                     30
                      A                      A                      A
 Frequencies --    726.8118               750.6451               761.9862
 Red. masses --      5.3303                 4.3442                 3.9736
 Frc consts  --      1.6590                 1.4422                 1.3593
 IR Inten    --      4.6705                 7.4307                11.3618

                     31                     32                     33
                      A                      A                      A
 Frequencies --    806.5098               835.8139               848.7418
 Red. masses --      5.2523                 1.3547                 3.2273
 Frc consts  --      2.0129                 0.5576                 1.3698
 IR Inten    --      0.8911                 5.0156                24.8397

                     34                     35                     36
                      A                      A                      A
 Frequencies --    880.0705               887.2320               900.1291
 Red. masses --      2.2849                 1.8369                 1.6805
 Frc consts  --      1.0427                 0.8520                 0.8022
 IR Inten    --     44.7673                25.8277               126.5427

                     37                     38                     39
                      A                      A                      A
 Frequencies --    911.0491               925.4755               930.1619
 Red. masses --      1.7719                 2.0752                 1.4193
 Frc consts  --      0.8665                 1.0472                 0.7235
 IR Inten    --     36.4006                38.3115                 0.2692

                     40                     41                     42
                      A                      A                      A
 Frequencies --    947.5351               972.2821               973.5041
 Red. masses --      2.5282                 2.3030                 1.4423
 Frc consts  --      1.3374                 1.2827                 0.8054
 IR Inten    --      1.9994                22.5818                 3.7151

                     43                     44                     45
                      A                      A                      A
 Frequencies --   1008.9792              1028.2292              1082.3757
 Red. masses --      2.3627                 1.3534                 2.2164
 Frc consts  --      1.4172                 0.8431                 1.5299
 IR Inten    --     31.6589                 2.0138                53.1129

                     46                     47                     48
                      A                      A                      A
 Frequencies --   1091.5508              1105.8922              1114.5561
 Red. masses --      3.3728                 2.4637                 2.2504
 Frc consts  --      2.3677                 1.7753                 1.6471
 IR Inten    --    155.8545                19.6538                18.9291

                     49                     50                     51
                      A                      A                      A
 Frequencies --   1154.6891              1170.9090              1180.1932
 Red. masses --      2.4808                 2.0954                 3.3241
 Frc consts  --      1.9488                 1.6926                 2.7279
 IR Inten    --      7.2083                 2.7918                13.7863

                     52                     53                     54
                      A                      A                      A
 Frequencies --   1221.9694              1248.6123              1256.8492
 Red. masses --      2.1763                 1.5518                 1.2579
 Frc consts  --      1.9147                 1.4254                 1.1707
 IR Inten    --     25.3502                14.4593                 6.3227

                     55                     56                     57
                      A                      A                      A
 Frequencies --   1264.1349              1295.2938              1304.8426
 Red. masses --      1.3806                 1.8026                 2.1893
 Frc consts  --      1.2999                 1.7819                 2.1962
 IR Inten    --      9.9766               124.6577               159.0027

                     58                     59                     60
                      A                      A                      A
 Frequencies --   1310.6087              1333.8525              1340.7000
 Red. masses --      1.3495                 3.7600                 1.2277
 Frc consts  --      1.3658                 3.9415                 1.3001
 IR Inten    --     17.5612                 1.4416                94.2851

                     61                     62                     63
                      A                      A                      A
 Frequencies --   1373.2642              1401.9643              1407.4494
 Red. masses --      1.8016                 2.9262                 1.8827
 Frc consts  --      2.0018                 3.3886                 2.1973
 IR Inten    --     52.8363                19.6520                12.2119

                     64                     65                     66
                      A                      A                      A
 Frequencies --   1415.2625              1423.3088              1426.3287
 Red. masses --      2.4515                 1.4721                 1.3172
 Frc consts  --      2.8930                 1.7570                 1.5788
 IR Inten    --     48.0202                17.6387                 8.6306

                     67                     68                     69
                      A                      A                      A
 Frequencies --   1436.5011              1441.1923              1455.1451
 Red. masses --      1.4666                 1.3119                 3.1052
 Frc consts  --      1.7831                 1.6055                 3.8739
 IR Inten    --     70.6163                 7.1625                12.8794

                     70                     71                     72
                      A                      A                      A
 Frequencies --   1490.0364              1507.7736              1522.0854
 Red. masses --      1.1035                 2.0793                 1.1314
 Frc consts  --      1.4435                 2.7852                 1.5443
 IR Inten    --     10.2378                69.4811                 2.8913

                     73                     74                     75
                      A                      A                      A
 Frequencies --   1523.2601              1527.5864              1530.6786
 Red. masses --      1.0719                 1.0667                 1.3760
 Frc consts  --      1.4654                 1.4666                 1.8995
 IR Inten    --      3.9410                 2.6800                 7.2187

                     76                     77                     78
                      A                      A                      A
 Frequencies --   1548.4896              1606.4949              1641.3706
 Red. masses --      2.6715                 8.0021                 5.8040
 Frc consts  --      3.7742                12.1678                 9.2128
 IR Inten    --    166.7155                39.0297                16.1429

                     79                     80                     81
                      A                      A                      A
 Frequencies --   1682.3669              1700.6540              3021.5435
 Red. masses --      6.7500                 1.0978                 1.0695
 Frc consts  --     11.2564                 1.8708                 5.7528
 IR Inten    --     17.4884                16.5296                18.8476

                     82                     83                     84
                      A                      A                      A
 Frequencies --   3026.2104              3047.5469              3064.0059
 Red. masses --      1.0691                 1.0642                 1.0349
 Frc consts  --      5.7688                 5.8231                 5.7244
 IR Inten    --     59.4160                32.5690                17.9548

                     85                     86                     87
                      A                      A                      A
 Frequencies --   3086.9207              3102.3080              3120.2101
 Red. masses --      1.0863                 1.0982                 1.0964
 Frc consts  --      6.0986                 6.2274                 6.2890
 IR Inten    --      7.4300                28.5175                32.7878

                     88                     89                     90
                      A                      A                      A
 Frequencies --   3122.9735              3133.6202              3139.8005
 Red. masses --      1.0989                 1.1012                 1.1030
 Frc consts  --      6.3145                 6.3712                 6.4066
 IR Inten    --     50.0581                25.9777                31.6865

                     91                     92                     93
                      A                      A                      A
 Frequencies --   3178.2449              3202.1026              3208.8861
 Red. masses --      1.0874                 1.0955                 1.0911
 Frc consts  --      6.4719                 6.6183                 6.6196
 IR Inten    --     19.4914                29.6631                10.3060

                     94                     95                     96
                      A                      A                      A
 Frequencies --   3252.5039              3475.0627              3562.2602
 Red. masses --      1.0890                 1.0500                 1.0909
 Frc consts  --      6.7877                 7.4710                 8.1565
 IR Inten    --      4.1605                 1.3041                 0.2609

 - Thermochemistry -
 -------------------
 Temperature   298.150 Kelvin.  Pressure   1.00000 Atm.
 Atom     1 has atomic number  6 and mass  12.00000

 Molecular mass:   244.12118 amu.
 Principal axes and moments of inertia in atomic units:
                           1         2         3
     Eigenvalues --  2370.828876320.205468151.24141
           X            0.99992  -0.00783  -0.00955
           Y            0.00788   0.99995   0.00573
           Z            0.00950  -0.00581   0.99994
 This molecule is an asymmetric top.
 Rotational symmetry number  1.
 Warning -- assumption of classical behavior for rotation
           may cause significant error
 Rotational temperatures (Kelvin)      0.03653     0.01370     0.01063
 Rotational constants (GHZ):           0.76123     0.28555     0.22141
 Zero-point vibrational energy     746575.8 (Joules/Mol)
                                  178.43591 (Kcal/Mol)
 Warning -- explicit consideration of  25 degrees of freedom as
           vibrations may cause significant error
 Vibrational temperatures:     71.96    94.34   123.61   175.22   193.77
          (Kelvin)            221.82   272.46   305.28   308.01   369.69
                              397.40   436.35   448.73   495.48   507.91
                              570.70   576.72   599.84   646.99   715.16
                              758.86   800.48   817.41   867.35   881.49
                              945.91   979.30  1045.72  1080.01  1096.33
                             1160.39  1202.55  1221.15  1266.23  1276.53
                             1295.09  1310.80  1331.55  1338.30  1363.29
                             1398.90  1400.66  1451.70  1479.39  1557.30
                             1570.50  1591.13  1603.60  1661.34  1684.68
                             1698.03  1758.14  1796.47  1808.33  1818.81
                             1863.64  1877.38  1885.67  1919.12  1928.97
                             1975.82  2017.11  2025.01  2036.25  2047.82
                             2052.17  2066.80  2073.55  2093.63  2143.83
                             2169.35  2189.94  2191.63  2197.86  2202.31
                             2227.93  2311.39  2361.57  2420.55  2446.86
                             4347.33  4354.04  4384.74  4408.42  4441.39
                             4463.53  4489.29  4493.26  4508.58  4517.47
                             4572.79  4607.11  4616.87  4679.63  4999.84
                             5125.30

 Zero-point correction=                           0.284356 (Hartree/Particle)
 Thermal correction to Energy=                    0.299637
 Thermal correction to Enthalpy=                  0.300581
 Thermal correction to Gibbs Free Energy=         0.242326
 Sum of electronic and zero-point Energies=           -802.841779
 Sum of electronic and thermal Energies=              -802.826498
 Sum of electronic and thermal Enthalpies=            -802.825554
 Sum of electronic and thermal Free Energies=         -802.883809

                     E (Thermal)             CV                S
                      KCal/Mol        Cal/Mol-Kelvin    Cal/Mol-Kelvin
 Total                  188.025             61.003            122.609
 Electronic               0.000              0.000              0.000
 Translational            0.889              2.981             42.378
 Rotational               0.889              2.981             33.168
 Vibrational            186.247             55.041             47.063
 Vibration     1          0.595              1.978              4.817
 Vibration     2          0.597              1.971              4.282
 Vibration     3          0.601              1.959              3.751
 Vibration     4          0.609              1.931              3.072
 Vibration     5          0.613              1.919              2.878
 Vibration     6          0.620              1.898              2.620
 Vibration     7          0.633              1.855              2.234
 Vibration     8          0.643              1.822              2.025
 Vibration     9          0.644              1.820              2.009
 Vibration    10          0.667              1.751              1.682
 Vibration    11          0.678              1.717              1.557
 Vibration    12          0.695              1.667              1.399
 Vibration    13          0.700              1.651              1.352
 Vibration    14          0.723              1.587              1.192
 Vibration    15          0.729              1.569              1.153
 Vibration    16          0.763              1.477              0.975
 Vibration    17          0.767              1.468              0.960
 Vibration    18          0.780              1.433              0.903
 Vibration    19          0.809              1.362              0.797
 Vibration    20          0.853              1.257              0.666
 Vibration    21          0.882              1.189              0.593
 Vibration    22          0.912              1.126              0.531
 Vibration    23          0.924              1.100              0.508
 Vibration    24          0.961              1.026              0.445
 Vibration    25          0.972              1.005              0.428

 Optimization completed.
    -- Stationary point found.
 Normal termination of Gaussian 16 at Fri Dec 11 20:09:39 2020.

 ----------------------------------------------------------------------
 # B3LYP/6-311++G(d,p) empiricaldispersion=gd3bj scf=xqc pop=npa geom=c
 heck
 ----------------------------------------------------------------------

 --------------------------------------
 CID_82575725_JID_8310_Energie_neutraal
 --------------------------------------
 Structure from the checkpoint file:  "JID_8310.chk"
 Charge =  0 Multiplicity = 1

 SCF Done:  E(RB3LYP) =  -803.344358920     A.U. after   17 cycles
 Normal termination of Gaussian 16 at Fri Dec 11 20:17:01 2020.

 ----------------------------------------------------------------------
 # B3LYP/6-311++G(d,p) empiricaldispersion=gd3bj scf=xqc pop=npa geom=c
 heck
 ----------------------------------------------------------------------

 ------------------------------------
 CID_82575725_JID_8310_Energie_kation
 ------------------------------------
 Structure from the checkpoint file:  "JID_8310.chk"
 Charge =  1 Multiplicity = 2

 SCF Done:  E(UB3LYP) =  -803.056168685     A.U. after   27 cycles
 Normal termination of Gaussian 16 at Fri Dec 11 20:33:26 2020.
 Gaussian 16:  ES64L-G16RevA.03 25-Dec-2016

 ----------------------------------------------------------------------
 # B3LYP/6-311++G(d,p) empiricaldispersion=gd3bj scf=xqc pop=npa geom=c
 heck
 ----------------------------------------------------------------------

 -----------------------------------
 CID_82575725_JID_8310_Energie_anion
 -----------------------------------
 Structure from the checkpoint file:  "JID_8310.chk"
 Charge = -1 Multiplicity = 2

                         Standard orientation:
 ---------------------------------------------------------------------
 Center     Atomic      Atomic             Coordinates (Angstroms)
 Number     Number       Type             X           Y           Z
 ---------------------------------------------------------------------
      1          6           0        3.015007   -2.134845   -1.203950
      2          6           0        3.139273   -1.362095    0.114571
      3          6           0        2.507180    0.031271    0.068482
      4          7           0        3.375660    1.023546    0.187591
      5          6           0        2.928686    2.306397    0.186587
      6          6           0        1.605637    2.650801    0.078968
      7          6           0        0.639902    1.621732   -0.047104
      8          6           0       -0.745032    1.894412   -0.154831
      9          6           0       -1.669266    0.883073   -0.285317
     10          6           0       -1.223216   -0.474466   -0.305166
     11          6           0        0.119572   -0.757137   -0.186292
     12          6           0        1.094689    0.265548   -0.059382
     13          8           0       -2.078453   -1.523835   -0.527896
     14          6           0       -3.145394   -1.708543    0.408888
     15          6           0       -4.302822   -0.745537    0.183157
     16          6           0       -3.937699    0.707154    0.455929
     17          8           0       -2.980881    1.228482   -0.474192
     18          7           0        2.716872   -2.206851    1.244453
     19          1           0        1.980023   -2.392101   -1.449127
     20          1           0        3.585527   -3.065330   -1.128820
     21          1           0        3.413283   -1.539222   -2.031764
     22          1           0        4.202594   -1.157573    0.270981
     23          1           0        3.698240    3.069130    0.282648
     24          1           0        1.293270    3.691084    0.088811
     25          1           0       -1.099726    2.920414   -0.153365
     26          1           0        0.395835   -1.801426   -0.235074
     27          1           0       -2.753827   -1.615675    1.432657
     28          1           0       -3.472247   -2.740934    0.259347
     29          1           0       -4.655971   -0.841530   -0.849835
     30          1           0       -5.131399   -1.029285    0.846792
     31          1           0       -4.814441    1.349702    0.340673
     32          1           0       -3.554259    0.827946    1.479632
     33          1           0        2.861985   -1.695583    2.114010
     34          1           0        1.718970   -2.400247    1.197602
 ---------------------------------------------------------------------

 SCF Done:  E(UB3LYP) =  -803.352174349     A.U. after   29 cycles

 The electronic state is 2-A.
 Alpha  occ. eigenvalues --  -19.02826 -19.02780 -14.18141 -14.15850 -10.12263
 Alpha  occ. eigenvalues --  -10.12178 -10.09708 -10.09544 -10.07970 -10.07442
 Alpha  occ. eigenvalues --  -10.06106 -10.05864 -10.05552 -10.05204 -10.04827
 Alpha  occ. eigenvalues --  -10.03213 -10.03157 -10.03059  -0.95469  -0.93323
 Alpha  occ. eigenvalues --   -0.80338  -0.76839  -0.72752  -0.68827  -0.65487
 Alpha  occ. eigenvalues --   -0.62860  -0.62598  -0.60423  -0.57575  -0.53073
 Alpha  occ. eigenvalues --   -0.50375  -0.48514  -0.48300  -0.45782  -0.42393
 Alpha  occ. eigenvalues --   -0.40845  -0.39931  -0.38224  -0.36417  -0.35542
 Alpha  occ. eigenvalues --   -0.35456  -0.34221  -0.32361  -0.32070  -0.31575
 Alpha  occ. eigenvalues --   -0.30776  -0.30560  -0.29763  -0.29192  -0.27916
 Alpha  occ. eigenvalues --   -0.26671  -0.26219  -0.25449  -0.23839  -0.23569
 Alpha  occ. eigenvalues --   -0.22508  -0.21688  -0.20205  -0.18487  -0.16988
 Alpha  occ. eigenvalues --   -0.16106  -0.13692  -0.11622  -0.11310  -0.09413
 Alpha  occ. eigenvalues --    0.03922
 Alpha virt. eigenvalues --    0.06231   0.08070   0.08583   0.09004   0.09363
 Alpha virt. eigenvalues --    0.09942   0.10339   0.10930   0.11470   0.11619
 Alpha virt. eigenvalues --    0.11899   0.12503   0.12746   0.13060   0.14055

  Beta  occ. eigenvalues --  -19.02834 -19.02784 -14.18121 -14.15713 -10.12249
  Beta  occ. eigenvalues --  -10.12153 -10.09671 -10.09416 -10.07990 -10.07418
  Beta  occ. eigenvalues --  -10.06106 -10.05604 -10.05553 -10.05273 -10.04814
  Beta  occ. eigenvalues --  -10.02948 -10.02937 -10.02835  -0.95415  -0.93300
  Beta  occ. eigenvalues --   -0.80003  -0.76754  -0.72502  -0.68749  -0.65150
  Beta  occ. eigenvalues --   -0.62672  -0.62379  -0.60281  -0.57325  -0.52716
  Beta  occ. eigenvalues --   -0.50266  -0.48257  -0.48146  -0.45610  -0.42320
  Beta  occ. eigenvalues --   -0.40652  -0.39817  -0.38188  -0.36300  -0.35479
  Beta  occ. eigenvalues --   -0.35345  -0.34104  -0.32203  -0.31885  -0.31475
  Beta  occ. eigenvalues --   -0.30707  -0.30402  -0.29614  -0.29078  -0.27417
  Beta  occ. eigenvalues --   -0.26564  -0.26133  -0.25232  -0.23602  -0.23471
  Beta  occ. eigenvalues --   -0.22420  -0.21584  -0.19565  -0.18385  -0.16785
  Beta  occ. eigenvalues --   -0.15300  -0.13320  -0.11332  -0.10705  -0.08003
  Beta virt. eigenvalues --    0.06609   0.08276   0.08569   0.08948   0.09202
  Beta virt. eigenvalues --    0.09371   0.10096   0.10340   0.11056   0.11525
  Beta virt. eigenvalues --    0.11662   0.11916   0.12488   0.12723   0.13663

 Mulliken charges and spin densities:
               1          2
     1  C   -0.537904   0.007763
     2  C   -0.459508  -0.037055
     3  C   -0.883328   0.182182
     4  N    0.012561   0.068518
     5  C   -0.116133   0.006986
     6  C   -0.293554   0.144708
     7  C    0.713599  -0.018960
     8  C   -0.127797   0.144059
     9  C   -0.231833   0.053409
    10  C   -0.221390  -0.016767
    11  C   -0.173749   0.224144
    12  C    0.510987  -0.055579
    13  O   -0.135973   0.007814
    14  C   -0.118077  -0.064239
    15  C    0.213251  -0.506050
    16  C   -0.058007  -0.160892
    17  O   -0.146968   0.008168
    18  N   -0.280131   0.003073
    19  H    0.124839   0.004506
    20  H    0.127940   0.000626
    21  H    0.139391   0.000798
    22  H    0.181961  -0.000469
    23  H    0.141148  -0.000497
    24  H    0.093125  -0.013041
    25  H    0.117145  -0.005574
    26  H    0.135073  -0.013405
    27  H    0.108380  -0.000552
    28  H   -0.023975   0.201615
    29  H    0.126835   0.035727
    30  H   -0.372190   0.499556
    31  H   -0.106856   0.286967
    32  H    0.107142   0.009246
    33  H    0.227225   0.003223
    34  H    0.206770  -0.000008
 Sum of Mulliken charges =  -1.00000   1.00000

 Dipole moment (field-independent basis, Debye):
    X=             -1.0765    Y=             -0.3742    Z=              0.8349  Tot=              1.4127
 Quadrupole moment (field-independent basis, Debye-Ang):
   XX=           -174.5664   YY=           -132.5407   ZZ=           -120.0964
   XY=             -0.5775   XZ=             -2.8189   YZ=              1.9380

 Summary of Natural Population Analysis:

                                       Natural Population
                Natural  -----------------------------------------------
    Atom  No    Charge         Core      Valence    Rydberg      Total
 -----------------------------------------------------------------------
      C    1   -0.28291      0.99965     2.27868    0.00459     3.28291
      C    2   -0.03079      0.99958     2.01931    0.01190     3.03079
      C    3    0.16795      0.99950     1.81818    0.01436     2.83205
      N    4   -0.23872      0.99968     2.72785    0.01119     3.73872
      C    5   -0.01152      0.99962     1.99090    0.02100     3.01152
      C    6   -0.04425      0.99953     2.03845    0.00628     3.04425
      C    7   -0.04097      0.99953     2.02803    0.01341     3.04097
      C    8   -0.07585      0.99949     2.06776    0.00859     3.07585
      C    9    0.15529      0.99932     1.83110    0.01429     2.84471
      C   10    0.13558      0.99932     1.85269    0.01240     2.86442
      C   11   -0.06396      0.99950     2.05635    0.00811     3.06396
      C   12   -0.05936      0.99947     2.04932    0.01058     3.05936
      O   13   -0.29147      0.99986     3.28181    0.00980     4.29147
      C   14   -0.00862      0.99956     1.99483    0.01424     3.00862
      C   15   -0.22009      0.99962     2.21146    0.00900     3.22009
      C   16   -0.00779      0.99956     1.99414    0.01410     3.00779
      O   17   -0.29010      0.99986     3.28035    0.00989     4.29010
      N   18   -0.42174      0.99977     2.91242    0.00955     3.92174
      H   19    0.09681      0.00000     0.40236    0.00083     0.40319
      H   20    0.09541      0.00000     0.40354    0.00105     0.40459
      H   21    0.09987      0.00000     0.39938    0.00074     0.40013
      H   22    0.09694      0.00000     0.40091    0.00215     0.40306
      H   23    0.07956      0.00000     0.41912    0.00132     0.42044
      H   24    0.08683      0.00000     0.41160    0.00156     0.41317
      H   25    0.09491      0.00000     0.40346    0.00163     0.40509
      H   26    0.09163      0.00000     0.40547    0.00289     0.40837
      H   27    0.08042      0.00000     0.41816    0.00143     0.41958
      H   28    0.08908      0.00000     0.40967    0.00126     0.41092
      H   29    0.10170      0.00000     0.39693    0.00137     0.39830
      H   30    0.10077      0.00000     0.39721    0.00202     0.39923
      H   31    0.08965      0.00000     0.40901    0.00134     0.41035
      H   32    0.08055      0.00000     0.41803    0.00142     0.41945
      H   33    0.17355      0.00000     0.32496    0.00148     0.32645
      H   34    0.17248      0.00000     0.32592    0.00160     0.32752
 =======================================================================
   * Total *    0.00083     17.99242    46.77939    0.22736    64.99917

 Normal termination of Gaussian 16 at Fri Dec 11 20:50:54 2020.
