 Gaussian 16, Revision A.03,

 -----------------------------------------------------------
 # opt freq B3LYP/6-31G(d) empiricaldispersion=gd3bj scf=xqc
 -----------------------------------------------------------

 ------------------------------
 CID_87147969_JID_2827_neutraal
 ------------------------------
 Symbolic Z-matrix:
 Charge =  0 Multiplicity = 1

 SCF Done:  E(RB3LYP) =  -721.917542110     A.U. after   15 cycles
 SCF Done:  E(RB3LYP) =  -721.918263745     A.U. after   14 cycles
 SCF Done:  E(RB3LYP) =  -721.923101321     A.U. after   11 cycles
 SCF Done:  E(RB3LYP) =  -721.927553994     A.U. after   13 cycles
 SCF Done:  E(RB3LYP) =  -721.929976722     A.U. after   13 cycles
 SCF Done:  E(RB3LYP) =  -721.930705288     A.U. after   13 cycles
 SCF Done:  E(RB3LYP) =  -721.931074742     A.U. after   12 cycles
 SCF Done:  E(RB3LYP) =  -721.931532796     A.U. after   12 cycles
 SCF Done:  E(RB3LYP) =  -721.931381072     A.U. after   12 cycles
 SCF Done:  E(RB3LYP) =  -721.931620314     A.U. after   12 cycles
 SCF Done:  E(RB3LYP) =  -721.931715025     A.U. after   11 cycles
 SCF Done:  E(RB3LYP) =  -721.931723191     A.U. after   11 cycles
 SCF Done:  E(RB3LYP) =  -721.931737531     A.U. after   11 cycles
 SCF Done:  E(RB3LYP) =  -721.931742358     A.U. after    9 cycles
 SCF Done:  E(RB3LYP) =  -721.931743273     A.U. after    8 cycles
 SCF Done:  E(RB3LYP) =  -721.931743518     A.U. after    8 cycles
 Optimization completed.
    -- Stationary point found.
 Normal termination of Gaussian 16 at Wed Dec  9 18:10:04 2020.

 --------------------------------------------------------------------
 #N Geom=AllCheck Guess=TCheck SCRF=Check GenChk RB3LYP/6-31G(d) Freq
 --------------------------------------------------------------------

 Structure from the checkpoint file:  "JID_2827.chk"
 ------------------------------
 CID_87147969_JID_2827_neutraal
 ------------------------------
 Charge =  0 Multiplicity = 1

 SCF Done:  E(RB3LYP) =  -721.931743518     A.U. after    1 cycles

  Exact polarizability:  77.306   3.311  70.396   5.764  -2.041  66.167
 Approx polarizability: 114.812   6.271 105.696  11.963  -5.013  96.564

                      1                      2                      3
                      A                      A                      A
 Frequencies --     50.4337                66.0555                90.2490
 Red. masses --     12.4943                 7.0234                 5.2050
 Frc consts  --      0.0187                 0.0181                 0.0250
 IR Inten    --      0.8676                 1.0918                 0.2219

                      4                      5                      6
                      A                      A                      A
 Frequencies --    128.6875               159.3396               201.5412
 Red. masses --      5.0715                 6.8291                 5.4564
 Frc consts  --      0.0495                 0.1022                 0.1306
 IR Inten    --      0.4633                 0.8139                 3.0877

                      7                      8                      9
                      A                      A                      A
 Frequencies --    222.6089               268.8234               294.6687
 Red. masses --      5.3935                 4.0503                 4.8896
 Frc consts  --      0.1575                 0.1725                 0.2501
 IR Inten    --      1.1432                 2.2257                 0.8722

                     10                     11                     12
                      A                      A                      A
 Frequencies --    318.2159               349.9974               370.4694
 Red. masses --      3.5464                 3.4354                 1.4420
 Frc consts  --      0.2116                 0.2479                 0.1166
 IR Inten    --     16.2985                 8.5834                36.6031

                     13                     14                     15
                      A                      A                      A
 Frequencies --    399.7035               446.5071               454.6358
 Red. masses --      5.2548                 3.9390                 1.5283
 Frc consts  --      0.4946                 0.4627                 0.1861
 IR Inten    --     12.2747                 5.9302               134.7186

                     16                     17                     18
                      A                      A                      A
 Frequencies --    496.7071               508.8770               541.5706
 Red. masses --      1.3386                 1.9505                 3.6342
 Frc consts  --      0.1946                 0.2976                 0.6280
 IR Inten    --     85.5967                68.0080                 9.2744

                     19                     20                     21
                      A                      A                      A
 Frequencies --    555.0028               627.2848               631.5912
 Red. masses --      2.2407                 2.0638                 2.2831
 Frc consts  --      0.4067                 0.4785                 0.5366
 IR Inten    --     79.9395                58.1114               131.4298

                     22                     23                     24
                      A                      A                      A
 Frequencies --    664.1769               709.1553               756.4539
 Red. masses --      2.4453                 3.6341                 4.1530
 Frc consts  --      0.6356                 1.0768                 1.4001
 IR Inten    --     33.0998                37.4548                26.5176

                     25                     26                     27
                      A                      A                      A
 Frequencies --    797.6216               916.5075               949.6043
 Red. masses --      3.9982                 3.5612                 2.1608
 Frc consts  --      1.4987                 1.7625                 1.1480
 IR Inten    --     16.8870                10.2244                45.8916

                     28                     29                     30
                      A                      A                      A
 Frequencies --   1047.0342              1120.2035              1125.7200
 Red. masses --      3.4191                 4.7423                 3.9045
 Frc consts  --      2.2084                 3.5062                 2.9153
 IR Inten    --     56.0744                43.8471               162.2375

                     31                     32                     33
                      A                      A                      A
 Frequencies --   1135.3561              1137.0919              1183.3278
 Red. masses --      4.3200                 3.4088                 2.5960
 Frc consts  --      3.2810                 2.5968                 2.1417
 IR Inten    --    123.6908               164.9342                48.4017

                     34                     35                     36
                      A                      A                      A
 Frequencies --   1204.1997              1272.4228              1281.8780
 Red. masses --      2.3767                 1.3356                 1.3029
 Frc consts  --      2.0306                 1.2741                 1.2614
 IR Inten    --    144.7877                94.6425                 8.1861

                     37                     38                     39
                      A                      A                      A
 Frequencies --   1332.3031              1354.8890              1368.1523
 Red. masses --      1.4085                 1.7321                 1.5685
 Frc consts  --      1.4730                 1.8734                 1.7298
 IR Inten    --      8.8873                68.2766                26.8616

                     40                     41                     42
                      A                      A                      A
 Frequencies --   1389.2861              1433.8974              1455.3020
 Red. masses --      1.4490                 1.5873                 1.2703
 Frc consts  --      1.6477                 1.9228                 1.5852
 IR Inten    --     92.1152                 1.7030                18.3252

                     43                     44                     45
                      A                      A                      A
 Frequencies --   1469.9688              1527.8964              1844.1444
 Red. masses --      1.5254                 1.0769                 9.8951
 Frc consts  --      1.9420                 1.4812                19.8271
 IR Inten    --     54.5492                 3.3756               259.7018

                     46                     47                     48
                      A                      A                      A
 Frequencies --   1869.0766              3012.0603              3032.7051
 Red. masses --     10.5501                 1.0712                 1.0828
 Frc consts  --     21.7151                 5.7260                 5.8675
 IR Inten    --    276.0334                43.8586                26.3436

                     49                     50                     51
                      A                      A                      A
 Frequencies --   3137.3865              3650.0693              3677.3947
 Red. masses --      1.0940                 1.0652                 1.0643
 Frc consts  --      6.3445                 8.3615                 8.4801
 IR Inten    --     13.5788                88.1538                89.3008

                     52                     53                     54
                      A                      A                      A
 Frequencies --   3683.7617              3711.9135              3742.4826
 Red. masses --      1.0642                 1.0652                 1.0647
 Frc consts  --      8.5086                 8.6469                 8.7858
 IR Inten    --     61.1769                46.4798                97.8386

 - Thermochemistry -
 -------------------
 Temperature   298.150 Kelvin.  Pressure   1.00000 Atm.
 Atom     1 has atomic number  6 and mass  12.00000

 Molecular mass:   180.02700 amu.
 Principal axes and moments of inertia in atomic units:
                           1         2         3
     Eigenvalues --  1536.536332042.805432354.13194
           X            0.99990   0.00243   0.01388
           Y           -0.00223   0.99989  -0.01449
           Z           -0.01391   0.01446   0.99980
 This molecule is an asymmetric top.
 Rotational symmetry number  1.
 Warning -- assumption of classical behavior for rotation
           may cause significant error
 Rotational temperatures (Kelvin)      0.05637     0.04240     0.03679
 Rotational constants (GHZ):           1.17455     0.88346     0.76663
 Zero-point vibrational energy     389841.5 (Joules/Mol)
                                   93.17436 (Kcal/Mol)
 Warning -- explicit consideration of  19 degrees of freedom as
           vibrations may cause significant error
 Vibrational temperatures:     72.56    95.04   129.85   185.15   229.25
          (Kelvin)            289.97   320.28   386.78   423.96   457.84
                              503.57   533.02   575.08   642.42   654.12
                              714.65   732.16   779.20   798.53   902.52
                              908.72   955.60  1020.32  1088.37  1147.60
                             1318.65  1366.27  1506.45  1611.72  1619.66
                             1633.52  1636.02  1702.54  1732.57  1830.73
                             1844.34  1916.89  1949.38  1968.47  1998.87
                             2063.06  2093.85  2114.96  2198.30  2653.31
                             2689.18  4333.68  4363.39  4514.00  5251.64
                             5290.95  5300.11  5340.62  5384.60

 Zero-point correction=                           0.148483 (Hartree/Particle)
 Thermal correction to Energy=                    0.160776
 Thermal correction to Enthalpy=                  0.161720
 Thermal correction to Gibbs Free Energy=         0.110189
 Sum of electronic and zero-point Energies=           -721.783261
 Sum of electronic and thermal Energies=              -721.770968
 Sum of electronic and thermal Enthalpies=            -721.770024
 Sum of electronic and thermal Free Energies=         -721.821555

                     E (Thermal)             CV                S
                      KCal/Mol        Cal/Mol-Kelvin    Cal/Mol-Kelvin
 Total                  100.888             45.344            108.456
 Electronic               0.000              0.000              0.000
 Translational            0.889              2.981             41.471
 Rotational               0.889              2.981             30.381
 Vibrational             99.111             39.382             36.605
 Vibration     1          0.595              1.977              4.800
 Vibration     2          0.597              1.970              4.268
 Vibration     3          0.602              1.956              3.655
 Vibration     4          0.611              1.925              2.966
 Vibration     5          0.621              1.892              2.558
 Vibration     6          0.638              1.838              2.119
 Vibration     7          0.648              1.807              1.938
 Vibration     8          0.673              1.730              1.604
 Vibration     9          0.689              1.684              1.447
 Vibration    10          0.705              1.639              1.319
 Vibration    11          0.727              1.575              1.166
 Vibration    12          0.742              1.533              1.078
 Vibration    13          0.766              1.471              0.964
 Vibration    14          0.806              1.369              0.806
 Vibration    15          0.813              1.351              0.782
 Vibration    16          0.852              1.257              0.666
 Vibration    17          0.864              1.230              0.636
 Vibration    18          0.897              1.158              0.562
 Vibration    19          0.910              1.129              0.534

 Optimization completed.
    -- Stationary point found.
 Normal termination of Gaussian 16 at Wed Dec  9 18:16:04 2020.

 ----------------------------------------------------------------------
 # B3LYP/6-311++G(d,p) empiricaldispersion=gd3bj scf=xqc pop=npa geom=c
 heck
 ----------------------------------------------------------------------

 --------------------------------------
 CID_87147969_JID_2827_Energie_neutraal
 --------------------------------------
 Structure from the checkpoint file:  "JID_2827.chk"
 Charge =  0 Multiplicity = 1

 SCF Done:  E(RB3LYP) =  -722.193057657     A.U. after   14 cycles
 Normal termination of Gaussian 16 at Wed Dec  9 18:18:30 2020.

 ----------------------------------------------------------------------
 # B3LYP/6-311++G(d,p) empiricaldispersion=gd3bj scf=xqc pop=npa geom=c
 heck
 ----------------------------------------------------------------------

 ------------------------------------
 CID_87147969_JID_2827_Energie_kation
 ------------------------------------
 Structure from the checkpoint file:  "JID_2827.chk"
 Charge =  1 Multiplicity = 2

 SCF Done:  E(UB3LYP) =  -721.825376935     A.U. after   28 cycles
 Normal termination of Gaussian 16 at Wed Dec  9 18:24:30 2020.
 Gaussian 16:  ES64L-G16RevA.03 25-Dec-2016

 ----------------------------------------------------------------------
 # B3LYP/6-311++G(d,p) empiricaldispersion=gd3bj scf=xqc pop=npa geom=c
 heck
 ----------------------------------------------------------------------

 -----------------------------------
 CID_87147969_JID_2827_Energie_anion
 -----------------------------------
 Structure from the checkpoint file:  "JID_2827.chk"
 Charge = -1 Multiplicity = 2

                         Standard orientation:
 ---------------------------------------------------------------------
 Center     Atomic      Atomic             Coordinates (Angstroms)
 Number     Number       Type             X           Y           Z
 ---------------------------------------------------------------------
      1          6           0       -1.068080    1.393020   -0.930037
      2          6           0       -0.800159   -0.086267   -0.547455
      3          6           0        0.642269   -0.594775   -0.848135
      4          6           0        1.795519   -0.012839   -0.047390
      5          8           0        2.550290   -0.691719    0.611387
      6          8           0        1.952299    1.322017   -0.202633
      7          8           0        0.641052   -1.997139   -0.674635
      8          6           0       -1.168334   -0.330586    0.923591
      9          8           0       -2.200294   -0.820905    1.306935
     10          8           0       -0.180896    0.071211    1.761912
     11          8           0       -1.658815   -0.822874   -1.384948
     12          8           0       -0.704945    2.344732    0.039552
     13          1           0       -2.149586    1.469531   -1.061481
     14          1           0       -0.595736    1.580168   -1.906957
     15          1           0        0.826732   -0.355019   -1.905503
     16          1           0        2.728094    1.576428    0.333301
     17          1           0        1.330354   -2.194585   -0.012417
     18          1           0       -0.500043   -0.094886    2.668935
     19          1           0       -1.499313   -1.763041   -1.190575
     20          1           0        0.262671    2.327496    0.110710
 ---------------------------------------------------------------------

 SCF Done:  E(UB3LYP) =  -722.188127961     A.U. after   31 cycles

 The electronic state is 2-A.
 Alpha  occ. eigenvalues --  -19.06813 -19.06652 -19.03702 -19.03373 -19.01747
 Alpha  occ. eigenvalues --  -19.01372 -19.01368 -10.20378 -10.19867 -10.15158
 Alpha  occ. eigenvalues --  -10.14497 -10.12224  -1.01466  -1.00815  -0.95941
 Alpha  occ. eigenvalues --   -0.93901  -0.92444  -0.91709  -0.91416  -0.68722
 Alpha  occ. eigenvalues --   -0.61502  -0.57118  -0.52622  -0.48751  -0.44717
 Alpha  occ. eigenvalues --   -0.43853  -0.42387  -0.39826  -0.38542  -0.38479
 Alpha  occ. eigenvalues --   -0.37888  -0.35793  -0.33871  -0.32313  -0.31859
 Alpha  occ. eigenvalues --   -0.31485  -0.29766  -0.27217  -0.26646  -0.23938
 Alpha  occ. eigenvalues --   -0.23282  -0.22586  -0.21304  -0.20268  -0.18653
 Alpha  occ. eigenvalues --   -0.17633  -0.17322   0.04767
 Alpha virt. eigenvalues --    0.07603   0.08051   0.08528   0.09551   0.10021
 Alpha virt. eigenvalues --    0.11005   0.11938   0.12822   0.13802   0.15019
 Alpha virt. eigenvalues --    0.16947   0.17248   0.17707   0.18166   0.18453

  Beta  occ. eigenvalues --  -19.06764 -19.06537 -19.03692 -19.03362 -19.01709
  Beta  occ. eigenvalues --  -19.01354 -19.01261 -10.20342 -10.19708 -10.15146
  Beta  occ. eigenvalues --  -10.14484 -10.12207  -1.01342  -1.00627  -0.95901
  Beta  occ. eigenvalues --   -0.93832  -0.92384  -0.91662  -0.91258  -0.68633
  Beta  occ. eigenvalues --   -0.61328  -0.56998  -0.52403  -0.48667  -0.44586
  Beta  occ. eigenvalues --   -0.43744  -0.42275  -0.39651  -0.38477  -0.38404
  Beta  occ. eigenvalues --   -0.37759  -0.35621  -0.33594  -0.32256  -0.31776
  Beta  occ. eigenvalues --   -0.31408  -0.29625  -0.27178  -0.26541  -0.23860
  Beta  occ. eigenvalues --   -0.23108  -0.22345  -0.21203  -0.20213  -0.18526
  Beta  occ. eigenvalues --   -0.17566  -0.17283
  Beta virt. eigenvalues --    0.07977   0.08538   0.08891   0.09526   0.10179
  Beta virt. eigenvalues --    0.10424   0.11753   0.12019   0.13063   0.14072
  Beta virt. eigenvalues --    0.15142   0.17237   0.17594   0.17778   0.18366

 Mulliken charges and spin densities:
               1          2
     1  C    0.137557  -0.571038
     2  C   -0.217085   0.207617
     3  C    0.685022  -1.061728
     4  C    0.270566  -0.243260
     5  O   -0.334053   0.069956
     6  O   -0.249458   0.051788
     7  O   -0.263938   0.028405
     8  C    0.457944  -0.258868
     9  O   -0.270360   0.026384
    10  O   -0.223981   0.030241
    11  O   -0.192490   0.018132
    12  O   -0.267387   0.030730
    13  H    0.152450   0.045324
    14  H   -0.126737   0.321225
    15  H   -0.212439   0.486306
    16  H   -0.917931   1.240612
    17  H    0.214735   0.036169
    18  H   -0.154508   0.473795
    19  H    0.263696   0.028432
    20  H    0.248397   0.039777
 Sum of Mulliken charges =  -1.00000   1.00000

 Dipole moment (field-independent basis, Debye):
    X=             -4.2239    Y=             -4.0149    Z=             -1.4123  Tot=              5.9963
 Quadrupole moment (field-independent basis, Debye-Ang):
   XX=           -119.0291   YY=           -100.5336   ZZ=            -96.5503
   XY=            -11.7408   XZ=              0.2570   YZ=             -0.4967

 Summary of Natural Population Analysis:

                                       Natural Population
                Natural  -----------------------------------------------
    Atom  No    Charge         Core      Valence    Rydberg      Total
 -----------------------------------------------------------------------
      C    1   -0.01104      0.99955     1.99584    0.01565     3.01104
      C    2    0.07674      0.99950     1.90612    0.01764     2.92326
      C    3    0.01082      0.99950     1.97142    0.01825     2.98918
      C    4    0.42272      0.99968     1.55214    0.02546     2.57728
      O    5   -0.30198      0.99986     3.29545    0.00667     4.30198
      O    6   -0.35699      0.99987     3.34822    0.00890     4.35699
      O    7   -0.38181      0.99989     3.37569    0.00623     4.38181
      C    8    0.40607      0.99966     1.56591    0.02837     2.59393
      O    9   -0.29869      0.99986     3.29245    0.00637     4.29869
      O   10   -0.34176      0.99987     3.33360    0.00829     4.34176
      O   11   -0.36553      0.99989     3.35897    0.00667     4.36553
      O   12   -0.37161      0.99989     3.36531    0.00641     4.37161
      H   13    0.09477      0.00000     0.40395    0.00128     0.40523
      H   14    0.08479      0.00000     0.41383    0.00137     0.41521
      H   15    0.10438      0.00000     0.39348    0.00213     0.39562
      H   16    0.25906      0.00000     0.18157    0.05937     0.24094
      H   17    0.24562      0.00000     0.25111    0.00327     0.25438
      H   18    0.24297      0.00000     0.25021    0.00681     0.25703
      H   19    0.23920      0.00000     0.25804    0.00276     0.26080
      H   20    0.24225      0.00000     0.25325    0.00450     0.25775
 =======================================================================
   * Total *   -0.00000     11.99703    34.76655    0.23642    47.00000

 Normal termination of Gaussian 16 at Wed Dec  9 18:30:15 2020.
