 Gaussian 16, Revision A.03,

 -----------------------------------------------------------
 # opt freq B3LYP/6-31G(d) empiricaldispersion=gd3bj scf=xqc
 -----------------------------------------------------------

 -------------------------------
 CID_115149116_JID_7143_neutraal
 -------------------------------
 Symbolic Z-matrix:
 Charge =  0 Multiplicity = 1

 SCF Done:  E(RB3LYP) =  -753.827508538     A.U. after   14 cycles
 SCF Done:  E(RB3LYP) =  -753.830906708     A.U. after   12 cycles
 SCF Done:  E(RB3LYP) =  -753.828620670     A.U. after   14 cycles
 SCF Done:  E(RB3LYP) =  -753.830746835     A.U. after   12 cycles
 SCF Done:  E(RB3LYP) =  -753.832037371     A.U. after    9 cycles
 SCF Done:  E(RB3LYP) =  -753.832482144     A.U. after   11 cycles
 SCF Done:  E(RB3LYP) =  -753.832367328     A.U. after   11 cycles
 SCF Done:  E(RB3LYP) =  -753.832548292     A.U. after   11 cycles
 SCF Done:  E(RB3LYP) =  -753.832609127     A.U. after   10 cycles
 SCF Done:  E(RB3LYP) =  -753.832622795     A.U. after   11 cycles
 SCF Done:  E(RB3LYP) =  -753.832833701     A.U. after   10 cycles
 SCF Done:  E(RB3LYP) =  -753.832833919     A.U. after    7 cycles
 SCF Done:  E(RB3LYP) =  -753.832834034     A.U. after    7 cycles
 SCF Done:  E(RB3LYP) =  -753.832834042     A.U. after    7 cycles
 SCF Done:  E(RB3LYP) =  -753.832834053     A.U. after    7 cycles
 Optimization completed.
    -- Stationary point found.
 Normal termination of Gaussian 16 at Mon Dec 14 19:10:44 2020.

 --------------------------------------------------------------------
 #N Geom=AllCheck Guess=TCheck SCRF=Check GenChk RB3LYP/6-31G(d) Freq
 --------------------------------------------------------------------

 Structure from the checkpoint file:  "JID_7143.chk"
 -------------------------------
 CID_115149116_JID_7143_neutraal
 -------------------------------
 Charge =  0 Multiplicity = 1

 SCF Done:  E(RB3LYP) =  -753.832834053     A.U. after    1 cycles

  Exact polarizability: 170.730   0.777 152.348   3.670  -0.031 136.243
 Approx polarizability: 226.727  -4.059 208.003   7.649   3.223 206.428

                      1                      2                      3
                      A                      A                      A
 Frequencies --     25.9702                29.4334                34.7854
 Red. masses --      8.8570                 2.8290                 3.0606
 Frc consts  --      0.0035                 0.0014                 0.0022
 IR Inten    --      1.1276                 0.1530                 0.0696

                      4                      5                      6
                      A                      A                      A
 Frequencies --     58.3270                75.4403                87.0087
 Red. masses --      2.4748                 4.0698                 2.7467
 Frc consts  --      0.0050                 0.0136                 0.0123
 IR Inten    --      0.0588                 0.0929                 0.0550

                      7                      8                      9
                      A                      A                      A
 Frequencies --    141.4784               168.0616               180.6706
 Red. masses --      2.8541                 2.6348                 3.7912
 Frc consts  --      0.0337                 0.0438                 0.0729
 IR Inten    --      0.1911                 0.1941                 0.5260

                     10                     11                     12
                      A                      A                      A
 Frequencies --    194.9602               231.4924               244.3673
 Red. masses --      3.3854                 2.7947                 2.7457
 Frc consts  --      0.0758                 0.0882                 0.0966
 IR Inten    --      0.0379                 0.0401                 0.1216

                     13                     14                     15
                      A                      A                      A
 Frequencies --    279.2029               286.5347               311.1901
 Red. masses --      1.8425                 1.9062                 2.6519
 Frc consts  --      0.0846                 0.0922                 0.1513
 IR Inten    --      0.7479                 0.0681                 1.8635

                     16                     17                     18
                      A                      A                      A
 Frequencies --    368.8373               378.5965               405.6188
 Red. masses --      2.0370                 2.9882                 2.4606
 Frc consts  --      0.1633                 0.2524                 0.2385
 IR Inten    --      1.1751                 5.7443                 0.4756

                     19                     20                     21
                      A                      A                      A
 Frequencies --    441.0443               462.0869               487.8622
 Red. masses --      2.0539                 1.9525                 2.1323
 Frc consts  --      0.2354                 0.2456                 0.2990
 IR Inten    --      0.8719                 1.5761                 3.0044

                     22                     23                     24
                      A                      A                      A
 Frequencies --    523.8259               525.4129               616.1549
 Red. masses --      2.6944                 3.0187                 1.3614
 Frc consts  --      0.4356                 0.4910                 0.3045
 IR Inten    --      1.1672                 0.7996                64.6653

                     25                     26                     27
                      A                      A                      A
 Frequencies --    617.9415               629.7751               641.0423
 Red. masses --      2.5618                 2.8499                 3.4419
 Frc consts  --      0.5763                 0.6660                 0.8333
 IR Inten    --     30.7804                16.0956                11.1074

                     28                     29                     30
                      A                      A                      A
 Frequencies --    684.8582               767.7811               773.4837
 Red. masses --      2.9637                 4.4936                 1.2777
 Frc consts  --      0.8190                 1.5607                 0.4504
 IR Inten    --      2.7725                34.8770                 2.5066

                     31                     32                     33
                      A                      A                      A
 Frequencies --    801.2437               808.3659               821.9095
 Red. masses --      1.5751                 2.3551                 1.9765
 Frc consts  --      0.5958                 0.9067                 0.7867
 IR Inten    --      2.5240                 6.2337                 1.6414

                     34                     35                     36
                      A                      A                      A
 Frequencies --    840.4554               865.5775               889.9913
 Red. masses --      2.6902                 2.7961                 2.6481
 Frc consts  --      1.1196                 1.2343                 1.2358
 IR Inten    --      4.1114                 0.4167                 5.6749

                     37                     38                     39
                      A                      A                      A
 Frequencies --    901.4633               909.5193               925.7651
 Red. masses --      2.5767                 2.2896                 2.6404
 Frc consts  --      1.2337                 1.1159                 1.3333
 IR Inten    --      0.8058                11.0186                 9.7424

                     40                     41                     42
                      A                      A                      A
 Frequencies --    931.7819               961.0397               978.6699
 Red. masses --      2.3131                 1.4632                 1.5504
 Frc consts  --      1.1832                 0.7962                 0.8749
 IR Inten    --      0.4678                 1.7080                 4.3073

                     43                     44                     45
                      A                      A                      A
 Frequencies --    983.0962               990.3590              1018.0417
 Red. masses --      1.8475                 1.5676                 1.7035
 Frc consts  --      1.0520                 0.9059                 1.0402
 IR Inten    --     26.1306                 2.2295                 8.9700

                     46                     47                     48
                      A                      A                      A
 Frequencies --   1028.2080              1050.8645              1059.3021
 Red. masses --      2.2446                 2.4044                 2.0648
 Frc consts  --      1.3982                 1.5644                 1.3651
 IR Inten    --     17.1651                 3.8887                18.7879

                     49                     50                     51
                      A                      A                      A
 Frequencies --   1079.2391              1088.2963              1107.3875
 Red. masses --      2.1418                 2.3890                 1.4657
 Frc consts  --      1.4698                 1.6671                 1.0590
 IR Inten    --     11.9949                 1.6400                 0.7087

                     52                     53                     54
                      A                      A                      A
 Frequencies --   1117.1313              1127.4908              1160.8662
 Red. masses --      1.9629                 1.8837                 1.9406
 Frc consts  --      1.4433                 1.4109                 1.5408
 IR Inten    --     15.3685                13.2558                14.9471

                     55                     56                     57
                      A                      A                      A
 Frequencies --   1167.4788              1196.2627              1201.2017
 Red. masses --      1.4506                 1.5942                 1.6288
 Frc consts  --      1.1649                 1.3442                 1.3847
 IR Inten    --      3.6849                35.1810                72.9552

                     58                     59                     60
                      A                      A                      A
 Frequencies --   1218.5909              1220.6247              1227.4041
 Red. masses --      1.4746                 1.5438                 1.5982
 Frc consts  --      1.2901                 1.3552                 1.4185
 IR Inten    --     18.9115                31.0320                24.5886

                     61                     62                     63
                      A                      A                      A
 Frequencies --   1249.3372              1255.6046              1275.0565
 Red. masses --      1.5061                 1.9305                 1.2774
 Frc consts  --      1.3851                 1.7932                 1.2236
 IR Inten    --      0.8610                17.4408                 3.1668

                     64                     65                     66
                      A                      A                      A
 Frequencies --   1289.0618              1307.8318              1313.2648
 Red. masses --      1.3111                 1.2802                 1.3091
 Frc consts  --      1.2836                 1.2901                 1.3302
 IR Inten    --      3.0808                 4.3306                 5.4875

                     67                     68                     69
                      A                      A                      A
 Frequencies --   1328.7980              1334.7830              1345.5966
 Red. masses --      1.2741                 1.2428                 1.3666
 Frc consts  --      1.3255                 1.3046                 1.4579
 IR Inten    --      0.4381                 8.3600                 2.4322

                     70                     71                     72
                      A                      A                      A
 Frequencies --   1347.5856              1351.6481              1358.3398
 Red. masses --      1.2938                 1.3001                 1.3079
 Frc consts  --      1.3843                 1.3994                 1.4218
 IR Inten    --      0.3620                 2.3561                 2.0855

                     73                     74                     75
                      A                      A                      A
 Frequencies --   1375.0028              1378.1899              1382.7993
 Red. masses --      1.6529                 2.5536                 1.3585
 Frc consts  --      1.8412                 2.8578                 1.5305
 IR Inten    --      1.7915                36.4910                20.3463

                     76                     77                     78
                      A                      A                      A
 Frequencies --   1391.8831              1395.5447              1399.0311
 Red. masses --      1.3258                 1.4158                 1.4688
 Frc consts  --      1.5133                 1.6246                 1.6938
 IR Inten    --      1.6844                 7.0493                 2.6497

                     79                     80                     81
                      A                      A                      A
 Frequencies --   1406.1647              1413.1378              1425.1374
 Red. masses --      1.5400                 1.4359                 1.4561
 Frc consts  --      1.7941                 1.6894                 1.7425
 IR Inten    --      0.7640                18.6908                17.6323

                     82                     83                     84
                      A                      A                      A
 Frequencies --   1439.6236              1490.0364              1507.3506
 Red. masses --      1.3091                 1.1783                 1.0848
 Frc consts  --      1.5986                 1.5413                 1.4522
 IR Inten    --     11.8627                 1.0985                 0.5491

                     85                     86                     87
                      A                      A                      A
 Frequencies --   1514.4852              1517.4477              1520.9510
 Red. masses --      1.0891                 1.0877                 1.0709
 Frc consts  --      1.4719                 1.4756                 1.4596
 IR Inten    --      3.2605                 2.5752                12.1800

                     88                     89                     90
                      A                      A                      A
 Frequencies --   1525.4201              1526.6096              1529.9614
 Red. masses --      1.0824                 1.0893                 1.0858
 Frc consts  --      1.4839                 1.4957                 1.4975
 IR Inten    --      2.0868                 0.8307                 4.9012

                     91                     92                     93
                      A                      A                      A
 Frequencies --   1535.0041              1539.5017              1549.8370
 Red. masses --      1.0749                 1.0713                 1.0715
 Frc consts  --      1.4923                 1.4960                 1.5164
 IR Inten    --     13.0155                 2.9787                 3.4741

                     94                     95                     96
                      A                      A                      A
 Frequencies --   1551.8917              1844.8101              2916.3229
 Red. masses --      1.0946                 9.4332                 1.0823
 Frc consts  --      1.5533                18.9153                 5.4235
 IR Inten    --      3.8276               334.3644                59.2732

                     97                     98                     99
                      A                      A                      A
 Frequencies --   2942.4548              2970.3571              3001.9165
 Red. masses --      1.0636                 1.0733                 1.0833
 Frc consts  --      5.4255                 5.5794                 5.7515
 IR Inten    --     80.2702                67.3131                60.0807

                    100                    101                    102
                      A                      A                      A
 Frequencies --   3040.2429              3049.4602              3050.1784
 Red. masses --      1.0691                 1.0700                 1.0612
 Frc consts  --      5.8221                 5.8626                 5.8171
 IR Inten    --      7.6122                54.2290                20.0719

                    103                    104                    105
                      A                      A                      A
 Frequencies --   3052.3052              3057.2200              3061.0167
 Red. masses --      1.0637                 1.0636                 1.0661
 Frc consts  --      5.8386                 5.8570                 5.8857
 IR Inten    --     36.5723                36.0445                28.9737

                    106                    107                    108
                      A                      A                      A
 Frequencies --   3062.1627              3067.5588              3072.6269
 Red. masses --      1.0644                 1.0838                 1.0672
 Frc consts  --      5.8803                 6.0086                 5.9364
 IR Inten    --     36.0448                10.8352                41.8776

                    109                    110                    111
                      A                      A                      A
 Frequencies --   3080.5877              3088.2092              3097.0817
 Red. masses --      1.0895                 1.0968                 1.1054
 Frc consts  --      6.0915                 6.1632                 6.2471
 IR Inten    --     34.5816                17.4979                17.2955

                    112                    113                    114
                      A                      A                      A
 Frequencies --   3100.6573              3103.8638              3108.4590
 Red. masses --      1.0923                 1.0911                 1.1039
 Frc consts  --      6.1873                 6.1932                 6.2848
 IR Inten    --     43.8058                21.2380                33.3068

                    115                    116                    117
                      A                      A                      A
 Frequencies --   3110.1809              3115.0007              3123.0634
 Red. masses --      1.0946                 1.0778                 1.1000
 Frc consts  --      6.2385                 6.1615                 6.3210
 IR Inten    --     20.4552                37.3286                74.0067

                    118                    119                    120
                      A                      A                      A
 Frequencies --   3129.6895              3157.9532              3687.2868
 Red. masses --      1.0974                 1.1011                 1.0640
 Frc consts  --      6.3330                 6.4697                 8.5236
 IR Inten    --     34.2098                23.6385                47.8323

 - Thermochemistry -
 -------------------
 Temperature   298.150 Kelvin.  Pressure   1.00000 Atm.
 Atom     1 has atomic number  6 and mass  12.00000

 Molecular mass:   239.18853 amu.
 Principal axes and moments of inertia in atomic units:
                           1         2         3
     Eigenvalues --  2728.209756341.612347572.43134
           X            0.99961   0.02789   0.00283
           Y           -0.02785   0.99951  -0.01442
           Z           -0.00323   0.01433   0.99989
 This molecule is an asymmetric top.
 Rotational symmetry number  1.
 Warning -- assumption of classical behavior for rotation
           may cause significant error
 Rotational temperatures (Kelvin)      0.03175     0.01366     0.01144
 Rotational constants (GHZ):           0.66151     0.28459     0.23833
 Zero-point vibrational energy    1007934.3 (Joules/Mol)
                                  240.90208 (Kcal/Mol)
 Warning -- explicit consideration of  25 degrees of freedom as
           vibrations may cause significant error
 Vibrational temperatures:     37.37    42.35    50.05    83.92   108.54
          (Kelvin)            125.19   203.56   241.80   259.94   280.50
                              333.07   351.59   401.71   412.26   447.73
                              530.67   544.72   583.59   634.56   664.84
                              701.92   753.67   755.95   886.51   889.08
                              906.11   922.32   985.36  1104.67  1112.87
                             1152.81  1163.06  1182.54  1209.23  1245.37
                             1280.50  1297.00  1308.60  1331.97  1340.63
                             1382.72  1408.09  1414.46  1424.91  1464.73
                             1479.36  1511.96  1524.10  1552.78  1565.82
                             1593.28  1607.30  1622.21  1670.23  1679.74
                             1721.16  1728.26  1753.28  1756.21  1765.96
                             1797.52  1806.53  1834.52  1854.67  1881.68
                             1889.50  1911.84  1920.45  1936.01  1938.88
                             1944.72  1954.35  1978.32  1982.91  1989.54
                             2002.61  2007.88  2012.89  2023.16  2033.19
                             2050.45  2071.30  2143.83  2168.74  2179.01
                             2183.27  2188.31  2194.74  2196.45  2201.27
                             2208.53  2215.00  2229.87  2232.83  2654.27
                             4195.94  4233.54  4273.68  4319.09  4374.23
                             4387.49  4388.53  4391.59  4398.66  4404.12
                             4405.77  4413.53  4420.82  4432.28  4443.24
                             4456.01  4461.15  4465.77  4472.38  4474.86
                             4481.79  4493.39  4502.93  4543.59  5305.18

 Zero-point correction=                           0.383902 (Hartree/Particle)
 Thermal correction to Energy=                    0.400881
 Thermal correction to Enthalpy=                  0.401825
 Thermal correction to Gibbs Free Energy=         0.337396
 Sum of electronic and zero-point Energies=           -753.448932
 Sum of electronic and thermal Energies=              -753.431953
 Sum of electronic and thermal Enthalpies=            -753.431009
 Sum of electronic and thermal Free Energies=         -753.495438

                     E (Thermal)             CV                S
                      KCal/Mol        Cal/Mol-Kelvin    Cal/Mol-Kelvin
 Total                  251.557             65.863            135.603
 Electronic               0.000              0.000              0.000
 Translational            0.889              2.981             42.318
 Rotational               0.889              2.981             33.238
 Vibrational            249.779             59.902             60.048
 Vibration     1          0.593              1.985              6.116
 Vibration     2          0.593              1.984              5.867
 Vibration     3          0.594              1.983              5.536
 Vibration     4          0.596              1.974              4.513
 Vibration     5          0.599              1.965              4.006
 Vibration     6          0.601              1.958              3.726
 Vibration     7          0.615              1.912              2.784
 Vibration     8          0.625              1.882              2.457
 Vibration     9          0.630              1.866              2.321
 Vibration    10          0.636              1.847              2.180
 Vibration    11          0.653              1.793              1.867
 Vibration    12          0.660              1.772              1.771
 Vibration    13          0.680              1.712              1.539
 Vibration    14          0.684              1.699              1.494
 Vibration    15          0.700              1.652              1.356
 Vibration    16          0.741              1.536              1.085
 Vibration    17          0.749              1.516              1.045
 Vibration    18          0.771              1.458              0.942
 Vibration    19          0.801              1.381              0.823
 Vibration    20          0.820              1.334              0.760
 Vibration    21          0.844              1.277              0.689
 Vibration    22          0.879              1.197              0.601
 Vibration    23          0.880              1.194              0.598
 Vibration    24          0.976              0.998              0.423
 Vibration    25          0.978              0.994              0.420

 Optimization completed.
    -- Stationary point found.
 Normal termination of Gaussian 16 at Mon Dec 14 19:31:14 2020.

 ----------------------------------------------------------------------
 # B3LYP/6-311++G(d,p) empiricaldispersion=gd3bj scf=xqc pop=npa geom=c
 heck
 ----------------------------------------------------------------------

 ---------------------------------------
 CID_115149116_JID_7143_Energie_neutraal
 ---------------------------------------
 Structure from the checkpoint file:  "JID_7143.chk"
 Charge =  0 Multiplicity = 1

 SCF Done:  E(RB3LYP) =  -754.050064599     A.U. after   14 cycles
 Normal termination of Gaussian 16 at Mon Dec 14 19:40:30 2020.

 ----------------------------------------------------------------------
 # B3LYP/6-311++G(d,p) empiricaldispersion=gd3bj scf=xqc pop=npa geom=c
 heck
 ----------------------------------------------------------------------

 -------------------------------------
 CID_115149116_JID_7143_Energie_kation
 -------------------------------------
 Structure from the checkpoint file:  "JID_7143.chk"
 Charge =  1 Multiplicity = 2

 SCF Done:  E(UB3LYP) =  -753.760054136     A.U. after   22 cycles
 Normal termination of Gaussian 16 at Mon Dec 14 20:00:58 2020.
 Gaussian 16:  ES64L-G16RevA.03 25-Dec-2016

 ----------------------------------------------------------------------
 # B3LYP/6-311++G(d,p) empiricaldispersion=gd3bj scf=xqc pop=npa geom=c
 heck
 ----------------------------------------------------------------------

 ------------------------------------
 CID_115149116_JID_7143_Energie_anion
 ------------------------------------
 Structure from the checkpoint file:  "JID_7143.chk"
 Charge = -1 Multiplicity = 2

                         Standard orientation:
 ---------------------------------------------------------------------
 Center     Atomic      Atomic             Coordinates (Angstroms)
 Number     Number       Type             X           Y           Z
 ---------------------------------------------------------------------
      1          6           0       -0.823888    2.050109   -1.512457
      2          7           0       -0.704148    1.376679   -0.221885
      3          6           0       -1.989316    1.456400    0.497317
      4          6           0       -2.888908    0.220058    0.358964
      5          6           0       -3.126089   -0.321724   -1.059695
      6          6           0       -3.810376   -1.678157   -0.816784
      7          6           0       -3.183190   -2.217673    0.501353
      8          6           0       -2.386136   -1.031368    1.101622
      9          6           0        0.418790    1.870808    0.604902
     10          6           0        0.766145    0.844354    1.701771
     11          6           0        1.398386   -0.429626    1.129699
     12          6           0        2.669991   -0.108326    0.320754
     13          6           0        2.335005    0.898162   -0.797017
     14          6           0        1.697753    2.158775   -0.202378
     15          6           0        3.306178   -1.364761   -0.227855
     16          8           0        4.408615   -1.783761    0.050195
     17          8           0        2.489211   -2.015195   -1.100237
     18          1           0       -1.728843    1.701970   -2.013202
     19          1           0        0.019653    1.810398   -2.163963
     20          1           0       -0.894943    3.151322   -1.421871
     21          1           0       -1.795362    1.611649    1.563978
     22          1           0       -2.545184    2.350802    0.166990
     23          1           0       -3.867034    0.499730    0.781740
     24          1           0       -3.720009    0.349216   -1.691463
     25          1           0       -2.154166   -0.472798   -1.544572
     26          1           0       -3.684822   -2.368175   -1.657445
     27          1           0       -4.888852   -1.528503   -0.685903
     28          1           0       -2.528262   -3.074675    0.313351
     29          1           0       -3.962423   -2.563755    1.188525
     30          1           0       -1.319427   -1.153383    0.892941
     31          1           0       -2.499250   -0.946889    2.188420
     32          1           0        0.126673    2.821557    1.092516
     33          1           0        1.462571    1.318378    2.406882
     34          1           0       -0.124728    0.578584    2.279609
     35          1           0        0.684050   -0.924785    0.466245
     36          1           0        1.635254   -1.127357    1.941783
     37          1           0        3.421141    0.332334    0.986471
     38          1           0        1.650147    0.421978   -1.506138
     39          1           0        3.244780    1.163697   -1.348872
     40          1           0        1.512091    2.900227   -0.984739
     41          1           0        2.411602    2.624878    0.489788
     42          1           0        2.985710   -2.803698   -1.388711
 ---------------------------------------------------------------------

 SCF Done:  E(UB3LYP) =  -754.037359376     A.U. after   33 cycles
 SCF Done:  E(UB3LYP) =  -754.037359376     a.u. after    1 cycles

 The electronic state is 2-A.
 Alpha  occ. eigenvalues --  -19.07545 -19.02374 -14.20948 -10.21153 -10.10635
 Alpha  occ. eigenvalues --  -10.09480 -10.09448 -10.09035 -10.07866 -10.07606
 Alpha  occ. eigenvalues --  -10.07596 -10.07348 -10.07330 -10.07001 -10.06894
 Alpha  occ. eigenvalues --  -10.06559 -10.06301  -1.01618  -0.92710  -0.83020
 Alpha  occ. eigenvalues --   -0.74761  -0.73787  -0.66981  -0.65886  -0.63925
 Alpha  occ. eigenvalues --   -0.61230  -0.59032  -0.56251  -0.53064  -0.52410
 Alpha  occ. eigenvalues --   -0.49903  -0.47402  -0.46475  -0.44487  -0.41331
 Alpha  occ. eigenvalues --   -0.39667  -0.39338  -0.38848  -0.37682  -0.36829
 Alpha  occ. eigenvalues --   -0.36402  -0.36183  -0.34154  -0.33189  -0.32613
 Alpha  occ. eigenvalues --   -0.32171  -0.31262  -0.31063  -0.29753  -0.29570
 Alpha  occ. eigenvalues --   -0.27937  -0.27428  -0.26686  -0.25577  -0.24936
 Alpha  occ. eigenvalues --   -0.24432  -0.24416  -0.24231  -0.23217  -0.23076
 Alpha  occ. eigenvalues --   -0.22430  -0.22142  -0.21532  -0.21066  -0.18419
 Alpha  occ. eigenvalues --   -0.12443   0.04091
 Alpha virt. eigenvalues --    0.05931   0.06137   0.06779   0.07763   0.08192
 Alpha virt. eigenvalues --    0.08324   0.08721   0.08862   0.09472   0.10079
 Alpha virt. eigenvalues --    0.10427   0.10809   0.11010   0.11517   0.11852

  Beta  occ. eigenvalues --  -19.07505 -19.02366 -14.20933 -10.21150 -10.10628
  Beta  occ. eigenvalues --  -10.09466 -10.09437 -10.09017 -10.07852 -10.07600
  Beta  occ. eigenvalues --  -10.07580 -10.07339 -10.07318 -10.06990 -10.06883
  Beta  occ. eigenvalues --  -10.06547 -10.06290  -1.01566  -0.92669  -0.82996
  Beta  occ. eigenvalues --   -0.74738  -0.73765  -0.66950  -0.65860  -0.63896
  Beta  occ. eigenvalues --   -0.61204  -0.58996  -0.56208  -0.53012  -0.52372
  Beta  occ. eigenvalues --   -0.49846  -0.47366  -0.46442  -0.44447  -0.41294
  Beta  occ. eigenvalues --   -0.39644  -0.39308  -0.38810  -0.37654  -0.36804
  Beta  occ. eigenvalues --   -0.36372  -0.36151  -0.34132  -0.33158  -0.32582
  Beta  occ. eigenvalues --   -0.32147  -0.31240  -0.31037  -0.29727  -0.29542
  Beta  occ. eigenvalues --   -0.27915  -0.27406  -0.26662  -0.25550  -0.24907
  Beta  occ. eigenvalues --   -0.24406  -0.24391  -0.24207  -0.23189  -0.23052
  Beta  occ. eigenvalues --   -0.22405  -0.22118  -0.21510  -0.21041  -0.18388
  Beta  occ. eigenvalues --   -0.12357
  Beta virt. eigenvalues --    0.06048   0.06689   0.06985   0.07278   0.08189
  Beta virt. eigenvalues --    0.08535   0.08626   0.08851   0.09124   0.09723
  Beta virt. eigenvalues --    0.10349   0.10668   0.11016   0.11333   0.11666

 Mulliken charges and spin densities:
               1          2
     1  C    0.312714  -0.736482
     2  N    0.256435   0.075407
     3  C   -0.271234  -0.380586
     4  C    0.070872   0.694038
     5  C   -0.076835  -0.298990
     6  C   -0.054826  -0.455610
     7  C    0.247173  -0.728651
     8  C    0.009455  -0.374807
     9  C   -0.025250  -0.093901
    10  C   -0.443540   0.251761
    11  C    0.221212  -0.443701
    12  C    0.723847  -0.574092
    13  C   -0.086172  -0.302476
    14  C   -0.463001  -0.167959
    15  C   -0.198270  -0.161127
    16  O   -0.275159   0.020737
    17  O   -0.221022   0.070446
    18  H    0.091533   0.037455
    19  H   -0.078139   0.218299
    20  H   -0.192801   0.334766
    21  H   -0.225270   0.394384
    22  H   -0.124031   0.265378
    23  H   -0.125005   0.298344
    24  H   -0.092244   0.243815
    25  H    0.080852   0.049606
    26  H    0.006541   0.141673
    27  H   -0.025549   0.162027
    28  H   -0.066847   0.213947
    29  H   -0.003649   0.145806
    30  H    0.278604  -0.276348
    31  H   -0.190498   0.351905
    32  H    0.006760   0.157423
    33  H   -0.221534   0.397031
    34  H    0.086078   0.044843
    35  H    0.215370  -0.135507
    36  H    0.010799   0.184186
    37  H    0.221614   0.015195
    38  H    0.199441  -0.038739
    39  H   -0.128388   0.318956
    40  H   -0.030787   0.206164
    41  H   -0.204099   0.363600
    42  H   -0.215149   0.511784
 Sum of Mulliken charges =  -1.00000   1.00000

 Dipole moment (field-independent basis, Debye):
    X=             -1.1017    Y=              0.6365    Z=              0.3186  Tot=              1.3117
 Quadrupole moment (field-independent basis, Debye-Ang):
   XX=           -189.1040   YY=           -161.7495   ZZ=           -145.9576
   XY=              7.5087   XZ=              3.6837   YZ=             -2.3639

 Summary of Natural Population Analysis:

                                       Natural Population
                Natural  -----------------------------------------------
    Atom  No    Charge         Core      Valence    Rydberg      Total
 -----------------------------------------------------------------------
      C    1   -0.17691      0.99963     2.16898    0.00830     3.17691
      N    2   -0.29558      0.99970     2.78289    0.01300     3.79558
      C    3   -0.07783      0.99958     2.06643    0.01182     3.07783
      C    4   -0.11244      0.99958     2.10130    0.01156     3.11244
      C    5   -0.19423      0.99961     2.18622    0.00840     3.19423
      C    6   -0.18880      0.99964     2.18244    0.00671     3.18880
      C    7   -0.19074      0.99965     2.18452    0.00658     3.19074
      C    8   -0.19335      0.99961     2.18515    0.00860     3.19335
      C    9    0.00323      0.99957     1.98472    0.01247     2.99677
      C   10   -0.19258      0.99960     2.18392    0.00906     3.19258
      C   11   -0.18850      0.99960     2.18051    0.00839     3.18850
      C   12   -0.15202      0.99954     2.14194    0.01054     3.15202
      C   13   -0.18869      0.99961     2.18040    0.00869     3.18869
      C   14   -0.19491      0.99960     2.18631    0.00899     3.19491
      C   15    0.41447      0.99967     1.55967    0.02619     2.58553
      O   16   -0.30849      0.99987     3.30277    0.00586     4.30849
      O   17   -0.34625      0.99988     3.33955    0.00682     4.34625
      H   18    0.09868      0.00000     0.40015    0.00117     0.40132
      H   19    0.09552      0.00000     0.40337    0.00111     0.40448
      H   20    0.08160      0.00000     0.41723    0.00117     0.41840
      H   21    0.09709      0.00000     0.40133    0.00158     0.40291
      H   22    0.08789      0.00000     0.41073    0.00138     0.41211
      H   23    0.09286      0.00000     0.40557    0.00157     0.40714
      H   24    0.09856      0.00000     0.40051    0.00093     0.40144
      H   25    0.09972      0.00000     0.39834    0.00195     0.40028
      H   26    0.09701      0.00000     0.40198    0.00101     0.40299
      H   27    0.09291      0.00000     0.40572    0.00137     0.40709
      H   28    0.09696      0.00000     0.40193    0.00111     0.40304
      H   29    0.09535      0.00000     0.40352    0.00113     0.40465
      H   30    0.09920      0.00000     0.39839    0.00241     0.40080
      H   31    0.09811      0.00000     0.40072    0.00118     0.40189
      H   32    0.08597      0.00000     0.41233    0.00170     0.41403
      H   33    0.09662      0.00000     0.40232    0.00106     0.40338
      H   34    0.10408      0.00000     0.39472    0.00120     0.39592
      H   35    0.10667      0.00000     0.39053    0.00281     0.39333
      H   36    0.10033      0.00000     0.39875    0.00092     0.39967
      H   37    0.10536      0.00000     0.39301    0.00163     0.39464
      H   38    0.10530      0.00000     0.39261    0.00208     0.39470
      H   39    0.10084      0.00000     0.39818    0.00098     0.39916
      H   40    0.10511      0.00000     0.39374    0.00115     0.39489
      H   41    0.10012      0.00000     0.39869    0.00120     0.39988
      H   42    0.24180      0.00000     0.24961    0.00858     0.25820
 =======================================================================
   * Total *    0.00000     16.99395    48.79170    0.21436    66.00000

 Normal termination of Gaussian 16 at Mon Dec 14 20:31:05 2020.
