 Gaussian 16, Revision A.03,

 -----------------------------------------------------------
 # opt freq B3LYP/6-31G(d) empiricaldispersion=gd3bj scf=xqc
 -----------------------------------------------------------

 -------------------------------
 CID_110875680_JID_7874_neutraal
 -------------------------------
 Symbolic Z-matrix:
 Charge =  0 Multiplicity = 1

 SCF Done:  E(RB3LYP) =  -805.729413891     A.U. after   14 cycles
 SCF Done:  E(RB3LYP) =  -805.733359978     A.U. after   12 cycles
 SCF Done:  E(RB3LYP) =  -805.733651870     A.U. after   11 cycles
 SCF Done:  E(RB3LYP) =  -805.733846788     A.U. after   11 cycles
 SCF Done:  E(RB3LYP) =  -805.733939144     A.U. after   10 cycles
 SCF Done:  E(RB3LYP) =  -805.733998728     A.U. after    9 cycles
 SCF Done:  E(RB3LYP) =  -805.734088137     A.U. after   10 cycles
 SCF Done:  E(RB3LYP) =  -805.734148613     A.U. after   11 cycles
 SCF Done:  E(RB3LYP) =  -805.734156496     A.U. after    9 cycles
 SCF Done:  E(RB3LYP) =  -805.734284830     A.U. after   11 cycles
 SCF Done:  E(RB3LYP) =  -805.736665295     A.U. after   12 cycles
 SCF Done:  E(RB3LYP) =  -805.736701274     A.U. after   11 cycles
 SCF Done:  E(RB3LYP) =  -805.736704662     A.U. after   10 cycles
 SCF Done:  E(RB3LYP) =  -805.736706276     A.U. after    9 cycles
 SCF Done:  E(RB3LYP) =  -805.736706423     A.U. after    8 cycles
 SCF Done:  E(RB3LYP) =  -805.736706473     A.U. after    7 cycles
 Optimization completed.
    -- Stationary point found.
 Normal termination of Gaussian 16 at Fri Dec 11 13:41:36 2020.

 --------------------------------------------------------------------
 #N Geom=AllCheck Guess=TCheck SCRF=Check GenChk RB3LYP/6-31G(d) Freq
 --------------------------------------------------------------------

 Structure from the checkpoint file:  "JID_7874.chk"
 -------------------------------
 CID_110875680_JID_7874_neutraal
 -------------------------------
 Charge =  0 Multiplicity = 1

 SCF Done:  E(RB3LYP) =  -805.736706473     A.U. after    1 cycles

  Exact polarizability: 160.079   1.610 137.778 -10.291  -3.487 133.260
 Approx polarizability: 209.146   7.386 200.372 -12.329  -8.285 198.605

                      1                      2                      3
                      A                      A                      A
 Frequencies --     23.3255                29.8859                32.9637
 Red. masses --      4.0314                 3.5001                 4.4043
 Frc consts  --      0.0013                 0.0018                 0.0028
 IR Inten    --      0.4924                 0.2651                 0.0796

                      4                      5                      6
                      A                      A                      A
 Frequencies --     49.5788                81.9367               129.9333
 Red. masses --      7.2653                 3.9958                 3.9752
 Frc consts  --      0.0105                 0.0158                 0.0395
 IR Inten    --      1.1470                 2.0375                 1.4787

                      7                      8                      9
                      A                      A                      A
 Frequencies --    149.1674               161.7938               185.9843
 Red. masses --      3.8576                 3.4968                 3.2557
 Frc consts  --      0.0506                 0.0539                 0.0663
 IR Inten    --      0.9583                 0.5809                 0.6724

                     10                     11                     12
                      A                      A                      A
 Frequencies --    220.2570               278.5013               309.0660
 Red. masses --      3.1033                 3.2736                 2.6482
 Frc consts  --      0.0887                 0.1496                 0.1490
 IR Inten    --      1.4718                 4.2104                 8.0092

                     13                     14                     15
                      A                      A                      A
 Frequencies --    311.4428               317.0342               387.2142
 Red. masses --      2.2025                 2.4725                 2.1448
 Frc consts  --      0.1259                 0.1464                 0.1895
 IR Inten    --      2.2293                 2.8923                 0.8605

                     16                     17                     18
                      A                      A                      A
 Frequencies --    422.4146               426.7724               438.2922
 Red. masses --      1.9258                 2.1116                 2.1633
 Frc consts  --      0.2025                 0.2266                 0.2448
 IR Inten    --      1.0172                 4.5501                 0.2508

                     19                     20                     21
                      A                      A                      A
 Frequencies --    467.4250               474.2916               487.7636
 Red. masses --      3.6759                 2.5456                 3.0611
 Frc consts  --      0.4732                 0.3374                 0.4291
 IR Inten    --      1.5390                 8.2048                 1.3547

                     22                     23                     24
                      A                      A                      A
 Frequencies --    495.9676               500.4478               580.3307
 Red. masses --      2.6420                 3.8901                 2.0896
 Frc consts  --      0.3829                 0.5740                 0.4146
 IR Inten    --      0.9369                 1.4289                15.4365

                     25                     26                     27
                      A                      A                      A
 Frequencies --    619.4108               635.3449               656.7398
 Red. masses --      1.7866                 1.6149                 2.1269
 Frc consts  --      0.4039                 0.3841                 0.5405
 IR Inten    --     12.0196                49.1597                11.6397

                     28                     29                     30
                      A                      A                      A
 Frequencies --    705.0381               800.2264               826.5974
 Red. masses --      3.2595                 3.1433                 3.3673
 Frc consts  --      0.9546                 1.1859                 1.3556
 IR Inten    --     49.5547                 2.3162                 4.8946

                     31                     32                     33
                      A                      A                      A
 Frequencies --    827.6275               851.2595               857.6538
 Red. masses --      1.6525                 2.3045                 2.3175
 Frc consts  --      0.6669                 0.9839                 1.0044
 IR Inten    --      1.6914                 1.9384                 0.4691

                     34                     35                     36
                      A                      A                      A
 Frequencies --    865.3478               871.7956               896.9267
 Red. masses --      3.3125                 3.2090                 2.5558
 Frc consts  --      1.4614                 1.4370                 1.2114
 IR Inten    --     26.3559                15.2039                 6.6030

                     37                     38                     39
                      A                      A                      A
 Frequencies --    905.2175               956.3306               969.0889
 Red. masses --      2.8346                 1.7889                 2.3780
 Frc consts  --      1.3685                 0.9639                 1.3158
 IR Inten    --      8.4656                10.9289                15.7803

                     40                     41                     42
                      A                      A                      A
 Frequencies --   1000.4546              1012.5926              1027.8062
 Red. masses --      2.6152                 1.9224                 1.8617
 Frc consts  --      1.5422                 1.1613                 1.1587
 IR Inten    --     25.8239                13.1767                12.6881

                     43                     44                     45
                      A                      A                      A
 Frequencies --   1045.8709              1053.4994              1067.9889
 Red. masses --      1.4566                 2.5010                 2.3504
 Frc consts  --      0.9388                 1.6354                 1.5795
 IR Inten    --      0.6942                31.8312                10.8415

                     46                     47                     48
                      A                      A                      A
 Frequencies --   1085.1984              1099.2136              1111.7139
 Red. masses --      2.1581                 1.8120                 1.9104
 Frc consts  --      1.4974                 1.2899                 1.3911
 IR Inten    --     12.0169                 4.9978                57.9995

                     49                     50                     51
                      A                      A                      A
 Frequencies --   1115.8823              1144.5445              1145.8734
 Red. masses --      2.1287                 3.9733                 5.5893
 Frc consts  --      1.5617                 3.0666                 4.3239
 IR Inten    --     30.5477                 6.7780               100.1258

                     52                     53                     54
                      A                      A                      A
 Frequencies --   1174.0626              1181.8051              1184.8164
 Red. masses --      2.5467                 2.5855                 2.4991
 Frc consts  --      2.0683                 2.1276                 2.0670
 IR Inten    --     22.1473                 7.1583                 4.4723

                     55                     56                     57
                      A                      A                      A
 Frequencies --   1227.5843              1241.6152              1250.4019
 Red. masses --      1.2241                 1.2066                 1.4372
 Frc consts  --      1.0868                 1.0960                 1.3240
 IR Inten    --      2.8774                20.0517                42.1387

                     58                     59                     60
                      A                      A                      A
 Frequencies --   1265.4487              1275.4605              1306.6667
 Red. masses --      1.3803                 1.2203                 1.3547
 Frc consts  --      1.3023                 1.1697                 1.3628
 IR Inten    --     28.8695                11.9667                20.8663

                     61                     62                     63
                      A                      A                      A
 Frequencies --   1310.9024              1331.5122              1335.9928
 Red. masses --      1.2283                 1.2285                 1.3030
 Frc consts  --      1.2436                 1.2833                 1.3702
 IR Inten    --      1.9565                 9.2499                16.1243

                     64                     65                     66
                      A                      A                      A
 Frequencies --   1340.2744              1363.2872              1376.4377
 Red. masses --      1.2444                 1.4829                 1.2740
 Frc consts  --      1.3170                 1.6239                 1.4221
 IR Inten    --      1.7617                72.0216                 7.6189

                     67                     68                     69
                      A                      A                      A
 Frequencies --   1380.6287              1387.5637              1394.2665
 Red. masses --      1.3129                 1.5074                 1.3287
 Frc consts  --      1.4745                 1.7100                 1.5218
 IR Inten    --      0.5146                 8.2098                13.8438

                     70                     71                     72
                      A                      A                      A
 Frequencies --   1400.8157              1404.4471              1413.5413
 Red. masses --      1.4541                 1.2854                 1.3835
 Frc consts  --      1.6811                 1.4938                 1.6287
 IR Inten    --      4.1627                22.4867                 2.7626

                     73                     74                     75
                      A                      A                      A
 Frequencies --   1415.7297              1424.7940              1433.0880
 Red. masses --      1.3643                 1.3793                 1.5420
 Frc consts  --      1.6111                 1.6497                 1.8658
 IR Inten    --     12.5041                 3.3552                20.4732

                     76                     77                     78
                      A                      A                      A
 Frequencies --   1443.3215              1448.5065              1497.2942
 Red. masses --      1.4100                 1.3538                 1.0877
 Frc consts  --      1.7306                 1.6736                 1.4367
 IR Inten    --     11.5130                 5.2844                 5.0150

                     79                     80                     81
                      A                      A                      A
 Frequencies --   1501.9433              1507.1067              1509.5092
 Red. masses --      1.1151                 1.1623                 1.3976
 Frc consts  --      1.4821                 1.5555                 1.8763
 IR Inten    --     10.3316                14.3831                19.1942

                     82                     83                     84
                      A                      A                      A
 Frequencies --   1514.5450              1515.2388              1518.2450
 Red. masses --      1.1315                 1.0916                 1.1604
 Frc consts  --      1.5292                 1.4767                 1.5760
 IR Inten    --      6.3996                 7.9149                11.2093

                     85                     86                     87
                      A                      A                      A
 Frequencies --   1524.9443              1526.7132              1536.4015
 Red. masses --      1.0948                 1.1026                 1.1148
 Frc consts  --      1.5000                 1.5142                 1.5504
 IR Inten    --      3.3393                 2.1814                 3.0213

                     88                     89                     90
                      A                      A                      A
 Frequencies --   1547.0963              1794.6191              2964.3659
 Red. masses --      1.0847                 8.0664                 1.0714
 Frc consts  --      1.5296                15.3064                 5.5469
 IR Inten    --      6.1839               361.6250                55.2040

                     91                     92                     93
                      A                      A                      A
 Frequencies --   2968.0323              2976.0599              2978.4341
 Red. masses --      1.0726                 1.0722                 1.0711
 Frc consts  --      5.5671                 5.5949                 5.5985
 IR Inten    --     22.2011               123.4302                62.5056

                     94                     95                     96
                      A                      A                      A
 Frequencies --   3006.8042              3024.7936              3036.7285
 Red. masses --      1.0693                 1.0824                 1.0730
 Frc consts  --      5.6960                 5.8347                 5.8301
 IR Inten    --    105.8466                21.7168                12.6841

                     97                     98                     99
                      A                      A                      A
 Frequencies --   3044.3314              3046.4915              3053.1813
 Red. masses --      1.0619                 1.0642                 1.0651
 Frc consts  --      5.7987                 5.8195                 5.8496
 IR Inten    --     31.1450                61.1205                39.0941

                    100                    101                    102
                      A                      A                      A
 Frequencies --   3057.8452              3088.2972              3095.9242
 Red. masses --      1.0625                 1.1016                 1.1030
 Frc consts  --      5.8537                 6.1905                 6.2291
 IR Inten    --     22.1298                31.8484                38.7949

                    103                    104                    105
                      A                      A                      A
 Frequencies --   3099.1081              3102.4302              3107.3181
 Red. masses --      1.1026                 1.0912                 1.0939
 Frc consts  --      6.2397                 6.1883                 6.2231
 IR Inten    --     29.7128                48.0178                55.8912

                    106                    107                    108
                      A                      A                      A
 Frequencies --   3110.0287              3111.2531              3112.2525
 Red. masses --      1.0912                 1.1002                 1.0926
 Frc consts  --      6.2182                 6.2749                 6.2351
 IR Inten    --     38.4323                30.0367                45.2856

                    109                    110                    111
                      A                      A                      A
 Frequencies --   3114.4950              3165.0700              3572.4956
 Red. masses --      1.0905                 1.0875                 1.0751
 Frc consts  --      6.2321                 6.4185                 8.0845
 IR Inten    --     20.5952                12.7559                15.2929

 - Thermochemistry -
 -------------------
 Temperature   298.150 Kelvin.  Pressure   1.00000 Atm.
 Atom     1 has atomic number  6 and mass  12.00000

 Molecular mass:   242.16304 amu.
 Principal axes and moments of inertia in atomic units:
                           1         2         3
     Eigenvalues --  2913.202595846.186557236.65917
           X            0.99988  -0.01186  -0.00954
           Y            0.01188   0.99993   0.00211
           Z            0.00951  -0.00222   0.99995
 This molecule is an asymmetric top.
 Rotational symmetry number  1.
 Warning -- assumption of classical behavior for rotation
           may cause significant error
 Rotational temperatures (Kelvin)      0.02973     0.01482     0.01197
 Rotational constants (GHZ):           0.61950     0.30870     0.24939
 Zero-point vibrational energy     916096.7 (Joules/Mol)
                                  218.95236 (Kcal/Mol)
 Warning -- explicit consideration of  25 degrees of freedom as
           vibrations may cause significant error
 Vibrational temperatures:     33.56    43.00    47.43    71.33   117.89
          (Kelvin)            186.95   214.62   232.79   267.59   316.90
                              400.70   444.68   448.10   456.14   557.11
                              607.76   614.03   630.60   672.52   682.40
                              701.78   713.59   720.03   834.97   891.19
                              914.12   944.90  1014.39  1151.35  1189.29
                             1190.77  1224.77  1233.97  1245.04  1254.32
                             1290.48  1302.41  1375.95  1394.30  1439.43
                             1456.89  1478.78  1504.78  1515.75  1536.60
                             1561.36  1581.52  1599.51  1605.51  1646.74
                             1648.66  1689.21  1700.35  1704.69  1766.22
                             1786.41  1799.05  1820.70  1835.10  1880.00
                             1886.10  1915.75  1922.20  1928.36  1961.47
                             1980.39  1986.42  1996.39  2006.04  2015.46
                             2020.69  2033.77  2036.92  2049.96  2061.89
                             2076.62  2084.08  2154.27  2160.96  2168.39
                             2171.85  2179.09  2180.09  2184.42  2194.05
                             2196.60  2210.54  2225.93  2582.06  4265.06
                             4270.34  4281.89  4285.30  4326.12  4352.00
                             4369.18  4380.11  4383.22  4392.85  4399.56
                             4443.37  4454.34  4458.93  4463.71  4470.74
                             4474.64  4476.40  4477.84  4481.06  4553.83
                             5140.02

 Zero-point correction=                           0.348923 (Hartree/Particle)
 Thermal correction to Energy=                    0.365089
 Thermal correction to Enthalpy=                  0.366034
 Thermal correction to Gibbs Free Energy=         0.303139
 Sum of electronic and zero-point Energies=           -805.387784
 Sum of electronic and thermal Energies=              -805.371617
 Sum of electronic and thermal Enthalpies=            -805.370673
 Sum of electronic and thermal Free Energies=         -805.433567

                     E (Thermal)             CV                S
                      KCal/Mol        Cal/Mol-Kelvin    Cal/Mol-Kelvin
 Total                  229.097             62.713            132.372
 Electronic               0.000              0.000              0.000
 Translational            0.889              2.981             42.354
 Rotational               0.889              2.981             33.177
 Vibrational            227.320             56.751             56.841
 Vibration     1          0.593              1.985              6.329
 Vibration     2          0.594              1.984              5.837
 Vibration     3          0.594              1.983              5.643
 Vibration     4          0.595              1.978              4.834
 Vibration     5          0.600              1.962              3.844
 Vibration     6          0.612              1.923              2.947
 Vibration     7          0.618              1.904              2.683
 Vibration     8          0.622              1.889              2.529
 Vibration     9          0.632              1.859              2.267
 Vibration    10          0.647              1.810              1.957
 Vibration    11          0.679              1.713              1.543
 Vibration    12          0.698              1.656              1.367
 Vibration    13          0.700              1.652              1.355
 Vibration    14          0.704              1.641              1.325
 Vibration    15          0.756              1.497              1.011
 Vibration    16          0.785              1.422              0.884
 Vibration    17          0.788              1.412              0.869
 Vibration    18          0.798              1.387              0.832
 Vibration    19          0.825              1.322              0.745
 Vibration    20          0.831              1.307              0.726
 Vibration    21          0.844              1.277              0.689
 Vibration    22          0.852              1.259              0.668
 Vibration    23          0.856              1.249              0.657
 Vibration    24          0.937              1.074              0.485
 Vibration    25          0.979              0.991              0.417

 Optimization completed.
    -- Stationary point found.
 Normal termination of Gaussian 16 at Fri Dec 11 13:57:09 2020.

 ----------------------------------------------------------------------
 # B3LYP/6-311++G(d,p) empiricaldispersion=gd3bj scf=xqc pop=npa geom=c
 heck
 ----------------------------------------------------------------------

 ---------------------------------------
 CID_110875680_JID_7874_Energie_neutraal
 ---------------------------------------
 Structure from the checkpoint file:  "JID_7874.chk"
 Charge =  0 Multiplicity = 1

 SCF Done:  E(RB3LYP) =  -805.970809470     A.U. after   15 cycles
 Normal termination of Gaussian 16 at Fri Dec 11 14:05:36 2020.

 ----------------------------------------------------------------------
 # B3LYP/6-311++G(d,p) empiricaldispersion=gd3bj scf=xqc pop=npa geom=c
 heck
 ----------------------------------------------------------------------

 -------------------------------------
 CID_110875680_JID_7874_Energie_kation
 -------------------------------------
 Structure from the checkpoint file:  "JID_7874.chk"
 Charge =  1 Multiplicity = 2

 SCF Done:  E(UB3LYP) =  -805.685631042     A.U. after   24 cycles
 Normal termination of Gaussian 16 at Fri Dec 11 14:24:41 2020.
 Gaussian 16:  ES64L-G16RevA.03 25-Dec-2016

 ----------------------------------------------------------------------
 # B3LYP/6-311++G(d,p) empiricaldispersion=gd3bj scf=xqc pop=npa geom=c
 heck
 ----------------------------------------------------------------------

 ------------------------------------
 CID_110875680_JID_7874_Energie_anion
 ------------------------------------
 Structure from the checkpoint file:  "JID_7874.chk"
 Charge = -1 Multiplicity = 2

                         Standard orientation:
 ---------------------------------------------------------------------
 Center     Atomic      Atomic             Coordinates (Angstroms)
 Number     Number       Type             X           Y           Z
 ---------------------------------------------------------------------
      1          6           0       -2.575095    0.600981   -1.098587
      2          6           0       -2.242349   -0.833587   -1.516172
      3          8           0       -3.123597   -1.776818   -0.923138
      4          6           0       -3.041713   -1.744139    0.494184
      5          6           0       -3.451645   -0.376792    1.046090
      6          6           0       -2.612322    0.761640    0.433064
      7          6           0       -1.205686    0.824451    1.061472
      8          7           0       -0.457400    2.008592    0.673029
      9          6           0        0.616006    2.165109   -0.169702
     10          8           0        1.057628    3.278404   -0.414726
     11          6           0        1.258837    0.914187   -0.782584
     12          7           0        2.501205    0.582450   -0.087223
     13          6           0        3.401779   -0.274371   -0.864208
     14          6           0        2.977085   -1.744902   -0.852943
     15          8           0        2.869883   -2.224256    0.484514
     16          6           0        1.931763   -1.461846    1.233107
     17          6           0        2.324093    0.019260    1.255504
     18          1           0       -3.561015    0.854278   -1.506036
     19          1           0       -1.854654    1.299294   -1.541392
     20          1           0       -2.346582   -0.956560   -2.597940
     21          1           0       -1.200734   -1.089163   -1.253060
     22          1           0       -2.017726   -2.005646    0.815601
     23          1           0       -3.712217   -2.528502    0.856702
     24          1           0       -3.368649   -0.376051    2.141178
     25          1           0       -4.507639   -0.213563    0.800379
     26          1           0       -3.101895    1.716909    0.668479
     27          1           0       -1.304610    0.817037    2.155345
     28          1           0       -0.621695   -0.058473    0.803759
     29          1           0       -0.813269    2.900084    1.000691
     30          1           0        0.544893    0.079690   -0.859892
     31          1           0        1.521887    1.204603   -1.802982
     32          1           0        4.400980   -0.199562   -0.415602
     33          1           0        3.464820    0.106417   -1.889713
     34          1           0        2.014003   -1.876333   -1.376195
     35          1           0        3.721596   -2.376629   -1.347102
     36          1           0        1.927022   -1.881628    2.244016
     37          1           0        0.921991   -1.597539    0.805976
     38          1           0        3.282520    0.111554    1.781916
     39          1           0        1.588508    0.613910    1.806689
 ---------------------------------------------------------------------

 SCF Done:  E(UB3LYP) =  -805.962642751     A.U. after   32 cycles

 The electronic state is 2-A.
 Alpha  occ. eigenvalues --  -19.04418 -19.03352 -18.99386 -14.24650 -14.22710
 Alpha  occ. eigenvalues --  -10.18216 -10.13448 -10.13276 -10.12714 -10.12393
 Alpha  occ. eigenvalues --  -10.11871 -10.11818 -10.11472 -10.11087 -10.08873
 Alpha  occ. eigenvalues --  -10.07851 -10.07517  -0.96010  -0.94902  -0.94691
 Alpha  occ. eigenvalues --   -0.84470  -0.83219  -0.72210  -0.69162  -0.67561
 Alpha  occ. eigenvalues --   -0.66001  -0.61808  -0.58124  -0.57490  -0.55040
 Alpha  occ. eigenvalues --   -0.54563  -0.50792  -0.47490  -0.46379  -0.42775
 Alpha  occ. eigenvalues --   -0.41790  -0.40433  -0.39848  -0.39750  -0.39065
 Alpha  occ. eigenvalues --   -0.38686  -0.38229  -0.37381  -0.36386  -0.36054
 Alpha  occ. eigenvalues --   -0.33536  -0.32619  -0.32023  -0.31397  -0.30752
 Alpha  occ. eigenvalues --   -0.30116  -0.29992  -0.29129  -0.28161  -0.27408
 Alpha  occ. eigenvalues --   -0.26784  -0.26595  -0.25222  -0.23873  -0.23366
 Alpha  occ. eigenvalues --   -0.21824  -0.19812  -0.16907  -0.16772  -0.16161
 Alpha  occ. eigenvalues --   -0.12508   0.03877
 Alpha virt. eigenvalues --    0.05681   0.06522   0.07031   0.07654   0.07983
 Alpha virt. eigenvalues --    0.08499   0.09150   0.09501   0.09990   0.10156
 Alpha virt. eigenvalues --    0.10493   0.10754   0.11461   0.11904   0.12880

  Beta  occ. eigenvalues --  -19.04414 -19.03345 -18.99382 -14.24633 -14.22710
  Beta  occ. eigenvalues --  -10.18214 -10.13432 -10.13262 -10.12698 -10.12377
  Beta  occ. eigenvalues --  -10.11842 -10.11805 -10.11462 -10.11076 -10.08859
  Beta  occ. eigenvalues --  -10.07836 -10.07488  -0.95999  -0.94888  -0.94682
  Beta  occ. eigenvalues --   -0.84462  -0.83189  -0.72165  -0.69140  -0.67526
  Beta  occ. eigenvalues --   -0.65980  -0.61759  -0.58098  -0.57458  -0.54987
  Beta  occ. eigenvalues --   -0.54514  -0.50756  -0.47457  -0.46326  -0.42747
  Beta  occ. eigenvalues --   -0.41740  -0.40380  -0.39822  -0.39722  -0.39047
  Beta  occ. eigenvalues --   -0.38652  -0.38209  -0.37355  -0.36348  -0.36014
  Beta  occ. eigenvalues --   -0.33510  -0.32600  -0.31998  -0.31365  -0.30725
  Beta  occ. eigenvalues --   -0.30095  -0.29952  -0.29106  -0.28141  -0.27375
  Beta  occ. eigenvalues --   -0.26751  -0.26574  -0.25180  -0.23860  -0.23324
  Beta  occ. eigenvalues --   -0.21798  -0.19788  -0.16889  -0.16744  -0.16135
  Beta  occ. eigenvalues --   -0.12493
  Beta virt. eigenvalues --    0.05889   0.06685   0.07129   0.07472   0.08135
  Beta virt. eigenvalues --    0.08464   0.08762   0.09427   0.09901   0.10242
  Beta virt. eigenvalues --    0.10529   0.10812   0.10921   0.11786   0.12096

 Mulliken charges and spin densities:
               1          2
     1  C   -0.652702   0.234001
     2  C   -0.154432  -0.260850
     3  O   -0.088918   0.013320
     4  C   -0.270025  -0.123287
     5  C    1.335072  -1.747950
     6  C   -0.487839   0.910257
     7  C    0.896126  -1.390222
     8  N   -0.438852   0.334184
     9  C   -0.399704   0.354667
    10  O   -0.337058   0.009442
    11  C   -0.375625  -0.179815
    12  N    0.253668  -0.025164
    13  C    0.202560  -0.271809
    14  C   -0.046592  -0.284549
    15  O   -0.086939   0.005500
    16  C   -0.365156  -0.076010
    17  C   -0.298073   0.055925
    18  H   -0.094340   0.290041
    19  H    0.022862   0.142713
    20  H   -0.061712   0.236911
    21  H    0.106870   0.157018
    22  H   -0.155033   0.274312
    23  H   -0.343271   0.548795
    24  H   -0.420039   0.569390
    25  H   -0.009330   0.182822
    26  H   -0.341260   0.566212
    27  H   -0.706001   0.939820
    28  H    1.378757  -1.384140
    29  H    0.013416   0.312700
    30  H    0.746511  -0.827330
    31  H   -0.057480   0.242048
    32  H    0.143315   0.012990
    33  H   -0.015989   0.155043
    34  H   -0.144641   0.285889
    35  H   -0.118582   0.307267
    36  H   -0.228599   0.404547
    37  H    0.562158  -0.313395
    38  H    0.050351   0.140376
    39  H   -0.013475   0.198330
 Sum of Mulliken charges =  -1.00000   1.00000

 Dipole moment (field-independent basis, Debye):
    X=              3.8967    Y=             -1.7929    Z=             -3.0150  Tot=              5.2430
 Quadrupole moment (field-independent basis, Debye-Ang):
   XX=           -174.7539   YY=           -165.4702   ZZ=           -151.8592
   XY=             -2.4511   XZ=              8.7802   YZ=             -0.8896

 Summary of Natural Population Analysis:

                                       Natural Population
                Natural  -----------------------------------------------
    Atom  No    Charge         Core      Valence    Rydberg      Total
 -----------------------------------------------------------------------
      C    1   -0.20565      0.99960     2.19760    0.00844     3.20565
      C    2   -0.01001      0.99957     1.99825    0.01218     3.01001
      O    3   -0.29979      0.99989     3.29068    0.00922     4.29979
      C    4   -0.00944      0.99958     1.99720    0.01266     3.00944
      C    5   -0.20408      0.99961     2.19437    0.01010     3.20408
      C    6   -0.11464      0.99958     2.10208    0.01297     3.11464
      C    7   -0.09522      0.99957     2.08258    0.01307     3.09522
      N    8   -0.31590      0.99967     2.80552    0.01071     3.81590
      C    9    0.34090      0.99967     1.63729    0.02215     2.65910
      O   10   -0.31941      0.99988     3.31354    0.00599     4.31941
      C   11   -0.12984      0.99955     2.11904    0.01125     3.12984
      N   12   -0.27183      0.99973     2.75969    0.01241     3.77183
      C   13   -0.09774      0.99962     2.08669    0.01144     3.09774
      C   14   -0.02191      0.99958     2.01024    0.01209     3.02191
      O   15   -0.29979      0.99989     3.29046    0.00943     4.29979
      C   16   -0.02163      0.99958     2.00979    0.01226     3.02163
      C   17   -0.10293      0.99961     2.09217    0.01114     3.10293
      H   18    0.10261      0.00000     0.39624    0.00115     0.39739
      H   19    0.10320      0.00000     0.39544    0.00136     0.39680
      H   20    0.09230      0.00000     0.40649    0.00121     0.40770
      H   21    0.07289      0.00000     0.42514    0.00197     0.42711
      H   22    0.07469      0.00000     0.42350    0.00181     0.42531
      H   23    0.09291      0.00000     0.40579    0.00131     0.40709
      H   24    0.10658      0.00000     0.39079    0.00263     0.39342
      H   25    0.10188      0.00000     0.39674    0.00137     0.39812
      H   26    0.10383      0.00000     0.39356    0.00262     0.39617
      H   27    0.10358      0.00000     0.39309    0.00333     0.39642
      H   28    0.09681      0.00000     0.39977    0.00342     0.40319
      H   29    0.19672      0.00000     0.30089    0.00239     0.30328
      H   30    0.08439      0.00000     0.41329    0.00232     0.41561
      H   31    0.10930      0.00000     0.38941    0.00130     0.39070
      H   32    0.09539      0.00000     0.40351    0.00109     0.40461
      H   33    0.09905      0.00000     0.39997    0.00097     0.40095
      H   34    0.07881      0.00000     0.41976    0.00144     0.42119
      H   35    0.09195      0.00000     0.40679    0.00126     0.40805
      H   36    0.09485      0.00000     0.40375    0.00140     0.40515
      H   37    0.07584      0.00000     0.42218    0.00198     0.42416
      H   38    0.09682      0.00000     0.40206    0.00113     0.40318
      H   39    0.10449      0.00000     0.39428    0.00123     0.39551
 =======================================================================
   * Total *    0.00000     16.99418    48.76963    0.23619    66.00000

 Normal termination of Gaussian 16 at Fri Dec 11 14:50:17 2020.
