 Gaussian 16, Revision A.03,

 -----------------------------------------------------------
 # opt freq B3LYP/6-31G(d) empiricaldispersion=gd3bj scf=xqc
 -----------------------------------------------------------

 -------------------------------
 CID_114708228_JID_9256_neutraal
 -------------------------------
 Symbolic Z-matrix:
 Charge =  0 Multiplicity = 1

 SCF Done:  E(RB3LYP) =  -787.873507818     A.U. after   14 cycles
 SCF Done:  E(RB3LYP) =  -787.879668404     A.U. after   12 cycles
 SCF Done:  E(RB3LYP) =  -787.881687486     A.U. after   12 cycles
 SCF Done:  E(RB3LYP) =  -787.883858650     A.U. after   12 cycles
 SCF Done:  E(RB3LYP) =  -787.886187314     A.U. after   14 cycles
 SCF Done:  E(RB3LYP) =  -787.886535678     A.U. after   12 cycles
 SCF Done:  E(RB3LYP) =  -787.884910093     A.U. after   13 cycles
 SCF Done:  E(RB3LYP) =  -787.888358975     A.U. after   11 cycles
 SCF Done:  E(RB3LYP) =  -787.888657557     A.U. after   11 cycles
 SCF Done:  E(RB3LYP) =  -787.888684735     A.U. after   11 cycles
 SCF Done:  E(RB3LYP) =  -787.888717362     A.U. after   10 cycles
 SCF Done:  E(RB3LYP) =  -787.888726612     A.U. after   10 cycles
 SCF Done:  E(RB3LYP) =  -787.888730335     A.U. after   10 cycles
 SCF Done:  E(RB3LYP) =  -787.888731030     A.U. after    8 cycles
 SCF Done:  E(RB3LYP) =  -787.888731195     A.U. after    7 cycles
 Optimization completed.
    -- Stationary point found.
 Normal termination of Gaussian 16 at Sun Dec 13 20:28:05 2020.

 --------------------------------------------------------------------
 #N Geom=AllCheck Guess=TCheck SCRF=Check GenChk RB3LYP/6-31G(d) Freq
 --------------------------------------------------------------------

 Structure from the checkpoint file:  "JID_9256.chk"
 -------------------------------
 CID_114708228_JID_9256_neutraal
 -------------------------------
 Charge =  0 Multiplicity = 1

 SCF Done:  E(RB3LYP) =  -787.888731195     A.U. after    1 cycles

  Exact polarizability: 212.412   4.180 165.962 -11.546  12.087 152.527
 Approx polarizability: 294.992   1.414 255.918 -23.998  34.267 247.743

                      1                      2                      3
                      A                      A                      A
 Frequencies --     23.7053                52.2287                54.5659
 Red. masses --      4.1138                 4.0922                 3.4828
 Frc consts  --      0.0014                 0.0066                 0.0061
 IR Inten    --      0.2882                 0.5782                 0.0805

                      4                      5                      6
                      A                      A                      A
 Frequencies --     80.1856                87.9752               100.6717
 Red. masses --      3.4601                 3.1976                 3.1939
 Frc consts  --      0.0131                 0.0146                 0.0191
 IR Inten    --      0.3457                 0.3823                 1.1564

                      7                      8                      9
                      A                      A                      A
 Frequencies --    110.7831               154.3105               169.8532
 Red. masses --      3.4896                 1.8016                 2.2384
 Frc consts  --      0.0252                 0.0253                 0.0380
 IR Inten    --      0.1073                 1.2113                 0.8232

                     10                     11                     12
                      A                      A                      A
 Frequencies --    197.2559               216.0962               236.1241
 Red. masses --      1.7581                 1.8241                 1.1794
 Frc consts  --      0.0403                 0.0502                 0.0387
 IR Inten    --      0.2425                 0.2819                 0.4619

                     13                     14                     15
                      A                      A                      A
 Frequencies --    240.7037               250.5567               271.3594
 Red. masses --      2.6640                 1.5472                 2.4855
 Frc consts  --      0.0909                 0.0572                 0.1078
 IR Inten    --      1.2933                 1.2891                 0.6572

                     16                     17                     18
                      A                      A                      A
 Frequencies --    279.2668               305.2188               312.0698
 Red. masses --      2.5783                 2.5663                 1.4705
 Frc consts  --      0.1185                 0.1409                 0.0844
 IR Inten    --      0.1596                 0.4061                 1.9167

                     19                     20                     21
                      A                      A                      A
 Frequencies --    325.5027               372.7079               380.3304
 Red. masses --      2.5187                 2.9551                 2.7826
 Frc consts  --      0.1572                 0.2419                 0.2371
 IR Inten    --      1.8385                 3.9146                 0.7815

                     22                     23                     24
                      A                      A                      A
 Frequencies --    411.5007               420.2716               444.6461
 Red. masses --      3.6749                 3.0247                 3.4092
 Frc consts  --      0.3666                 0.3148                 0.3971
 IR Inten    --      0.6962                 0.0873                 0.6303

                     25                     26                     27
                      A                      A                      A
 Frequencies --    498.0390               522.8439               539.8830
 Red. masses --      3.6932                 3.5037                 3.4661
 Frc consts  --      0.5397                 0.5643                 0.5952
 IR Inten    --      1.6356                 0.4508                 8.7660

                     28                     29                     30
                      A                      A                      A
 Frequencies --    595.2324               629.5471               637.6139
 Red. masses --      2.9690                 3.7987                 6.1097
 Frc consts  --      0.6198                 0.8870                 1.4635
 IR Inten    --      4.0602                 4.0439                 0.6438

                     31                     32                     33
                      A                      A                      A
 Frequencies --    680.2743               700.7126               717.7142
 Red. masses --      3.4845                 3.7517                 2.3832
 Frc consts  --      0.9501                 1.0853                 0.7233
 IR Inten    --     16.1636                 4.0201                14.6775

                     34                     35                     36
                      A                      A                      A
 Frequencies --    738.5909               767.1331               777.7992
 Red. masses --      1.7113                 1.8229                 1.8626
 Frc consts  --      0.5500                 0.6321                 0.6639
 IR Inten    --     18.4972                57.4976                35.3744

                     37                     38                     39
                      A                      A                      A
 Frequencies --    800.0670               829.7782               840.6138
 Red. masses --      1.4579                 2.6903                 1.4264
 Frc consts  --      0.5498                 1.0914                 0.5938
 IR Inten    --      8.7737                 6.7723                 8.1937

                     40                     41                     42
                      A                      A                      A
 Frequencies --    858.8958               867.3005               892.3435
 Red. masses --      1.7553                 1.2564                 1.4820
 Frc consts  --      0.7629                 0.5568                 0.6953
 IR Inten    --     12.8021                 0.0302                15.5561

                     43                     44                     45
                      A                      A                      A
 Frequencies --    927.8238               929.3264               941.1729
 Red. masses --      2.1770                 1.8585                 2.2540
 Frc consts  --      1.1042                 0.9457                 1.1764
 IR Inten    --      7.5143                 8.3294                 8.8725

                     46                     47                     48
                      A                      A                      A
 Frequencies --    944.2444               956.4068               977.4229
 Red. masses --      1.5059                 2.4037                 1.3435
 Frc consts  --      0.7911                 1.2954                 0.7562
 IR Inten    --      2.1890                16.1567                 0.8385

                     49                     50                     51
                      A                      A                      A
 Frequencies --    999.8041              1024.0029              1033.8946
 Red. masses --      1.2519                 6.1895                 1.3036
 Frc consts  --      0.7373                 3.8239                 0.8210
 IR Inten    --      1.1390                 0.3064                 0.9767

                     52                     53                     54
                      A                      A                      A
 Frequencies --   1051.8312              1066.2149              1097.3225
 Red. masses --      2.4702                 2.1784                 1.7748
 Frc consts  --      1.6102                 1.4591                 1.2591
 IR Inten    --      2.6959                 1.5458                 2.4958

                     55                     56                     57
                      A                      A                      A
 Frequencies --   1099.8987              1116.6475              1127.8444
 Red. masses --      1.8357                 1.9300                 2.2203
 Frc consts  --      1.3085                 1.4179                 1.6641
 IR Inten    --      6.9658                 4.4009                 7.5992

                     58                     59                     60
                      A                      A                      A
 Frequencies --   1140.1020              1154.7410              1169.2360
 Red. masses --      2.4412                 1.9284                 1.8629
 Frc consts  --      1.8696                 1.5150                 1.5005
 IR Inten    --     13.0199                 3.0507                11.6483

                     61                     62                     63
                      A                      A                      A
 Frequencies --   1170.6867              1194.9125              1214.0345
 Red. masses --      1.7463                 1.0974                 2.3510
 Frc consts  --      1.4101                 0.9232                 2.0416
 IR Inten    --     30.7715                 0.0045                34.5763

                     64                     65                     66
                      A                      A                      A
 Frequencies --   1218.7729              1220.5732              1240.1401
 Red. masses --      1.1566                 2.8217                 2.7619
 Frc consts  --      1.0122                 2.4768                 2.5026
 IR Inten    --      1.1088                30.1068                 5.3093

                     67                     68                     69
                      A                      A                      A
 Frequencies --   1249.0855              1259.7908              1289.7244
 Red. masses --      1.6224                 2.8252                 1.3632
 Frc consts  --      1.4914                 2.6418                 1.3360
 IR Inten    --     25.1845                36.1636                 1.0743

                     70                     71                     72
                      A                      A                      A
 Frequencies --   1303.7209              1328.9273              1347.6125
 Red. masses --      2.1799                 2.6428                 1.8464
 Frc consts  --      2.1831                 2.7499                 1.9756
 IR Inten    --      3.8610                16.4333                 7.3480

                     73                     74                     75
                      A                      A                      A
 Frequencies --   1369.1432              1374.8359              1398.2565
 Red. masses --      2.2812                 1.5808                 5.2269
 Frc consts  --      2.5195                 1.7604                 6.0210
 IR Inten    --      0.5216                 4.4181                 8.8892

                     76                     77                     78
                      A                      A                      A
 Frequencies --   1411.2950              1422.9380              1441.8535
 Red. masses --      1.4362                 1.2785                 1.2378
 Frc consts  --      1.6853                 1.5252                 1.5161
 IR Inten    --      5.0306                 5.1035                11.9852

                     79                     80                     81
                      A                      A                      A
 Frequencies --   1442.7411              1461.1560              1476.8839
 Red. masses --      1.2431                 1.6499                 1.1692
 Frc consts  --      1.5246                 2.0754                 1.5025
 IR Inten    --      4.4294                 8.4299                 1.5456

                     82                     83                     84
                      A                      A                      A
 Frequencies --   1492.0551              1508.7500              1511.1861
 Red. masses --      1.2215                 1.9215                 1.0668
 Frc consts  --      1.6022                 2.5771                 1.4354
 IR Inten    --      7.4827                 9.9863                 0.4842

                     85                     86                     87
                      A                      A                      A
 Frequencies --   1513.7650              1520.6295              1523.3485
 Red. masses --      1.2495                 1.2138                 1.6314
 Frc consts  --      1.6869                 1.6536                 2.2305
 IR Inten    --      6.8166                 6.1075                24.9224

                     88                     89                     90
                      A                      A                      A
 Frequencies --   1527.0068              1529.2180              1534.7075
 Red. masses --      1.0542                 1.1066                 1.0884
 Frc consts  --      1.4483                 1.5246                 1.5103
 IR Inten    --      1.2058                11.1176                 2.2357

                     91                     92                     93
                      A                      A                      A
 Frequencies --   1541.2859              1549.2414              1551.0170
 Red. masses --      1.0859                 1.6973                 1.3067
 Frc consts  --      1.5198                 2.4002                 1.8521
 IR Inten    --      8.5379                 4.7614                17.5514

                     94                     95                     96
                      A                      A                      A
 Frequencies --   1554.7619              1595.8030              1648.7397
 Red. masses --      1.0631                 4.5663                 5.3781
 Frc consts  --      1.5141                 6.8513                 8.6137
 IR Inten    --      1.2569                 9.1861                 1.1073

                     97                     98                     99
                      A                      A                      A
 Frequencies --   1668.3102              3001.9225              3049.8428
 Red. masses --      5.5451                 1.0541                 1.0433
 Frc consts  --      9.0930                 5.5965                 5.7177
 IR Inten    --      2.1622                71.7600                19.1824

                    100                    101                    102
                      A                      A                      A
 Frequencies --   3050.3515              3057.7217              3058.5621
 Red. masses --      1.0387                 1.0589                 1.0401
 Frc consts  --      5.6945                 5.8330                 5.7326
 IR Inten    --     23.4145                20.9157                32.0234

                    103                    104                    105
                      A                      A                      A
 Frequencies --   3088.1505              3090.9749              3115.5755
 Red. masses --      1.1006                 1.0815                 1.1006
 Frc consts  --      6.1839                 6.0878                 6.2945
 IR Inten    --     13.0954                40.5804                37.5284

                    106                    107                    108
                      A                      A                      A
 Frequencies --   3120.3130              3126.7490              3131.7951
 Red. masses --      1.0972                 1.0965                 1.1020
 Frc consts  --      6.2941                 6.3162                 6.3682
 IR Inten    --      3.1476                42.8217                35.4407

                    109                    110                    111
                      A                      A                      A
 Frequencies --   3138.3786              3138.6775              3144.8787
 Red. masses --      1.0981                 1.0902                 1.1013
 Frc consts  --      6.3725                 6.3280                 6.4177
 IR Inten    --     14.9979                10.1503                22.3394

                    112                    113                    114
                      A                      A                      A
 Frequencies --   3159.4069              3182.5406              3189.8118
 Red. masses --      1.1003                 1.0847                 1.0877
 Frc consts  --      6.4712                 6.4732                 6.5206
 IR Inten    --     26.8199                 2.3410                 5.1215

                    115                    116                    117
                      A                      A                      A
 Frequencies --   3199.5451              3209.5172              3216.4908
 Red. masses --      1.0918                 1.0950                 1.0952
 Frc consts  --      6.5854                 6.6457                 6.6759
 IR Inten    --     29.3913                24.4275                 8.8996

                    118                    119                    120
                      A                      A                      A
 Frequencies --   3262.3104              3277.7723              3479.8742
 Red. masses --      1.0954                 1.0961                 1.0738
 Frc consts  --      6.8687                 6.9384                 7.6611
 IR Inten    --     10.9506                 1.1813                 2.2326

 - Thermochemistry -
 -------------------
 Temperature   298.150 Kelvin.  Pressure   1.00000 Atm.
 Atom     1 has atomic number  6 and mass  12.00000

 Molecular mass:   257.18920 amu.
 Principal axes and moments of inertia in atomic units:
                           1         2         3
     Eigenvalues --  3184.890506582.060616860.00588
           X            0.99976  -0.02009  -0.00860
           Y            0.01857   0.98848  -0.15021
           Z            0.01152   0.15001   0.98862
 This molecule is an asymmetric top.
 Rotational symmetry number  1.
 Warning -- assumption of classical behavior for rotation
           may cause significant error
 Rotational temperatures (Kelvin)      0.02720     0.01316     0.01263
 Rotational constants (GHZ):           0.56666     0.27419     0.26308
 Zero-point vibrational energy     970460.2 (Joules/Mol)
                                  231.94556 (Kcal/Mol)
 Warning -- explicit consideration of  28 degrees of freedom as
           vibrations may cause significant error
 Vibrational temperatures:     34.11    75.15    78.51   115.37   126.58
          (Kelvin)            144.84   159.39   222.02   244.38   283.81
                              310.91   339.73   346.32   360.50   390.43
                              401.80   439.14   449.00   468.33   536.24
                              547.21   592.06   604.68   639.75   716.57
                              752.26   776.77   856.41   905.78   917.38
                              978.76  1008.17  1032.63  1062.67  1103.73
                             1119.08  1151.12  1193.87  1209.46  1235.76
                             1247.85  1283.88  1334.93  1337.09  1354.14
                             1358.56  1376.06  1406.29  1438.50  1473.31
                             1487.54  1513.35  1534.05  1578.80  1582.51
                             1606.61  1622.72  1640.35  1661.41  1682.27
                             1684.36  1719.21  1746.72  1753.54  1756.13
                             1784.28  1797.16  1812.56  1855.63  1875.76
                             1912.03  1938.91  1969.89  1978.08  2011.78
                             2030.54  2047.29  2074.51  2075.78  2102.28
                             2124.91  2146.73  2170.75  2174.26  2177.97
                             2187.85  2191.76  2197.02  2200.20  2208.10
                             2217.57  2229.01  2231.57  2236.96  2296.00
                             2372.17  2400.33  4319.10  4388.04  4388.78
                             4399.38  4400.59  4443.16  4447.22  4482.62
                             4489.43  4498.69  4505.95  4515.43  4515.86
                             4524.78  4545.68  4578.97  4589.43  4603.43
                             4617.78  4627.81  4693.74  4715.98  5006.76

 Zero-point correction=                           0.369629 (Hartree/Particle)
 Thermal correction to Energy=                    0.388426
 Thermal correction to Enthalpy=                  0.389370
 Thermal correction to Gibbs Free Energy=         0.322740
 Sum of electronic and zero-point Energies=           -787.519102
 Sum of electronic and thermal Energies=              -787.500305
 Sum of electronic and thermal Enthalpies=            -787.499361
 Sum of electronic and thermal Free Energies=         -787.565991

                     E (Thermal)             CV                S
                      KCal/Mol        Cal/Mol-Kelvin    Cal/Mol-Kelvin
 Total                  243.741             72.968            140.235
 Electronic               0.000              0.000              0.000
 Translational            0.889              2.981             42.534
 Rotational               0.889              2.981             33.330
 Vibrational            241.963             67.006             64.371
 Vibration     1          0.593              1.985              6.297
 Vibration     2          0.596              1.977              4.731
 Vibration     3          0.596              1.976              4.645
 Vibration     4          0.600              1.963              3.886
 Vibration     5          0.601              1.958              3.705
 Vibration     6          0.604              1.949              3.441
 Vibration     7          0.607              1.941              3.255
 Vibration     8          0.620              1.898              2.618
 Vibration     9          0.625              1.880              2.437
 Vibration    10          0.637              1.844              2.159
 Vibration    11          0.645              1.817              1.992
 Vibration    12          0.655              1.785              1.832
 Vibration    13          0.658              1.778              1.798
 Vibration    14          0.663              1.762              1.727
 Vibration    15          0.675              1.726              1.588
 Vibration    16          0.680              1.712              1.538
 Vibration    17          0.696              1.664              1.388
 Vibration    18          0.700              1.651              1.351
 Vibration    19          0.710              1.624              1.282
 Vibration    20          0.744              1.528              1.069
 Vibration    21          0.750              1.512              1.038
 Vibration    22          0.775              1.445              0.921
 Vibration    23          0.783              1.426              0.891
 Vibration    24          0.804              1.373              0.812
 Vibration    25          0.854              1.254              0.663
 Vibration    26          0.878              1.199              0.603
 Vibration    27          0.895              1.162              0.566
 Vibration    28          0.953              1.042              0.458

                           ! Non-Optimized Parameters !
 Normal termination of Gaussian 16 at Sun Dec 13 20:56:04 2020.

 ----------------------------------------------------------------------
 # B3LYP/6-311++G(d,p) empiricaldispersion=gd3bj scf=xqc pop=npa geom=c
 heck
 ----------------------------------------------------------------------

 ---------------------------------------
 CID_114708228_JID_9256_Energie_neutraal
 ---------------------------------------
 Structure from the checkpoint file:  "JID_9256.chk"
 Charge =  0 Multiplicity = 1

 SCF Done:  E(RB3LYP) =  -788.098783086     A.U. after   15 cycles
 Normal termination of Gaussian 16 at Sun Dec 13 21:09:06 2020.

 ----------------------------------------------------------------------
 # B3LYP/6-311++G(d,p) empiricaldispersion=gd3bj scf=xqc pop=npa geom=c
 heck
 ----------------------------------------------------------------------

 -------------------------------------
 CID_114708228_JID_9256_Energie_kation
 -------------------------------------
 Structure from the checkpoint file:  "JID_9256.chk"
 Charge =  1 Multiplicity = 2

 SCF Done:  E(UB3LYP) =  -787.813071977     A.U. after   25 cycles
 Normal termination of Gaussian 16 at Sun Dec 13 21:40:10 2020.
 Gaussian 16:  ES64L-G16RevA.03 25-Dec-2016

 ----------------------------------------------------------------------
 # B3LYP/6-311++G(d,p) empiricaldispersion=gd3bj scf=xqc pop=npa geom=c
 heck
 ----------------------------------------------------------------------

 ------------------------------------
 CID_114708228_JID_9256_Energie_anion
 ------------------------------------
 Structure from the checkpoint file:  "JID_9256.chk"
 Charge = -1 Multiplicity = 2

                         Standard orientation:
 ---------------------------------------------------------------------
 Center     Atomic      Atomic             Coordinates (Angstroms)
 Number     Number       Type             X           Y           Z
 ---------------------------------------------------------------------
      1          6           0        1.456225   -2.430079    2.100348
      2          6           0        0.654595   -2.249448    0.810350
      3          6           0        0.464746   -0.770873    0.436568
      4          6           0        1.757918   -0.016346    0.165272
      5          6           0        2.827857   -0.579549   -0.540092
      6          6           0        3.984080    0.160001   -0.788990
      7          6           0        4.089550    1.473231   -0.329450
      8          6           0        3.033804    2.039572    0.385796
      9          6           0        1.879458    1.297343    0.631896
     10          7           0       -0.464767   -0.649093   -0.704708
     11          6           0       -0.182540   -1.013316   -1.993939
     12          7           0       -1.206517   -0.843255   -2.804148
     13          6           0       -2.206814   -0.341848   -2.003019
     14          6           0       -1.789053   -0.208362   -0.695895
     15          6           0       -2.537800    0.291958    0.518481
     16          6           0       -3.931600    0.791524    0.079314
     17          6           0       -2.746540   -0.831164    1.555567
     18          7           0       -1.739170    1.352374    1.184000
     19          6           0       -1.500418    2.557761    0.390660
     20          1           0        2.466384   -2.020403    2.001726
     21          1           0        1.542602   -3.489820    2.361818
     22          1           0        0.970071   -1.916099    2.938596
     23          1           0        1.136655   -2.785671   -0.015844
     24          1           0       -0.340548   -2.695880    0.918011
     25          1           0       -0.032536   -0.254615    1.257019
     26          1           0        2.768823   -1.604683   -0.894001
     27          1           0        4.804239   -0.292283   -1.339528
     28          1           0        4.990643    2.048325   -0.522719
     29          1           0        3.110291    3.058394    0.755653
     30          1           0        1.056553    1.729557    1.192571
     31          1           0        0.793583   -1.373851   -2.284114
     32          1           0       -3.177093   -0.099726   -2.413495
     33          1           0       -4.533165   -0.027973   -0.325809
     34          1           0       -4.460792    1.204203    0.945944
     35          1           0       -3.863352    1.568890   -0.685725
     36          1           0       -1.798977   -1.196449    1.956987
     37          1           0       -3.348146   -0.462779    2.396323
     38          1           0       -3.277930   -1.671654    1.100325
     39          1           0       -2.218480    1.606801    2.046711
     40          1           0       -2.410138    3.092904    0.075600
     41          1           0       -0.888498    3.249370    0.978847
     42          1           0       -0.937825    2.290823   -0.508105
 ---------------------------------------------------------------------

 SCF Done:  E(UB3LYP) =  -788.088290577     A.U. after   33 cycles
 SCF Done:  E(UB3LYP) =  -788.088290577     a.u. after    1 cycles

 The electronic state is 2-A.
 Alpha  occ. eigenvalues --  -14.27528 -14.21039 -14.19973 -10.13424 -10.13087
 Alpha  occ. eigenvalues --  -10.12561 -10.10856 -10.09905 -10.09311 -10.09254
 Alpha  occ. eigenvalues --  -10.09190 -10.09098 -10.09011 -10.08901 -10.08699
 Alpha  occ. eigenvalues --  -10.08698 -10.07598 -10.07389 -10.07254  -0.92378
 Alpha  occ. eigenvalues --   -0.82370  -0.80091  -0.77086  -0.71276  -0.69675
 Alpha  occ. eigenvalues --   -0.66646  -0.66313  -0.64048  -0.60671  -0.60360
 Alpha  occ. eigenvalues --   -0.57154  -0.53797  -0.52647  -0.52284  -0.50959
 Alpha  occ. eigenvalues --   -0.49055  -0.45784  -0.43554  -0.41572  -0.39906
 Alpha  occ. eigenvalues --   -0.38813  -0.37698  -0.37550  -0.36531  -0.36114
 Alpha  occ. eigenvalues --   -0.35178  -0.34594  -0.33978  -0.33599  -0.32576
 Alpha  occ. eigenvalues --   -0.31794  -0.30943  -0.30588  -0.29780  -0.28922
 Alpha  occ. eigenvalues --   -0.28764  -0.28183  -0.27835  -0.27078  -0.26783
 Alpha  occ. eigenvalues --   -0.26654  -0.25808  -0.25286  -0.25062  -0.18254
 Alpha  occ. eigenvalues --   -0.18004  -0.17258  -0.16693  -0.14325  -0.13445
 Alpha  occ. eigenvalues --    0.03826
 Alpha virt. eigenvalues --    0.05461   0.06047   0.06393   0.06787   0.06964
 Alpha virt. eigenvalues --    0.07538   0.07722   0.08403   0.09037   0.09378
 Alpha virt. eigenvalues --    0.09812   0.10022   0.10626   0.11011   0.11362

  Beta  occ. eigenvalues --  -14.27529 -14.21016 -14.19973 -10.13423 -10.13083
  Beta  occ. eigenvalues --  -10.12557 -10.10853 -10.09900 -10.09290 -10.09242
  Beta  occ. eigenvalues --  -10.09180 -10.09085 -10.08999 -10.08891 -10.08697
  Beta  occ. eigenvalues --  -10.08692 -10.07577 -10.07360 -10.07229  -0.92376
  Beta  occ. eigenvalues --   -0.82339  -0.80083  -0.77068  -0.71257  -0.69651
  Beta  occ. eigenvalues --   -0.66621  -0.66286  -0.64030  -0.60626  -0.60335
  Beta  occ. eigenvalues --   -0.57094  -0.53758  -0.52612  -0.52252  -0.50932
  Beta  occ. eigenvalues --   -0.49034  -0.45758  -0.43524  -0.41545  -0.39863
  Beta  occ. eigenvalues --   -0.38777  -0.37672  -0.37526  -0.36500  -0.36089
  Beta  occ. eigenvalues --   -0.35159  -0.34565  -0.33958  -0.33571  -0.32557
  Beta  occ. eigenvalues --   -0.31776  -0.30921  -0.30558  -0.29745  -0.28894
  Beta  occ. eigenvalues --   -0.28737  -0.28153  -0.27812  -0.27049  -0.26756
  Beta  occ. eigenvalues --   -0.26616  -0.25781  -0.25263  -0.25041  -0.18246
  Beta  occ. eigenvalues --   -0.17999  -0.17244  -0.16673  -0.14302  -0.13436
  Beta virt. eigenvalues --    0.05816   0.06410   0.06462   0.06642   0.06853
  Beta virt. eigenvalues --    0.07454   0.08029   0.08330   0.08596   0.09402
  Beta virt. eigenvalues --    0.09640   0.10107   0.10362   0.10695   0.11182

 Mulliken charges and spin densities:
               1          2
     1  C    0.026901  -0.767662
     2  C   -0.711358   0.899728
     3  C   -0.047322  -0.566534
     4  C    0.562819  -0.233946
     5  C   -0.646861   0.443557
     6  C    0.091085  -0.467110
     7  C    1.371504  -1.697233
     8  C   -0.429975   0.082627
     9  C   -0.495764   0.464476
    10  N    0.298526  -0.054633
    11  C    0.059086  -0.218680
    12  N   -0.040489  -0.023143
    13  C   -0.958338   0.983212
    14  C    1.090174  -1.335555
    15  C   -0.422083   0.587098
    16  C    0.257930  -0.849789
    17  C    0.094527  -0.698455
    18  N   -0.259938   0.166730
    19  C    0.096969  -0.554482
    20  H    0.146225   0.007392
    21  H   -0.203579   0.344440
    22  H   -0.154759   0.300336
    23  H   -0.081453   0.236594
    24  H    0.161790   0.010920
    25  H    0.529362  -0.176106
    26  H   -0.027549   0.175326
    27  H   -0.417555   0.601214
    28  H   -0.148388   0.300310
    29  H   -0.485879   0.676509
    30  H    0.277164  -0.118112
    31  H    0.187570  -0.034148
    32  H    0.027428   0.123300
    33  H    0.134711   0.005414
    34  H   -0.408567   0.579616
    35  H    0.156534  -0.008548
    36  H   -0.124123   0.251070
    37  H   -0.232882   0.394084
    38  H    0.005951   0.163892
    39  H   -0.131065   0.397372
    40  H   -0.095078   0.208259
    41  H   -0.318555   0.479135
    42  H    0.265303  -0.078474
 Sum of Mulliken charges =  -1.00000   1.00000

 Dipole moment (field-independent basis, Debye):
    X=             -0.0876    Y=             -2.1465    Z=             -1.9758  Tot=              2.9187
 Quadrupole moment (field-independent basis, Debye-Ang):
   XX=           -194.6162   YY=           -166.5690   ZZ=           -174.0379
   XY=              0.5234   XZ=              9.0158   YZ=             -6.0403

 Summary of Natural Population Analysis:

                                       Natural Population
                Natural  -----------------------------------------------
    Atom  No    Charge         Core      Valence    Rydberg      Total
 -----------------------------------------------------------------------
      C    1   -0.28676      0.99966     2.28294    0.00416     3.28676
      C    2   -0.19048      0.99962     2.18280    0.00806     3.19048
      C    3   -0.02228      0.99952     2.00848    0.01428     3.02228
      C    4   -0.01845      0.99948     2.00757    0.01139     3.01845
      C    5   -0.10315      0.99951     2.09435    0.00929     3.10315
      C    6   -0.09850      0.99956     2.08863    0.01031     3.09850
      C    7   -0.10074      0.99956     2.09174    0.00944     3.10074
      C    8   -0.09635      0.99956     2.08670    0.01009     3.09635
      C    9   -0.09433      0.99951     2.08517    0.00966     3.09433
      N   10   -0.20411      0.99961     2.69330    0.01120     3.70411
      C   11    0.10433      0.99963     1.88068    0.01536     2.89567
      N   12   -0.25644      0.99973     2.74599    0.01071     3.75644
      C   13   -0.03472      0.99950     2.02273    0.01249     3.03472
      C   14    0.06136      0.99946     1.92469    0.01449     2.93864
      C   15    0.04341      0.99954     1.94304    0.01401     2.95659
      C   16   -0.29143      0.99963     2.28493    0.00686     3.29143
      C   17   -0.28074      0.99961     2.27383    0.00730     3.28074
      N   18   -0.34860      0.99973     2.83410    0.01477     3.84860
      C   19   -0.18276      0.99964     2.17433    0.00879     3.18276
      H   20    0.10215      0.00000     0.39675    0.00109     0.39785
      H   21    0.10008      0.00000     0.39904    0.00088     0.39992
      H   22    0.09896      0.00000     0.39986    0.00118     0.40104
      H   23    0.09577      0.00000     0.40284    0.00139     0.40423
      H   24    0.10225      0.00000     0.39659    0.00116     0.39775
      H   25    0.12371      0.00000     0.37255    0.00374     0.37629
      H   26    0.10050      0.00000     0.39776    0.00174     0.39950
      H   27    0.10191      0.00000     0.39699    0.00110     0.39809
      H   28    0.10193      0.00000     0.39700    0.00106     0.39807
      H   29    0.10308      0.00000     0.39581    0.00111     0.39692
      H   30    0.10931      0.00000     0.38849    0.00220     0.39069
      H   31    0.09421      0.00000     0.40396    0.00183     0.40579
      H   32    0.09723      0.00000     0.40145    0.00133     0.40277
      H   33    0.10227      0.00000     0.39688    0.00085     0.39773
      H   34    0.10406      0.00000     0.39480    0.00114     0.39594
      H   35    0.10272      0.00000     0.39635    0.00094     0.39728
      H   36    0.10165      0.00000     0.39687    0.00149     0.39835
      H   37    0.10228      0.00000     0.39636    0.00136     0.39772
      H   38    0.10237      0.00000     0.39669    0.00094     0.39763
      H   39    0.17743      0.00000     0.31773    0.00484     0.32257
      H   40    0.08248      0.00000     0.41622    0.00130     0.41752
      H   41    0.09694      0.00000     0.40195    0.00111     0.40306
      H   42    0.09745      0.00000     0.40128    0.00127     0.40255
 =======================================================================
   * Total *   -0.00000     18.99207    50.77022    0.23771    70.00000

 Normal termination of Gaussian 16 at Sun Dec 13 22:19:38 2020.
