 Gaussian 16, Revision A.03,

 -----------------------------------------------------------
 # opt freq B3LYP/6-31G(d) empiricaldispersion=gd3bj scf=xqc
 -----------------------------------------------------------

 -------------------------------
 CID_118480791_JID_2603_neutraal
 -------------------------------
 Symbolic Z-matrix:
 Charge =  0 Multiplicity = 1

 SCF Done:  E(RB3LYP) =  -484.184647476     A.U. after   15 cycles
 SCF Done:  E(RB3LYP) =  -484.186325019     A.U. after   12 cycles
 SCF Done:  E(RB3LYP) =  -484.186572074     A.U. after   12 cycles
 SCF Done:  E(RB3LYP) =  -484.186816036     A.U. after   11 cycles
 SCF Done:  E(RB3LYP) =  -484.186874143     A.U. after   10 cycles
 SCF Done:  E(RB3LYP) =  -484.186878185     A.U. after   10 cycles
 SCF Done:  E(RB3LYP) =  -484.186888342     A.U. after   10 cycles
 SCF Done:  E(RB3LYP) =  -484.186889042     A.U. after    8 cycles
 SCF Done:  E(RB3LYP) =  -484.186889293     A.U. after    8 cycles
 SCF Done:  E(RB3LYP) =  -484.186889644     A.U. after    8 cycles
 SCF Done:  E(RB3LYP) =  -484.185986267     A.U. after   14 cycles
 SCF Done:  E(RB3LYP) =  -484.187077662     A.U. after   11 cycles
 SCF Done:  E(RB3LYP) =  -484.187088898     A.U. after    9 cycles
 SCF Done:  E(RB3LYP) =  -484.187089078     A.U. after    8 cycles
 SCF Done:  E(RB3LYP) =  -484.187089057     A.U. after    8 cycles
 Optimization completed.
    -- Stationary point found.
 Normal termination of Gaussian 16 at Wed Dec  9 17:47:24 2020.

 --------------------------------------------------------------------
 #N Geom=AllCheck Guess=TCheck SCRF=Check GenChk RB3LYP/6-31G(d) Freq
 --------------------------------------------------------------------

 Structure from the checkpoint file:  "JID_2603.chk"
 -------------------------------
 CID_118480791_JID_2603_neutraal
 -------------------------------
 Charge =  0 Multiplicity = 1

 SCF Done:  E(RB3LYP) =  -484.187089057     A.U. after    1 cycles

  Exact polarizability: 136.918   1.394 103.486   2.365  -3.475 100.924
 Approx polarizability: 178.148   4.933 153.668   1.823 -11.561 155.739

                      1                      2                      3
                      A                      A                      A
 Frequencies --     29.1968                50.5507                95.3715
 Red. masses --      5.9173                 3.7873                 4.7554
 Frc consts  --      0.0030                 0.0057                 0.0255
 IR Inten    --      5.3329                 0.6036                 3.0288

                      4                      5                      6
                      A                      A                      A
 Frequencies --    134.9049               177.4512               224.8365
 Red. masses --      2.8301                 2.8202                 2.9095
 Frc consts  --      0.0303                 0.0523                 0.0867
 IR Inten    --      0.8268                 1.7015                 1.0927

                      7                      8                      9
                      A                      A                      A
 Frequencies --    253.8127               278.4489               287.0681
 Red. masses --      1.3775                 2.1269                 2.0704
 Frc consts  --      0.0523                 0.0972                 0.1005
 IR Inten    --      1.3785                 0.3929                 1.0293

                     10                     11                     12
                      A                      A                      A
 Frequencies --    309.6430               345.8258               369.7425
 Red. masses --      2.3632                 1.8947                 3.1459
 Frc consts  --      0.1335                 0.1335                 0.2534
 IR Inten    --      0.9568                 0.8710                 0.7929

                     13                     14                     15
                      A                      A                      A
 Frequencies --    403.7003               429.0819               451.2439
 Red. masses --      2.2805                 3.1031                 3.7877
 Frc consts  --      0.2190                 0.3366                 0.4544
 IR Inten    --      0.1182                 0.3999                 1.4225

                     16                     17                     18
                      A                      A                      A
 Frequencies --    495.3553               588.8588               620.2956
 Red. masses --      1.8670                 3.0476                 3.3415
 Frc consts  --      0.2699                 0.6226                 0.7575
 IR Inten    --      1.6556                 2.1470                 3.0959

                     19                     20                     21
                      A                      A                      A
 Frequencies --    643.6662               744.4882               793.0569
 Red. masses --      2.6115                 2.6873                 1.5276
 Frc consts  --      0.6375                 0.8776                 0.5661
 IR Inten    --      1.6242                 0.6880                 0.0482

                     22                     23                     24
                      A                      A                      A
 Frequencies --    821.4683               833.5857               875.9239
 Red. masses --      2.1502                 1.9404                 1.6284
 Frc consts  --      0.8549                 0.7944                 0.7361
 IR Inten    --      2.5935                 5.5183                 2.7493

                     25                     26                     27
                      A                      A                      A
 Frequencies --    879.0162               888.2718               930.8496
 Red. masses --      2.1714                 2.0611                 3.3223
 Frc consts  --      0.9885                 0.9581                 1.6961
 IR Inten    --      2.5675                 1.9445                 7.7238

                     28                     29                     30
                      A                      A                      A
 Frequencies --    952.5464               956.9181              1023.6158
 Red. masses --      1.3646                 2.2076                 1.7411
 Frc consts  --      0.7295                 1.1910                 1.0749
 IR Inten    --      4.8877                 1.9307                 5.2226

                     31                     32                     33
                      A                      A                      A
 Frequencies --   1041.8860              1053.6418              1060.6085
 Red. masses --      2.3921                 1.8105                 1.8365
 Frc consts  --      1.5299                 1.1842                 1.2172
 IR Inten    --      2.3496                 0.2573                 0.0236

                     34                     35                     36
                      A                      A                      A
 Frequencies --   1078.6395              1088.7475              1116.1922
 Red. masses --      1.5885                 2.2846                 1.9995
 Frc consts  --      1.0889                 1.5956                 1.4677
 IR Inten    --      1.7461                 1.8338                 0.2625

                     37                     38                     39
                      A                      A                      A
 Frequencies --   1141.8615              1152.0398              1171.1826
 Red. masses --      1.6443                 1.1287                 1.4375
 Frc consts  --      1.2631                 0.8826                 1.1617
 IR Inten    --      3.7480                 0.4906                 2.0521

                     40                     41                     42
                      A                      A                      A
 Frequencies --   1212.2924              1265.6546              1297.2900
 Red. masses --      1.8273                 1.3008                 1.3288
 Frc consts  --      1.5822                 1.2277                 1.3176
 IR Inten    --      1.6096                 1.7573                 1.1103

                     43                     44                     45
                      A                      A                      A
 Frequencies --   1307.8125              1323.9294              1339.9075
 Red. masses --      1.2672                 1.2869                 1.3947
 Frc consts  --      1.2770                 1.3290                 1.4753
 IR Inten    --      0.7516                 4.6383                 2.1449

                     46                     47                     48
                      A                      A                      A
 Frequencies --   1344.6499              1371.8364              1381.0725
 Red. masses --      1.3900                 1.3156                 1.2814
 Frc consts  --      1.4807                 1.4587                 1.4400
 IR Inten    --      2.1414                 0.4735                 4.4619

                     49                     50                     51
                      A                      A                      A
 Frequencies --   1391.7818              1400.4357              1407.7596
 Red. masses --      1.5373                 1.4059                 1.4444
 Frc consts  --      1.7545                 1.6245                 1.6865
 IR Inten    --      5.2793                 0.4923                 3.4544

                     52                     53                     54
                      A                      A                      A
 Frequencies --   1410.4663              1433.4123              1447.1488
 Red. masses --      1.4223                 1.4146                 1.2446
 Frc consts  --      1.6672                 1.7125                 1.5357
 IR Inten    --      0.7292                 0.6488                 7.6122

                     55                     56                     57
                      A                      A                      A
 Frequencies --   1501.6120              1506.5351              1510.1707
 Red. masses --      1.0786                 1.0640                 1.0806
 Frc consts  --      1.4329                 1.4229                 1.4520
 IR Inten    --      9.6520                 0.6381                 2.4568

                     58                     59                     60
                      A                      A                      A
 Frequencies --   1515.4048              1516.0462              1528.0839
 Red. masses --      1.0861                 1.0830                 1.0754
 Frc consts  --      1.4695                 1.4666                 1.4795
 IR Inten    --      5.1704                 5.1108                12.5041

                     61                     62                     63
                      A                      A                      A
 Frequencies --   1531.1348              1542.5359              1728.3701
 Red. masses --      1.0803                 1.0902                 6.6071
 Frc consts  --      1.4922                 1.5283                11.6287
 IR Inten    --     10.5606                 3.1818                 5.9198

                     64                     65                     66
                      A                      A                      A
 Frequencies --   2365.4868              3023.1806              3025.4780
 Red. masses --     12.5801                 1.0661                 1.0668
 Frc consts  --     41.4740                 5.7410                 5.7536
 IR Inten    --      9.8714                13.7752                27.8348

                     67                     68                     69
                      A                      A                      A
 Frequencies --   3033.7702              3039.3357              3049.3086
 Red. masses --      1.0669                 1.0608                 1.0400
 Frc consts  --      5.7853                 5.7737                 5.6974
 IR Inten    --     15.3544                15.5499                15.8641

                     70                     71                     72
                      A                      A                      A
 Frequencies --   3054.2809              3060.2900              3067.8974
 Red. masses --      1.0654                 1.0748                 1.0663
 Frc consts  --      5.8557                 5.9307                 5.9130
 IR Inten    --     45.3040                23.5735                18.9337

                     73                     74                     75
                      A                      A                      A
 Frequencies --   3073.9561              3075.1849              3077.7353
 Red. masses --      1.0956                 1.0944                 1.0985
 Frc consts  --      6.0994                 6.0977                 6.1305
 IR Inten    --     69.0124                55.7729                14.4070

                     76                     77                     78
                      A                      A                      A
 Frequencies --   3081.5661              3101.4659              3101.8775
 Red. masses --      1.1044                 1.0988                 1.1021
 Frc consts  --      6.1788                 6.2275                 6.2477
 IR Inten    --     42.8526                55.9291                11.7231

                     79                     80                     81
                      A                      A                      A
 Frequencies --   3105.6002              3127.8352              3178.1642
 Red. masses --      1.0988                 1.1016                 1.0898
 Frc consts  --      6.2440                 6.3497                 6.4857
 IR Inten    --     38.6292                19.7388                20.8193

 - Thermochemistry -
 -------------------
 Temperature   298.150 Kelvin.  Pressure   1.00000 Atm.
 Atom     1 has atomic number  6 and mass  12.00000

 Molecular mass:   163.13610 amu.
 Principal axes and moments of inertia in atomic units:
                           1         2         3
     Eigenvalues --  1115.345253413.805873516.32142
           X            0.99978  -0.01585   0.01349
           Y            0.01385   0.99044   0.13728
           Z           -0.01554  -0.13706   0.99044
 This molecule is an asymmetric top.
 Rotational symmetry number  1.
 Warning -- assumption of classical behavior for rotation
           may cause significant error
 Rotational temperatures (Kelvin)      0.07766     0.02537     0.02463
 Rotational constants (GHZ):           1.61810     0.52866     0.51325
 Zero-point vibrational energy     685767.4 (Joules/Mol)
                                  163.90233 (Kcal/Mol)
 Warning -- explicit consideration of  18 degrees of freedom as
           vibrations may cause significant error
 Vibrational temperatures:     42.01    72.73   137.22   194.10   255.31
          (Kelvin)            323.49   365.18   400.63   413.03   445.51
                              497.57   531.98   580.83   617.35   649.24
                              712.71   847.24   892.47   926.09  1071.15
                             1141.03  1181.91  1199.34  1260.26  1264.71
                             1278.02  1339.28  1370.50  1376.79  1472.75
                             1499.04  1515.96  1525.98  1551.92  1566.46
                             1605.95  1642.88  1657.53  1685.07  1744.22
                             1820.99  1866.51  1881.65  1904.84  1927.83
                             1934.65  1973.77  1987.06  2002.46  2014.91
                             2025.45  2029.35  2062.36  2082.12  2160.48
                             2167.57  2172.80  2180.33  2181.25  2198.57
                             2202.96  2219.37  2486.74  3403.41  4349.68
                             4352.99  4364.92  4372.93  4387.27  4394.43
                             4403.07  4414.02  4422.74  4424.51  4428.17
                             4433.69  4462.32  4462.91  4468.27  4500.26
                             4572.67

 Zero-point correction=                           0.261195 (Hartree/Particle)
 Thermal correction to Energy=                    0.273350
 Thermal correction to Enthalpy=                  0.274294
 Thermal correction to Gibbs Free Energy=         0.222431
 Sum of electronic and zero-point Energies=           -483.925894
 Sum of electronic and thermal Energies=              -483.913739
 Sum of electronic and thermal Enthalpies=            -483.912795
 Sum of electronic and thermal Free Energies=         -483.964658

                     E (Thermal)             CV                S
                      KCal/Mol        Cal/Mol-Kelvin    Cal/Mol-Kelvin
 Total                  171.530             46.771            109.155
 Electronic               0.000              0.000              0.000
 Translational            0.889              2.981             41.177
 Rotational               0.889              2.981             30.971
 Vibrational            169.752             40.809             37.007
 Vibration     1          0.593              1.984              5.883
 Vibration     2          0.595              1.977              4.796
 Vibration     3          0.603              1.952              3.547
 Vibration     4          0.613              1.918              2.875
 Vibration     5          0.628              1.870              2.355
 Vibration     6          0.649              1.803              1.920
 Vibration     7          0.665              1.756              1.704
 Vibration     8          0.679              1.713              1.543
 Vibration     9          0.684              1.698              1.491
 Vibration    10          0.699              1.655              1.364
 Vibration    11          0.724              1.584              1.185
 Vibration    12          0.742              1.534              1.081
 Vibration    13          0.769              1.462              0.949
 Vibration    14          0.790              1.407              0.862
 Vibration    15          0.810              1.358              0.792
 Vibration    16          0.851              1.260              0.670
 Vibration    17          0.946              1.056              0.469
 Vibration    18          0.980              0.989              0.416

 Optimization completed.
    -- Stationary point found.
 Normal termination of Gaussian 16 at Wed Dec  9 17:55:29 2020.

 ----------------------------------------------------------------------
 # B3LYP/6-311++G(d,p) empiricaldispersion=gd3bj scf=xqc pop=npa geom=c
 heck
 ----------------------------------------------------------------------

 ---------------------------------------
 CID_118480791_JID_2603_Energie_neutraal
 ---------------------------------------
 Structure from the checkpoint file:  "JID_2603.chk"
 Charge =  0 Multiplicity = 1

 SCF Done:  E(RB3LYP) =  -484.318288817     A.U. after   14 cycles
 Normal termination of Gaussian 16 at Wed Dec  9 17:59:16 2020.

 ----------------------------------------------------------------------
 # B3LYP/6-311++G(d,p) empiricaldispersion=gd3bj scf=xqc pop=npa geom=c
 heck
 ----------------------------------------------------------------------

 -------------------------------------
 CID_118480791_JID_2603_Energie_kation
 -------------------------------------
 Structure from the checkpoint file:  "JID_2603.chk"
 Charge =  1 Multiplicity = 2

 SCF Done:  E(UB3LYP) =  -483.990366738     A.U. after   20 cycles
 Normal termination of Gaussian 16 at Wed Dec  9 18:06:49 2020.
 Gaussian 16:  ES64L-G16RevA.03 25-Dec-2016

 ----------------------------------------------------------------------
 # B3LYP/6-311++G(d,p) empiricaldispersion=gd3bj scf=xqc pop=npa geom=c
 heck
 ----------------------------------------------------------------------

 ------------------------------------
 CID_118480791_JID_2603_Energie_anion
 ------------------------------------
 Structure from the checkpoint file:  "JID_2603.chk"
 Charge = -1 Multiplicity = 2

                         Standard orientation:
 ---------------------------------------------------------------------
 Center     Atomic      Atomic             Coordinates (Angstroms)
 Number     Number       Type             X           Y           Z
 ---------------------------------------------------------------------
      1          6           0        0.283994    2.222456    0.393120
      2          6           0       -0.480811    0.987497   -0.013629
      3          6           0       -1.715821    1.131040   -0.516411
      4          6           0       -2.624822   -0.001264   -0.964366
      5          6           0       -3.301708   -0.655936    0.164553
      6          7           0       -3.812356   -1.169483    1.071899
      7          6           0        0.138642   -0.398034    0.152139
      8          6           0        0.838531   -0.889729   -1.142608
      9          6           0        2.237096   -0.295942   -1.347386
     10          6           0        3.135702   -0.591898   -0.140383
     11          6           0        2.519531   -0.050955    1.156016
     12          6           0        1.085257   -0.564177    1.365498
     13          1           0       -0.320254    3.122207    0.243529
     14          1           0        1.208946    2.338201   -0.182968
     15          1           0        0.572707    2.183194    1.449898
     16          1           0       -2.142351    2.127312   -0.604841
     17          1           0       -3.392298    0.382692   -1.645648
     18          1           0       -2.074790   -0.769544   -1.519312
     19          1           0       -0.695476   -1.083815    0.336593
     20          1           0        0.934241   -1.983131   -1.078841
     21          1           0        0.204251   -0.677582   -2.011527
     22          1           0        2.166448    0.789264   -1.500584
     23          1           0        2.680877   -0.708591   -2.261815
     24          1           0        4.135155   -0.165981   -0.291206
     25          1           0        3.266970   -1.680611   -0.054664
     26          1           0        2.537465    1.043825    1.129817
     27          1           0        3.132932   -0.345943    2.016469
     28          1           0        0.637343   -0.103103    2.253928
     29          1           0        1.140781   -1.640361    1.578619
 ---------------------------------------------------------------------

 SCF Done:  E(UB3LYP) =  -484.306649359     A.U. after   33 cycles
 SCF Done:  E(UB3LYP) =  -484.306649359     a.u. after    1 cycles

 The electronic state is 2-A.
 Alpha  occ. eigenvalues --  -14.21129 -10.11707 -10.11364 -10.08805 -10.08065
 Alpha  occ. eigenvalues --  -10.07629 -10.07096 -10.07045 -10.06763 -10.06663
 Alpha  occ. eigenvalues --  -10.06567 -10.06483  -0.80929  -0.75035  -0.71566
 Alpha  occ. eigenvalues --   -0.67118  -0.64566  -0.63728  -0.57458  -0.52072
 Alpha  occ. eigenvalues --   -0.51376  -0.46877  -0.42534  -0.40377  -0.39567
 Alpha  occ. eigenvalues --   -0.37362  -0.36292  -0.35001  -0.34642  -0.31575
 Alpha  occ. eigenvalues --   -0.31177  -0.30424  -0.28808  -0.28444  -0.28163
 Alpha  occ. eigenvalues --   -0.27263  -0.26920  -0.24810  -0.24595  -0.23089
 Alpha  occ. eigenvalues --   -0.22697  -0.21201  -0.21035  -0.20379  -0.15090
 Alpha  occ. eigenvalues --    0.04215
 Alpha virt. eigenvalues --    0.06199   0.06880   0.07599   0.08246   0.08821
 Alpha virt. eigenvalues --    0.08980   0.10052   0.10452   0.10830   0.11126
 Alpha virt. eigenvalues --    0.11848   0.12131   0.12646   0.13157   0.13496

  Beta  occ. eigenvalues --  -14.21113 -10.11665 -10.11363 -10.08802 -10.08059
  Beta  occ. eigenvalues --  -10.07608 -10.07072 -10.07035 -10.06736 -10.06648
  Beta  occ. eigenvalues --  -10.06548 -10.06463  -0.80898  -0.75006  -0.71525
  Beta  occ. eigenvalues --   -0.67064  -0.64526  -0.63692  -0.57398  -0.52020
  Beta  occ. eigenvalues --   -0.51320  -0.46816  -0.42487  -0.40317  -0.39503
  Beta  occ. eigenvalues --   -0.37313  -0.36235  -0.34969  -0.34613  -0.31547
  Beta  occ. eigenvalues --   -0.31129  -0.30394  -0.28771  -0.28410  -0.28123
  Beta  occ. eigenvalues --   -0.27228  -0.26894  -0.24774  -0.24556  -0.23059
  Beta  occ. eigenvalues --   -0.22647  -0.21165  -0.20996  -0.20341  -0.15048
  Beta virt. eigenvalues --    0.06420   0.07362   0.07465   0.08136   0.08867
  Beta virt. eigenvalues --    0.09203   0.09472   0.10433   0.10778   0.11120
  Beta virt. eigenvalues --    0.11582   0.12289   0.12435   0.12824   0.13389

 Mulliken charges and spin densities:
               1          2
     1  C    2.295815  -3.032716
     2  C   -0.044509   0.202875
     3  C   -0.826966   0.615077
     4  C    0.707129  -0.650517
     5  C    1.389130  -1.538456
     6  N   -0.406596   0.069279
     7  C   -1.972769   2.665861
     8  C    0.019433  -0.602707
     9  C    0.091811  -0.383595
    10  C    0.566728  -1.118224
    11  C   -0.318802   0.175420
    12  C    0.297748  -1.008891
    13  H   -0.023038   0.166139
    14  H    0.072170   0.086983
    15  H   -0.121394   0.298011
    16  H   -0.825583   1.024009
    17  H   -0.727886   0.957869
    18  H   -0.200385   0.377642
    19  H    0.260886  -0.027047
    20  H   -0.252418   0.400824
    21  H   -0.202770   0.337675
    22  H    0.049469   0.068664
    23  H   -0.374098   0.557427
    24  H   -0.381516   0.552414
    25  H    0.124471  -0.002066
    26  H    0.004011   0.104229
    27  H   -0.186112   0.360824
    28  H    0.098664   0.069074
    29  H   -0.112623   0.273924
 Sum of Mulliken charges =  -1.00000   1.00000

 Dipole moment (field-independent basis, Debye):
    X=              2.6735    Y=              0.0313    Z=              1.7185  Tot=              3.1783
 Quadrupole moment (field-independent basis, Debye-Ang):
   XX=           -155.0524   YY=           -113.2686   ZZ=           -117.5506
   XY=              1.5967   XZ=              1.1460   YZ=              1.6582

 Summary of Natural Population Analysis:

                                       Natural Population
                Natural  -----------------------------------------------
    Atom  No    Charge         Core      Valence    Rydberg      Total
 -----------------------------------------------------------------------
      C    1   -0.29675      0.99962     2.29120    0.00594     3.29675
      C    2    0.01486      0.99945     1.97338    0.01230     2.98514
      C    3   -0.09863      0.99943     2.08787    0.01134     3.09863
      C    4   -0.26302      0.99953     2.25325    0.01024     3.26302
      C    5    0.16755      0.99965     1.81653    0.01627     2.83245
      N    6   -0.19233      0.99979     2.68105    0.01150     3.69233
      C    7   -0.12698      0.99954     2.11568    0.01176     3.12698
      C    8   -0.18394      0.99961     2.17464    0.00969     3.18394
      C    9   -0.19089      0.99962     2.18285    0.00842     3.19089
      C   10   -0.18827      0.99963     2.18053    0.00811     3.18827
      C   11   -0.19249      0.99962     2.18466    0.00820     3.19249
      C   12   -0.18590      0.99962     2.17861    0.00767     3.18590
      H   13    0.10321      0.00000     0.39574    0.00105     0.39679
      H   14    0.10291      0.00000     0.39557    0.00152     0.39709
      H   15    0.10368      0.00000     0.39520    0.00111     0.39632
      H   16    0.09793      0.00000     0.40053    0.00154     0.40207
      H   17    0.12747      0.00000     0.36909    0.00344     0.37253
      H   18    0.12493      0.00000     0.37289    0.00218     0.37507
      H   19    0.10557      0.00000     0.39204    0.00239     0.39443
      H   20    0.09551      0.00000     0.40312    0.00137     0.40449
      H   21    0.10191      0.00000     0.39650    0.00159     0.39809
      H   22    0.09262      0.00000     0.40580    0.00157     0.40738
      H   23    0.10022      0.00000     0.39849    0.00129     0.39978
      H   24    0.09866      0.00000     0.40013    0.00122     0.40134
      H   25    0.09149      0.00000     0.40716    0.00136     0.40851
      H   26    0.09434      0.00000     0.40404    0.00163     0.40566
      H   27    0.09792      0.00000     0.40101    0.00107     0.40208
      H   28    0.10055      0.00000     0.39836    0.00109     0.39945
      H   29    0.09790      0.00000     0.40091    0.00119     0.40210
 =======================================================================
   * Total *    0.00000     11.99510    32.85685    0.14805    45.00000

 Normal termination of Gaussian 16 at Wed Dec  9 18:19:22 2020.
