 Gaussian 16, Revision A.03,

 -----------------------------------------------------------
 # opt freq B3LYP/6-31G(d) empiricaldispersion=gd3bj scf=xqc
 -----------------------------------------------------------

 ------------------------------
 CID_78988761_JID_5881_neutraal
 ------------------------------
 Symbolic Z-matrix:
 Charge =  0 Multiplicity = 1

 SCF Done:  E(RB3LYP) =  -1096.93415534     A.U. after   14 cycles
 SCF Done:  E(RB3LYP) =  -1096.94193805     A.U. after   13 cycles
 SCF Done:  E(RB3LYP) =  -1096.94385207     A.U. after   12 cycles
 SCF Done:  E(RB3LYP) =  -1096.94457046     A.U. after   13 cycles
 SCF Done:  E(RB3LYP) =  -1096.94584182     A.U. after   13 cycles
 SCF Done:  E(RB3LYP) =  -1096.94616558     A.U. after   11 cycles
 SCF Done:  E(RB3LYP) =  -1096.94632532     A.U. after   12 cycles
 SCF Done:  E(RB3LYP) =  -1096.94637718     A.U. after   11 cycles
 SCF Done:  E(RB3LYP) =  -1096.94640077     A.U. after   11 cycles
 SCF Done:  E(RB3LYP) =  -1096.94643338     A.U. after   11 cycles
 SCF Done:  E(RB3LYP) =  -1096.94645852     A.U. after    9 cycles
 SCF Done:  E(RB3LYP) =  -1096.94645980     A.U. after    9 cycles
 SCF Done:  E(RB3LYP) =  -1096.94646061     A.U. after    9 cycles
 SCF Done:  E(RB3LYP) =  -1096.94646075     A.U. after    7 cycles
 SCF Done:  E(RB3LYP) =  -1096.94646076     A.U. after    7 cycles
 Optimization completed.
    -- Stationary point found.
 Normal termination of Gaussian 16 at Thu Dec 10 17:33:08 2020.

 --------------------------------------------------------------------
 #N Geom=AllCheck Guess=TCheck SCRF=Check GenChk RB3LYP/6-31G(d) Freq
 --------------------------------------------------------------------

 Structure from the checkpoint file:  "JID_5881.chk"
 ------------------------------
 CID_78988761_JID_5881_neutraal
 ------------------------------
 Charge =  0 Multiplicity = 1

 SCF Done:  E(RB3LYP) =  -1096.94646076     A.U. after    1 cycles

  Exact polarizability: 158.215  23.381 126.280  19.704  -6.838 104.039
 Approx polarizability: 209.056  49.218 212.458  36.218 -14.477 179.346

                      1                      2                      3
                      A                      A                      A
 Frequencies --     12.5972                22.4101                60.3914
 Red. masses --      5.6643                 6.5531                 4.6561
 Frc consts  --      0.0005                 0.0019                 0.0100
 IR Inten    --      2.4693                 2.4711                 0.9560

                      4                      5                      6
                      A                      A                      A
 Frequencies --     73.9338                93.1126               129.6135
 Red. masses --      4.8179                 3.8349                 4.1860
 Frc consts  --      0.0155                 0.0196                 0.0414
 IR Inten    --      5.6095                 7.4111                 4.8580

                      7                      8                      9
                      A                      A                      A
 Frequencies --    188.0474               226.1964               227.7642
 Red. masses --      3.5094                 1.4380                 2.0933
 Frc consts  --      0.0731                 0.0433                 0.0640
 IR Inten    --      4.0046                 1.8794                 2.9258

                     10                     11                     12
                      A                      A                      A
 Frequencies --    257.6137               275.9350               297.4105
 Red. masses --      4.7315                 3.9807                 3.8879
 Frc consts  --      0.1850                 0.1786                 0.2026
 IR Inten    --      4.4534                 5.1576                 0.7853

                     13                     14                     15
                      A                      A                      A
 Frequencies --    315.7367               362.4889               387.7421
 Red. masses --      2.9123                 2.6615                 1.2519
 Frc consts  --      0.1711                 0.2060                 0.1109
 IR Inten    --      1.6428                 9.3811                97.9223

                     16                     17                     18
                      A                      A                      A
 Frequencies --    420.8928               445.5741               463.6029
 Red. masses --      2.4317                 3.4351                 4.2813
 Frc consts  --      0.2538                 0.4018                 0.5421
 IR Inten    --     28.4131                41.8546                27.1147

                     19                     20                     21
                      A                      A                      A
 Frequencies --    466.1712               494.2287               509.0105
 Red. masses --      1.8439                 2.4346                 3.8877
 Frc consts  --      0.2361                 0.3504                 0.5935
 IR Inten    --    120.2068                41.5594                50.7573

                     22                     23                     24
                      A                      A                      A
 Frequencies --    528.5115               558.0463               586.5402
 Red. masses --      4.1090                 4.2963                 5.2543
 Frc consts  --      0.6762                 0.7883                 1.0650
 IR Inten    --     18.5270                66.5379                13.0894

                     25                     26                     27
                      A                      A                      A
 Frequencies --    607.6817               699.6471               722.1129
 Red. masses --      2.4094                 4.5215                 3.9391
 Frc consts  --      0.5242                 1.3040                 1.2102
 IR Inten    --     79.5737                 2.8577                12.1247

                     28                     29                     30
                      A                      A                      A
 Frequencies --    730.8511               783.8180               812.7382
 Red. masses --      4.3870                 3.3456                 2.0051
 Frc consts  --      1.3806                 1.2110                 0.7804
 IR Inten    --     11.6225                15.2514                55.2379

                     31                     32                     33
                      A                      A                      A
 Frequencies --    842.9611               851.4659               878.9104
 Red. masses --      1.5200                 2.0072                 2.2926
 Frc consts  --      0.6364                 0.8574                 1.0434
 IR Inten    --    132.2383                85.5934                27.4343

                     34                     35                     36
                      A                      A                      A
 Frequencies --    893.8164               987.2391               997.0936
 Red. masses --      1.4245                 2.9586                 1.3900
 Frc consts  --      0.6705                 1.6989                 0.8142
 IR Inten    --     15.1783                38.5756                 1.6038

                     37                     38                     39
                      A                      A                      A
 Frequencies --   1001.2412              1010.3417              1020.8956
 Red. masses --      1.4297                 2.5980                 3.7051
 Frc consts  --      0.8444                 1.5625                 2.2752
 IR Inten    --     42.2666                10.6887                21.3678

                     40                     41                     42
                      A                      A                      A
 Frequencies --   1070.6344              1097.5631              1112.7802
 Red. masses --      2.1552                 2.1652                 3.2196
 Frc consts  --      1.4555                 1.5368                 2.3490
 IR Inten    --     10.2154                16.9499                65.1344

                     43                     44                     45
                      A                      A                      A
 Frequencies --   1129.9753              1175.5537              1216.6051
 Red. masses --      7.0972                 2.7752                 1.7899
 Frc consts  --      5.3392                 2.2596                 1.5609
 IR Inten    --    107.3251                25.1142                15.2127

                     46                     47                     48
                      A                      A                      A
 Frequencies --   1264.4926              1278.9957              1315.7848
 Red. masses --      1.2544                 3.3717                 1.7234
 Frc consts  --      1.1817                 3.2497                 1.7580
 IR Inten    --    113.2006                62.6835                44.7049

                     49                     50                     51
                      A                      A                      A
 Frequencies --   1320.8559              1347.1257              1378.5361
 Red. masses --      2.0601                 2.0036                 1.3616
 Frc consts  --      2.1176                 2.1423                 1.5245
 IR Inten    --     41.8038               187.2533                30.3936

                     52                     53                     54
                      A                      A                      A
 Frequencies --   1384.0150              1404.0344              1416.7860
 Red. masses --      1.3806                 1.5015                 1.7998
 Frc consts  --      1.5581                 1.7440                 2.1285
 IR Inten    --     26.0665                44.2156                10.4422

                     55                     56                     57
                      A                      A                      A
 Frequencies --   1461.3496              1476.3322              1484.5891
 Red. masses --      1.5756                 1.3950                 1.0493
 Frc consts  --      1.9825                 1.7914                 1.3626
 IR Inten    --     89.8128                50.0000                 4.6727

                     58                     59                     60
                      A                      A                      A
 Frequencies --   1488.3842              1493.4297              1507.6012
 Red. masses --      1.1430                 2.2697                 1.1184
 Frc consts  --      1.4919                 2.9825                 1.4976
 IR Inten    --     10.2105               183.2911                 1.4177

                     61                     62                     63
                      A                      A                      A
 Frequencies --   1531.8124              1571.9023              1607.0008
 Red. masses --      1.1367                 1.8792                 6.0455
 Frc consts  --      1.5715                 2.7358                 9.1985
 IR Inten    --      1.4342                25.8064               233.2423

                     64                     65                     66
                      A                      A                      A
 Frequencies --   1631.7409              1674.1921              3037.1783
 Red. masses --      3.3678                 1.4146                 1.0660
 Frc consts  --      5.2833                 2.3361                 5.7938
 IR Inten    --     26.6762               230.3370                31.9477

                     67                     68                     69
                      A                      A                      A
 Frequencies --   3083.4993              3088.3468              3097.3858
 Red. masses --      1.0706                 1.0293                 1.0943
 Frc consts  --      5.9973                 5.7845                 6.1853
 IR Inten    --     13.2144                 0.6658                39.3301

                     70                     71                     72
                      A                      A                      A
 Frequencies --   3144.1731              3174.7508              3187.0913
 Red. masses --      1.0999                 1.0905                 1.1066
 Frc consts  --      6.4062                 6.4759                 6.6228
 IR Inten    --     12.5546                27.3435                 1.2107

                     73                     74                     75
                      A                      A                      A
 Frequencies --   3197.2161              3207.2710              3517.2050
 Red. masses --      1.1079                 1.0907                 1.0750
 Frc consts  --      6.6727                 6.6104                 7.8352
 IR Inten    --      1.0009                14.7074               141.4115

                     76                     77                     78
                      A                      A                      A
 Frequencies --   3523.0657              3580.9886              3695.3051
 Red. masses --      1.0735                 1.0465                 1.1014
 Frc consts  --      7.8501                 7.9069                 8.8613
 IR Inten    --      9.9944                48.8982                27.3048

 - Thermochemistry -
 -------------------
 Temperature   298.150 Kelvin.  Pressure   1.00000 Atm.
 Atom     1 has atomic number  6 and mass  12.00000

 Molecular mass:   231.07900 amu.
 Principal axes and moments of inertia in atomic units:
                           1         2         3
     Eigenvalues --  1764.926896405.547786922.42708
           X            0.99987   0.00394   0.01587
           Y           -0.00363   0.99980  -0.01972
           Z           -0.01594   0.01966   0.99968
 This molecule is an asymmetric top.
 Rotational symmetry number  1.
 Warning -- assumption of classical behavior for rotation
           may cause significant error
 Rotational temperatures (Kelvin)      0.04908     0.01352     0.01251
 Rotational constants (GHZ):           1.02256     0.28175     0.26071
 Zero-point vibrational energy     589878.2 (Joules/Mol)
                                  140.98428 (Kcal/Mol)
 Warning -- explicit consideration of  25 degrees of freedom as
           vibrations may cause significant error
 Vibrational temperatures:     18.12    32.24    86.89   106.37   133.97
          (Kelvin)            186.48   270.56   325.45   327.70   370.65
                              397.01   427.91   454.27   521.54   557.87
                              605.57   641.08   667.02   670.72   711.08
                              732.35   760.41   802.90   843.90   874.32
                             1006.64  1038.96  1051.53  1127.74  1169.35
                             1212.83  1225.07  1264.56  1286.00  1420.42
                             1434.60  1440.56  1453.66  1468.84  1540.40
                             1579.15  1601.04  1625.78  1691.36  1750.42
                             1819.32  1840.19  1893.12  1900.42  1938.21
                             1983.41  1991.29  2020.09  2038.44  2102.56
                             2124.11  2135.99  2141.45  2148.71  2169.10
                             2203.94  2261.62  2312.12  2347.71  2408.79
                             4369.82  4436.47  4443.44  4456.45  4523.76
                             4567.76  4585.51  4600.08  4614.55  5060.47
                             5068.91  5152.24  5316.72

 Zero-point correction=                           0.224673 (Hartree/Particle)
 Thermal correction to Energy=                    0.239768
 Thermal correction to Enthalpy=                  0.240712
 Thermal correction to Gibbs Free Energy=         0.180047
 Sum of electronic and zero-point Energies=          -1096.721788
 Sum of electronic and thermal Energies=             -1096.706693
 Sum of electronic and thermal Enthalpies=           -1096.705749
 Sum of electronic and thermal Free Energies=        -1096.766414

                     E (Thermal)             CV                S
                      KCal/Mol        Cal/Mol-Kelvin    Cal/Mol-Kelvin
 Total                  150.457             56.554            127.681
 Electronic               0.000              0.000              0.000
 Translational            0.889              2.981             42.215
 Rotational               0.889              2.981             32.726
 Vibrational            148.679             50.592             52.740
 Vibration     1          0.593              1.987              7.552
 Vibration     2          0.593              1.985              6.408
 Vibration     3          0.597              1.973              4.444
 Vibration     4          0.599              1.966              4.046
 Vibration     5          0.602              1.954              3.594
 Vibration     6          0.612              1.924              2.952
 Vibration     7          0.633              1.856              2.247
 Vibration     8          0.650              1.801              1.909
 Vibration     9          0.651              1.799              1.896
 Vibration    10          0.667              1.750              1.678
 Vibration    11          0.678              1.718              1.559
 Vibration    12          0.691              1.679              1.431
 Vibration    13          0.703              1.644              1.332
 Vibration    14          0.736              1.550              1.111
 Vibration    15          0.756              1.496              1.009
 Vibration    16          0.783              1.425              0.889
 Vibration    17          0.805              1.371              0.809
 Vibration    18          0.821              1.331              0.756
 Vibration    19          0.824              1.325              0.748
 Vibration    20          0.850              1.263              0.673
 Vibration    21          0.864              1.230              0.636
 Vibration    22          0.883              1.187              0.591
 Vibration    23          0.914              1.122              0.528
 Vibration    24          0.944              1.061              0.473
 Vibration    25          0.966              1.016              0.437

                           ! Non-Optimized Parameters !
 Normal termination of Gaussian 16 at Thu Dec 10 17:42:08 2020.

 ----------------------------------------------------------------------
 # B3LYP/6-311++G(d,p) empiricaldispersion=gd3bj scf=xqc pop=npa geom=c
 heck
 ----------------------------------------------------------------------

 --------------------------------------
 CID_78988761_JID_5881_Energie_neutraal
 --------------------------------------
 Structure from the checkpoint file:  "JID_5881.chk"
 Charge =  0 Multiplicity = 1

 SCF Done:  E(RB3LYP) =  -1097.18390479     A.U. after   15 cycles
 Normal termination of Gaussian 16 at Thu Dec 10 17:45:22 2020.

 ----------------------------------------------------------------------
 # B3LYP/6-311++G(d,p) empiricaldispersion=gd3bj scf=xqc pop=npa geom=c
 heck
 ----------------------------------------------------------------------

 ------------------------------------
 CID_78988761_JID_5881_Energie_kation
 ------------------------------------
 Structure from the checkpoint file:  "JID_5881.chk"
 Charge =  1 Multiplicity = 2

 SCF Done:  E(UB3LYP) =  -1096.89209810     A.U. after   23 cycles
 Normal termination of Gaussian 16 at Thu Dec 10 17:51:48 2020.
 Gaussian 16:  ES64L-G16RevA.03 25-Dec-2016

 ----------------------------------------------------------------------
 # B3LYP/6-311++G(d,p) empiricaldispersion=gd3bj scf=xqc pop=npa geom=c
 heck
 ----------------------------------------------------------------------

 -----------------------------------
 CID_78988761_JID_5881_Energie_anion
 -----------------------------------
 Structure from the checkpoint file:  "JID_5881.chk"
 Charge = -1 Multiplicity = 2

                         Standard orientation:
 ---------------------------------------------------------------------
 Center     Atomic      Atomic             Coordinates (Angstroms)
 Number     Number       Type             X           Y           Z
 ---------------------------------------------------------------------
      1          6           0        4.024417   -1.121579    0.596378
      2         16           0        2.645997   -0.545090   -0.405225
      3          8           0        3.133974    0.583452   -1.207782
      4          8           0        2.015064   -1.713769   -1.024804
      5          7           0        1.574176    0.028633    0.765309
      6          6           0        1.342632    1.477749    0.844032
      7          6           0        0.426703    2.077023   -0.230640
      8          7           0       -1.018724    2.052244    0.060692
      9          6           0       -1.723456    0.861607    0.255639
     10          7           0       -2.732612    0.628330   -0.598019
     11          6           0       -3.453963   -0.483994   -0.415516
     12          6           0       -3.146677   -1.393090    0.622103
     13          7           0       -2.178449   -1.135533    1.491322
     14          6           0       -1.475329   -0.008278    1.333279
     15          7           0       -4.468394   -0.726929   -1.310795
     16          1           0        4.781870   -1.511478   -0.087142
     17          1           0        3.665527   -1.905917    1.263860
     18          1           0        4.420814   -0.278037    1.163869
     19          1           0        0.726131   -0.534021    0.726683
     20          1           0        0.954956    1.702320    1.842773
     21          1           0        2.319890    1.957169    0.761598
     22          1           0        0.683970    3.136453   -0.333346
     23          1           0        0.659673    1.594285   -1.189899
     24          1           0       -1.509075    2.572374   -0.662791
     25          1           0       -3.711131   -2.314629    0.748393
     26          1           0       -0.750658    0.232033    2.104295
     27          1           0       -4.752051    0.069666   -1.865335
     28          1           0       -5.216113   -1.340079   -1.019887
 ---------------------------------------------------------------------

 SCF Done:  E(UB3LYP) =  -1097.17983499     A.U. after   33 cycles
 SCF Done:  E(UB3LYP) =  -1097.17983499     a.u. after    1 cycles

 The electronic state is 2-A.
 Alpha  occ. eigenvalues --  -88.96112 -19.01551 -19.01482 -14.23543 -14.22165
 Alpha  occ. eigenvalues --  -14.20557 -14.17563 -14.17489 -10.12530 -10.11429
 Alpha  occ. eigenvalues --  -10.11145 -10.10460 -10.10013 -10.06731 -10.06628
 Alpha  occ. eigenvalues --   -8.02305  -5.98589  -5.98554  -5.98376  -1.01741
 Alpha  occ. eigenvalues --   -0.90858  -0.86965  -0.82906  -0.81496  -0.79880
 Alpha  occ. eigenvalues --   -0.75022  -0.67707  -0.64485  -0.61557  -0.55282
 Alpha  occ. eigenvalues --   -0.53123  -0.51682  -0.49521  -0.44214  -0.43257
 Alpha  occ. eigenvalues --   -0.41099  -0.39663  -0.38866  -0.38505  -0.37675
 Alpha  occ. eigenvalues --   -0.36356  -0.35411  -0.35004  -0.33444  -0.32911
 Alpha  occ. eigenvalues --   -0.31634  -0.30400  -0.29625  -0.28619  -0.27069
 Alpha  occ. eigenvalues --   -0.24945  -0.23208  -0.22345  -0.21096  -0.20714
 Alpha  occ. eigenvalues --   -0.20613  -0.17774  -0.17104  -0.14097  -0.12693
 Alpha  occ. eigenvalues --   -0.09681   0.04425
 Alpha virt. eigenvalues --    0.06193   0.06792   0.07558   0.09102   0.09624
 Alpha virt. eigenvalues --    0.09951   0.10714   0.11017   0.11403   0.11767
 Alpha virt. eigenvalues --    0.12798   0.13336   0.13920   0.14483   0.14823

  Beta  occ. eigenvalues --  -88.96107 -19.01539 -19.01476 -14.23525 -14.22154
  Beta  occ. eigenvalues --  -14.20563 -14.17265 -14.17024 -10.12507 -10.11333
  Beta  occ. eigenvalues --  -10.11126 -10.10397 -10.09995 -10.06762 -10.06550
  Beta  occ. eigenvalues --   -8.02299  -5.98585  -5.98549  -5.98371  -1.01717
  Beta  occ. eigenvalues --   -0.90833  -0.86650  -0.82855  -0.81432  -0.79428
  Beta  occ. eigenvalues --   -0.74598  -0.67637  -0.64368  -0.61387  -0.55127
  Beta  occ. eigenvalues --   -0.52794  -0.51556  -0.49436  -0.44118  -0.43213
  Beta  occ. eigenvalues --   -0.40987  -0.39623  -0.38828  -0.38411  -0.37556
  Beta  occ. eigenvalues --   -0.36307  -0.35304  -0.34862  -0.33373  -0.32854
  Beta  occ. eigenvalues --   -0.31087  -0.30328  -0.29501  -0.28411  -0.26953
  Beta  occ. eigenvalues --   -0.24916  -0.22582  -0.22330  -0.21063  -0.20627
  Beta  occ. eigenvalues --   -0.19397  -0.17315  -0.17028  -0.13468  -0.12225
  Beta  occ. eigenvalues --   -0.09183
  Beta virt. eigenvalues --    0.06718   0.07064   0.07930   0.09206   0.09712
  Beta virt. eigenvalues --    0.09836   0.10177   0.11122   0.11423   0.11641
  Beta virt. eigenvalues --    0.11975   0.12807   0.13375   0.13920   0.14583

 Mulliken charges and spin densities:
               1          2
     1  C    0.723893  -1.188334
     2  S    0.039544   0.021762
     3  O   -0.190574   0.018115
     4  O   -0.209766   0.021847
     5  N   -0.376827   0.164208
     6  C    0.305286  -0.726899
     7  C   -0.532579   0.200359
     8  N   -0.059034   0.040370
     9  C    0.194222  -0.228571
    10  N   -0.293459   0.171192
    11  C   -0.094650   0.056908
    12  C   -0.052929   0.074684
    13  N    0.007596   0.190649
    14  C   -0.670496  -0.032334
    15  N   -0.310571  -0.001064
    16  H   -0.212067   0.412156
    17  H   -0.133979   0.338337
    18  H   -0.504943   0.715765
    19  H    0.478937  -0.097285
    20  H    0.146723   0.032127
    21  H   -0.080346   0.280538
    22  H   -0.280868   0.455755
    23  H    0.301853  -0.117601
    24  H    0.119765   0.126678
    25  H    0.121845  -0.007875
    26  H    0.118076   0.067198
    27  H    0.217542   0.011470
    28  H    0.227805  -0.000156
 Sum of Mulliken charges =  -1.00000   1.00000

 Dipole moment (field-independent basis, Debye):
    X=             -4.8931    Y=              0.6961    Z=             -1.0428  Tot=              5.0512
 Quadrupole moment (field-independent basis, Debye-Ang):
   XX=           -151.8695   YY=           -126.5528   ZZ=           -123.9317
   XY=              2.5974   XZ=              4.2061   YZ=              0.0994

 Summary of Natural Population Analysis:

                                       Natural Population
                Natural  -----------------------------------------------
    Atom  No    Charge         Core      Valence    Rydberg      Total
 -----------------------------------------------------------------------
      C    1   -0.38711      0.99961     2.37741    0.01009     3.38711
      S    2    1.09282      4.99934     1.80777    0.10006     6.90718
      O    3   -0.46806      0.99991     3.46234    0.00581     4.46806
      O    4   -0.46434      0.99991     3.45882    0.00561     4.46434
      N    5   -0.44811      0.99976     2.93515    0.01320     3.94811
      C    6   -0.10321      0.99961     2.09032    0.01328     3.10321
      C    7   -0.09079      0.99960     2.08022    0.01097     3.09079
      N    8   -0.32893      0.99968     2.81800    0.01125     3.82893
      C    9    0.20010      0.99952     1.78493    0.01544     2.79990
      N   10   -0.23991      0.99964     2.72809    0.01219     3.73991
      C   11    0.18705      0.99957     1.79978    0.01360     2.81295
      C   12   -0.02279      0.99956     2.00990    0.01332     3.02279
      N   13   -0.14801      0.99971     2.63551    0.01280     3.64801
      C   14   -0.06276      0.99955     2.04860    0.01462     3.06276
      N   15   -0.39819      0.99971     2.88934    0.00915     3.89819
      H   16    0.11492      0.00000     0.38390    0.00118     0.38508
      H   17    0.11605      0.00000     0.38283    0.00113     0.38395
      H   18    0.11776      0.00000     0.37999    0.00226     0.38224
      H   19    0.20997      0.00000     0.28726    0.00277     0.29003
      H   20    0.10186      0.00000     0.39676    0.00138     0.39814
      H   21    0.10936      0.00000     0.38916    0.00147     0.39064
      H   22    0.09641      0.00000     0.40234    0.00126     0.40359
      H   23    0.09227      0.00000     0.40608    0.00165     0.40773
      H   24    0.18296      0.00000     0.31310    0.00394     0.31704
      H   25    0.08068      0.00000     0.41784    0.00149     0.41932
      H   26    0.08851      0.00000     0.40888    0.00261     0.41149
      H   27    0.18802      0.00000     0.30959    0.00239     0.31198
      H   28    0.18348      0.00000     0.31534    0.00118     0.31652
 =======================================================================
   * Total *    0.00000     18.99466    41.71926    0.28608    61.00000

 Normal termination of Gaussian 16 at Thu Dec 10 18:02:10 2020.
