 Gaussian 16, Revision A.03,

 -----------------------------------------------------------
 # opt freq B3LYP/6-31G(d) empiricaldispersion=gd3bj scf=xqc
 -----------------------------------------------------------

 --------------------------------
 CID_106917244_JID_10640_neutraal
 --------------------------------
 Symbolic Z-matrix:
 Charge =  0 Multiplicity = 1

 SCF Done:  E(RB3LYP) =  -973.252339682     A.U. after   15 cycles
 SCF Done:  E(RB3LYP) =  -973.261245615     A.U. after   13 cycles
 SCF Done:  E(RB3LYP) =  -973.260615126     A.U. after   13 cycles
 SCF Done:  E(RB3LYP) =  -973.262166606     A.U. after   13 cycles
 SCF Done:  E(RB3LYP) =  -973.264106330     A.U. after   13 cycles
 SCF Done:  E(RB3LYP) =  -973.264972604     A.U. after   13 cycles
 SCF Done:  E(RB3LYP) =  -973.266510811     A.U. after   12 cycles
 SCF Done:  E(RB3LYP) =  -973.267218500     A.U. after   14 cycles
 SCF Done:  E(RB3LYP) =  -973.268113031     A.U. after   12 cycles
 SCF Done:  E(RB3LYP) =  -973.268075104     A.U. after   13 cycles
 SCF Done:  E(RB3LYP) =  -973.270029862     A.U. after    8 cycles
 SCF Done:  E(RB3LYP) =  -973.270030559     A.U. after    8 cycles
 SCF Done:  E(RB3LYP) =  -973.270031102     A.U. after    8 cycles
 SCF Done:  E(RB3LYP) =  -973.270031267     A.U. after    7 cycles
 SCF Done:  E(RB3LYP) =  -973.270031283     A.U. after    6 cycles
 Optimization completed.
    -- Stationary point found.
 Normal termination of Gaussian 16 at Sun Dec 13 21:12:59 2020.

 --------------------------------------------------------------------
 #N Geom=AllCheck Guess=TCheck SCRF=Check GenChk RB3LYP/6-31G(d) Freq
 --------------------------------------------------------------------

 Structure from the checkpoint file:  "JID_10640.chk"
 --------------------------------
 CID_106917244_JID_10640_neutraal
 --------------------------------
 Charge =  0 Multiplicity = 1

 SCF Done:  E(RB3LYP) =  -973.270031283     A.U. after    1 cycles

  Exact polarizability: 192.735  -7.241 146.170  14.226   5.632 140.298
 Approx polarizability: 260.086  -7.953 223.421  35.915   9.161 216.991

                      1                      2                      3
                      A                      A                      A
 Frequencies --     19.4986                28.9781                34.5122
 Red. masses --      7.3274                 4.6770                 6.6034
 Frc consts  --      0.0016                 0.0023                 0.0046
 IR Inten    --      1.3706                 2.5789                 0.5819

                      4                      5                      6
                      A                      A                      A
 Frequencies --     46.2085                54.6457                62.9555
 Red. masses --      5.9365                 5.4869                 4.8756
 Frc consts  --      0.0075                 0.0097                 0.0114
 IR Inten    --      3.6376                 0.6221                 1.4177

                      7                      8                      9
                      A                      A                      A
 Frequencies --     77.9399               105.3198               116.1741
 Red. masses --      3.8191                 4.6701                 3.4756
 Frc consts  --      0.0137                 0.0305                 0.0276
 IR Inten    --      0.9568                 5.2652                 3.6103

                     10                     11                     12
                      A                      A                      A
 Frequencies --    130.0404               143.1677               169.8907
 Red. masses --      3.5720                 2.4724                 2.2201
 Frc consts  --      0.0356                 0.0299                 0.0378
 IR Inten    --      0.7796                 0.6896                 1.4207

                     13                     14                     15
                      A                      A                      A
 Frequencies --    182.7400               200.2271               219.0187
 Red. masses --      1.4670                 4.1388                 1.5210
 Frc consts  --      0.0289                 0.0978                 0.0430
 IR Inten    --      0.4688                 3.3252                 0.3066

                     16                     17                     18
                      A                      A                      A
 Frequencies --    229.3041               233.2988               278.0170
 Red. masses --      2.6588                 1.8905                 3.0658
 Frc consts  --      0.0824                 0.0606                 0.1396
 IR Inten    --      0.0191                 1.6566                 2.3826

                     19                     20                     21
                      A                      A                      A
 Frequencies --    286.6792               305.7423               321.5504
 Red. masses --      3.5136                 2.8562                 1.6029
 Frc consts  --      0.1701                 0.1573                 0.0976
 IR Inten    --      1.9281                 8.4875                 2.6599

                     22                     23                     24
                      A                      A                      A
 Frequencies --    348.8129               396.4737               416.3027
 Red. masses --      2.7339                 3.9893                 3.4160
 Frc consts  --      0.1960                 0.3695                 0.3488
 IR Inten    --      1.5542                 2.1545                 9.5700

                     25                     26                     27
                      A                      A                      A
 Frequencies --    445.4043               458.6415               471.0502
 Red. masses --      3.2984                 2.5182                 4.0325
 Frc consts  --      0.3855                 0.3121                 0.5272
 IR Inten    --      4.3182                11.0921                 4.1894

                     28                     29                     30
                      A                      A                      A
 Frequencies --    526.9292               555.3569               579.8144
 Red. masses --      3.3082                 2.0938                 2.0762
 Frc consts  --      0.5412                 0.3805                 0.4112
 IR Inten    --      4.8425                58.6198                50.9160

                     31                     32                     33
                      A                      A                      A
 Frequencies --    588.3477               602.6367               644.4375
 Red. masses --      2.0050                 1.7066                 4.0438
 Frc consts  --      0.4089                 0.3652                 0.9895
 IR Inten    --     16.8406                86.5535                23.6160

                     34                     35                     36
                      A                      A                      A
 Frequencies --    653.0163               697.2319               717.9665
 Red. masses --      2.9191                 3.9935                 2.6589
 Frc consts  --      0.7334                 1.1438                 0.8075
 IR Inten    --      5.1036                 0.8273                32.9929

                     37                     38                     39
                      A                      A                      A
 Frequencies --    741.5241               768.5873               770.6805
 Red. masses --      3.9100                 3.2613                 3.7658
 Frc consts  --      1.2667                 1.1351                 1.3178
 IR Inten    --      5.2793                18.4155                29.9537

                     40                     41                     42
                      A                      A                      A
 Frequencies --    792.5957               805.8199               818.0643
 Red. masses --      3.9208                 3.9673                 2.5447
 Frc consts  --      1.4512                 1.5178                 1.0034
 IR Inten    --     10.2180                 4.2440                14.6207

                     43                     44                     45
                      A                      A                      A
 Frequencies --    830.1888               871.4331               909.2626
 Red. masses --      3.0203                 2.5071                 2.5563
 Frc consts  --      1.2265                 1.1218                 1.2452
 IR Inten    --     10.9496                44.7447                 5.5259

                     46                     47                     48
                      A                      A                      A
 Frequencies --    938.3148               944.8820               967.8932
 Red. masses --      2.0931                 1.9824                 1.7045
 Frc consts  --      1.0858                 1.0428                 0.9408
 IR Inten    --     75.5108                13.6947                 9.4607

                     49                     50                     51
                      A                      A                      A
 Frequencies --    980.9865               982.1635              1031.5027
 Red. masses --      1.9490                 2.0852                 1.6068
 Frc consts  --      1.1051                 1.1851                 1.0073
 IR Inten    --      2.1873                 1.2034                26.1191

                     52                     53                     54
                      A                      A                      A
 Frequencies --   1036.8650              1042.0332              1073.3631
 Red. masses --      1.7479                 2.3877                 2.1167
 Frc consts  --      1.1071                 1.5276                 1.4368
 IR Inten    --     56.6341                 0.7828                12.1012

                     55                     56                     57
                      A                      A                      A
 Frequencies --   1087.0242              1121.0603              1130.2205
 Red. masses --      1.9016                 2.1932                 2.1570
 Frc consts  --      1.3238                 1.6240                 1.6234
 IR Inten    --     22.1583                73.2471                20.8856

                     58                     59                     60
                      A                      A                      A
 Frequencies --   1144.6734              1146.4515              1163.5757
 Red. masses --      1.1507                 1.6026                 1.2686
 Frc consts  --      0.8883                 1.2410                 1.0119
 IR Inten    --     11.9561                26.9474                 3.0986

                     61                     62                     63
                      A                      A                      A
 Frequencies --   1168.9530              1180.7185              1215.2174
 Red. masses --      1.3127                 2.5125                 2.1613
 Frc consts  --      1.0568                 2.0638                 1.8805
 IR Inten    --      3.8178                80.8187                 1.0059

                     64                     65                     66
                      A                      A                      A
 Frequencies --   1224.3447              1242.0179              1249.5059
 Red. masses --      2.1316                 1.9694                 1.6111
 Frc consts  --      1.8827                 1.7899                 1.4820
 IR Inten    --     55.4210                88.2251                 5.3210

                     67                     68                     69
                      A                      A                      A
 Frequencies --   1263.8591              1318.4350              1322.0755
 Red. masses --      1.5917                 1.6544                 1.6110
 Frc consts  --      1.4980                 1.6944                 1.6590
 IR Inten    --     14.1506                 3.7640                 8.5144

                     70                     71                     72
                      A                      A                      A
 Frequencies --   1325.2560              1334.3180              1344.5134
 Red. masses --      1.3362                 1.6552                 1.3654
 Frc consts  --      1.3827                 1.7362                 1.4543
 IR Inten    --      2.3545               181.4704                18.3818

                     73                     74                     75
                      A                      A                      A
 Frequencies --   1354.1531              1377.6228              1378.5025
 Red. masses --      1.5856                 1.5342                 1.4769
 Frc consts  --      1.7131                 1.7156                 1.6535
 IR Inten    --      8.8123                33.8850                56.8452

                     76                     77                     78
                      A                      A                      A
 Frequencies --   1387.4439              1396.1700              1415.1117
 Red. masses --      2.4102                 1.6969                 1.2897
 Frc consts  --      2.7336                 1.9488                 1.5217
 IR Inten    --     63.9700                 2.1272                 2.4900

                     79                     80                     81
                      A                      A                      A
 Frequencies --   1433.3562              1449.3021              1485.5156
 Red. masses --      2.0938                 1.2513                 1.5293
 Frc consts  --      2.5345                 1.5485                 1.9884
 IR Inten    --    242.0961                 6.5422                17.6023

                     82                     83                     84
                      A                      A                      A
 Frequencies --   1490.7603              1499.2928              1510.6502
 Red. masses --      1.2467                 1.2098                 1.1115
 Frc consts  --      1.6324                 1.6023                 1.4945
 IR Inten    --     29.1023                 3.8532                50.4664

                     85                     86                     87
                      A                      A                      A
 Frequencies --   1511.1283              1517.9148              1521.0858
 Red. masses --      1.0992                 1.1947                 1.1757
 Frc consts  --      1.4789                 1.6218                 1.6027
 IR Inten    --      5.3153                14.0658                10.5495

                     88                     89                     90
                      A                      A                      A
 Frequencies --   1529.7829              1534.6517              1536.4365
 Red. masses --      1.0776                 1.0916                 1.0544
 Frc consts  --      1.4859                 1.5147                 1.4665
 IR Inten    --     36.6647                12.8154                13.5809

                     91                     92                     93
                      A                      A                      A
 Frequencies --   1554.0683              1562.2314              1701.5611
 Red. masses --      1.1068                 1.0672                 6.4494
 Frc consts  --      1.5749                 1.5346                11.0017
 IR Inten    --     46.0258                31.3057                 1.6878

                     94                     95                     96
                      A                      A                      A
 Frequencies --   1765.7823              1767.1718              1853.5050
 Red. masses --      7.2565                 6.7056                 9.8313
 Frc consts  --     13.3307                12.3380                19.8999
 IR Inten    --    308.3623               273.6633               348.3827

                     97                     98                     99
                      A                      A                      A
 Frequencies --   3048.0985              3054.0045              3063.5311
 Red. masses --      1.0390                 1.0434                 1.0751
 Frc consts  --      5.6873                 5.7337                 5.9447
 IR Inten    --     35.9114                30.9356                 9.1753

                    100                    101                    102
                      A                      A                      A
 Frequencies --   3068.0458              3076.7283              3083.7978
 Red. masses --      1.0462                 1.0637                 1.0662
 Frc consts  --      5.8023                 5.9325                 5.9739
 IR Inten    --     26.5267                18.3107                27.7555

                    103                    104                    105
                      A                      A                      A
 Frequencies --   3101.3971              3104.7218              3118.0729
 Red. masses --      1.1005                 1.0846                 1.0872
 Frc consts  --      6.2368                 6.1600                 6.2277
 IR Inten    --     33.9303                11.8383                25.0513

                    106                    107                    108
                      A                      A                      A
 Frequencies --   3119.7704              3128.0235              3131.0279
 Red. masses --      1.0948                 1.1023                 1.1033
 Frc consts  --      6.2780                 6.3545                 6.3729
 IR Inten    --     20.2349                19.3748                18.4303

                    109                    110                    111
                      A                      A                      A
 Frequencies --   3153.2767              3157.0459              3165.0467
 Red. masses --      1.1009                 1.0990                 1.1005
 Frc consts  --      6.4496                 6.4539                 6.4954
 IR Inten    --      3.5566                22.7598                 6.4602

                    112                    113                    114
                      A                      A                      A
 Frequencies --   3175.9041              3207.5428              3231.1749
 Red. masses --      1.0973                 1.0859                 1.1037
 Frc consts  --      6.5210                 6.5826                 6.7891
 IR Inten    --     21.9476                 4.2870                14.9613

                    115                    116                    117
                      A                      A                      A
 Frequencies --   3533.4792              3599.3205              3694.7629
 Red. masses --      1.0740                 1.0759                 1.0643
 Frc consts  --      7.9005                 8.2124                 8.5602
 IR Inten    --     67.8809                21.8856                68.2717

 - Thermochemistry -
 -------------------
 Temperature   298.150 Kelvin.  Pressure   1.00000 Atm.
 Atom     1 has atomic number  6 and mass  12.00000

 Molecular mass:   283.15321 amu.
 Principal axes and moments of inertia in atomic units:
                           1         2         3
     Eigenvalues --  2835.186709681.266899885.66390
           X            0.99996  -0.00495  -0.00766
           Y            0.00523   0.99929   0.03719
           Z            0.00747  -0.03723   0.99928
 This molecule is an asymmetric top.
 Rotational symmetry number  1.
 Warning -- assumption of classical behavior for rotation
           may cause significant error
 Rotational temperatures (Kelvin)      0.03055     0.00895     0.00876
 Rotational constants (GHZ):           0.63655     0.18642     0.18256
 Zero-point vibrational energy     916247.9 (Joules/Mol)
                                  218.98850 (Kcal/Mol)
 Warning -- explicit consideration of  32 degrees of freedom as
           vibrations may cause significant error
 Vibrational temperatures:     28.05    41.69    49.66    66.48    78.62
          (Kelvin)             90.58   112.14   151.53   167.15   187.10
                              205.99   244.43   262.92   288.08   315.12
                              329.92   335.66   400.00   412.47   439.90
                              462.64   501.86   570.44   598.97   640.84
                              659.88   677.74   758.13   799.03   834.22
                              846.50   867.06   927.20   939.54  1003.16
                             1032.99  1066.89  1105.83  1108.84  1140.37
                             1159.40  1177.01  1194.46  1253.80  1308.23
                             1350.03  1359.47  1392.58  1411.42  1413.11
                             1484.10  1491.82  1499.25  1544.33  1563.99
                             1612.96  1626.14  1646.93  1649.49  1674.13
                             1681.86  1698.79  1748.43  1761.56  1786.99
                             1797.76  1818.41  1896.93  1902.17  1906.75
                             1919.79  1934.45  1948.32  1982.09  1983.36
                             1996.22  2008.78  2036.03  2062.28  2085.22
                             2137.33  2144.87  2157.15  2173.49  2174.18
                             2183.94  2188.50  2201.02  2208.02  2210.59
                             2235.96  2247.70  2448.17  2540.57  2542.57
                             2666.78  4385.53  4394.03  4407.74  4414.23
                             4426.73  4436.90  4462.22  4467.00  4486.21
                             4488.65  4500.53  4504.85  4536.86  4542.28
                             4553.80  4569.42  4614.94  4648.94  5083.89
                             5178.62  5315.94

 Zero-point correction=                           0.348980 (Hartree/Particle)
 Thermal correction to Energy=                    0.370037
 Thermal correction to Enthalpy=                  0.370981
 Thermal correction to Gibbs Free Energy=         0.296732
 Sum of electronic and zero-point Energies=           -972.921051
 Sum of electronic and thermal Energies=              -972.899995
 Sum of electronic and thermal Enthalpies=            -972.899050
 Sum of electronic and thermal Free Energies=         -972.973300

                     E (Thermal)             CV                S
                      KCal/Mol        Cal/Mol-Kelvin    Cal/Mol-Kelvin
 Total                  232.201             77.178            156.271
 Electronic               0.000              0.000              0.000
 Translational            0.889              2.981             42.820
 Rotational               0.889              2.981             33.961
 Vibrational            230.424             71.216             79.489
 Vibration     1          0.593              1.986              6.685
 Vibration     2          0.593              1.984              5.898
 Vibration     3          0.594              1.983              5.552
 Vibration     4          0.595              1.979              4.973
 Vibration     5          0.596              1.976              4.642
 Vibration     6          0.597              1.972              4.362
 Vibration     7          0.599              1.964              3.942
 Vibration     8          0.605              1.945              3.353
 Vibration     9          0.608              1.936              3.163
 Vibration    10          0.612              1.923              2.945
 Vibration    11          0.616              1.910              2.761
 Vibration    12          0.625              1.880              2.437
 Vibration    13          0.630              1.863              2.300
 Vibration    14          0.638              1.840              2.131
 Vibration    15          0.647              1.812              1.967
 Vibration    16          0.652              1.796              1.884
 Vibration    17          0.654              1.790              1.853
 Vibration    18          0.679              1.714              1.546
 Vibration    19          0.684              1.698              1.493
 Vibration    20          0.696              1.663              1.385
 Vibration    21          0.707              1.632              1.302
 Vibration    22          0.726              1.578              1.172
 Vibration    23          0.763              1.478              0.976
 Vibration    24          0.780              1.435              0.905
 Vibration    25          0.805              1.371              0.810
 Vibration    26          0.817              1.342              0.770
 Vibration    27          0.828              1.314              0.735
 Vibration    28          0.882              1.190              0.594
 Vibration    29          0.911              1.128              0.533
 Vibration    30          0.936              1.075              0.486
 Vibration    31          0.946              1.057              0.470
 Vibration    32          0.961              1.026              0.445

                           ! Non-Optimized Parameters !
 Normal termination of Gaussian 16 at Sun Dec 13 21:36:49 2020.

 ----------------------------------------------------------------------
 # B3LYP/6-311++G(d,p) empiricaldispersion=gd3bj scf=xqc pop=npa geom=c
 heck
 ----------------------------------------------------------------------

 ----------------------------------------
 CID_106917244_JID_10640_Energie_neutraal
 ----------------------------------------
 Structure from the checkpoint file:  "JID_10640.chk"
 Charge =  0 Multiplicity = 1

 SCF Done:  E(RB3LYP) =  -973.566264127     A.U. after   16 cycles
 Normal termination of Gaussian 16 at Sun Dec 13 21:46:55 2020.

 ----------------------------------------------------------------------
 # B3LYP/6-311++G(d,p) empiricaldispersion=gd3bj scf=xqc pop=npa geom=c
 heck
 ----------------------------------------------------------------------

 --------------------------------------
 CID_106917244_JID_10640_Energie_kation
 --------------------------------------
 Structure from the checkpoint file:  "JID_10640.chk"
 Charge =  1 Multiplicity = 2

 SCF Done:  E(UB3LYP) =  -973.257736305     A.U. after   31 cycles
 Normal termination of Gaussian 16 at Sun Dec 13 22:12:45 2020.
 Gaussian 16:  ES64L-G16RevA.03 25-Dec-2016

 ----------------------------------------------------------------------
 # B3LYP/6-311++G(d,p) empiricaldispersion=gd3bj scf=xqc pop=npa geom=c
 heck
 ----------------------------------------------------------------------

 -------------------------------------
 CID_106917244_JID_10640_Energie_anion
 -------------------------------------
 Structure from the checkpoint file:  "JID_10640.chk"
 Charge = -1 Multiplicity = 2

                         Standard orientation:
 ---------------------------------------------------------------------
 Center     Atomic      Atomic             Coordinates (Angstroms)
 Number     Number       Type             X           Y           Z
 ---------------------------------------------------------------------
      1          6           0       -2.144030    0.816406    2.031741
      2          6           0       -3.103544    0.825756    0.835951
      3          6           0       -2.496356    1.513504   -0.405082
      4          7           0       -1.353176    0.814441   -0.995007
      5          6           0       -1.619799   -0.100468   -2.101045
      6          6           0       -0.098792    1.337953   -0.749680
      7          8           0        0.078131    2.360607   -0.091339
      8          7           0        0.985944    0.647677   -1.322700
      9          6           0        1.243679   -0.751472   -0.932455
     10          6           0        1.701224   -0.930203    0.544156
     11          6           0        3.253770   -1.050695    0.500496
     12          6           0        3.514804   -1.404874   -0.951139
     13          6           0        2.428776   -1.269983   -1.712904
     14          6           0        3.952641    0.230198    0.928449
     15          8           0        4.697368    0.345475    1.873479
     16          8           0        3.626849    1.278864    0.125683
     17          6           0       -3.787060   -0.483376    0.416494
     18          8           0       -4.884700   -0.428145   -0.132074
     19          7           0       -3.198345   -1.704299    0.622278
     20          6           0       -1.855355   -2.051254    1.055953
     21          1           0       -1.156342    0.426134    1.780977
     22          1           0       -2.547328    0.232015    2.865609
     23          1           0       -1.996393    1.843780    2.378366
     24          1           0       -3.964281    1.448261    1.106564
     25          1           0       -3.276438    1.602884   -1.167297
     26          1           0       -2.158205    2.512375   -0.125835
     27          1           0       -0.754701   -0.132727   -2.764334
     28          1           0       -1.853211   -1.114924   -1.756198
     29          1           0       -2.483420    0.261382   -2.668704
     30          1           0        1.816844    1.201598   -1.127033
     31          1           0        0.340319   -1.331677   -1.131159
     32          1           0        1.350078   -0.112021    1.178962
     33          1           0        1.297628   -1.864835    0.946043
     34          1           0        3.616960   -1.819441    1.187903
     35          1           0        4.497857   -1.706724   -1.299090
     36          1           0        2.384290   -1.430023   -2.785288
     37          1           0        4.053100    2.068846    0.506987
     38          1           0       -3.791898   -2.457390    0.298493
     39          1           0       -1.743018   -2.037212    2.146387
     40          1           0       -1.634741   -3.062802    0.704214
     41          1           0       -1.119000   -1.375590    0.620813
 ---------------------------------------------------------------------

 SCF Done:  E(UB3LYP) =  -973.562121094     A.U. after   33 cycles
 SCF Done:  E(UB3LYP) =  -973.562121094     a.u. after    1 cycles

 The electronic state is 2-A.
 Alpha  occ. eigenvalues --  -19.09626 -19.04051 -18.99936 -18.99815 -14.25884
 Alpha  occ. eigenvalues --  -14.24950 -14.23264 -10.22930 -10.20674 -10.18565
 Alpha  occ. eigenvalues --  -10.13185 -10.12239 -10.11665 -10.11430 -10.11270
 Alpha  occ. eigenvalues --  -10.10504 -10.09893 -10.09424 -10.09279 -10.08136
 Alpha  occ. eigenvalues --   -1.03525  -0.96431  -0.95086  -0.94663  -0.85663
 Alpha  occ. eigenvalues --   -0.83261  -0.83003  -0.76371  -0.71566  -0.66005
 Alpha  occ. eigenvalues --   -0.63556  -0.63061  -0.62205  -0.60918  -0.56374
 Alpha  occ. eigenvalues --   -0.55455  -0.51050  -0.50163  -0.47364  -0.46402
 Alpha  occ. eigenvalues --   -0.44041  -0.43410  -0.41315  -0.40961  -0.40661
 Alpha  occ. eigenvalues --   -0.39906  -0.39478  -0.38646  -0.37298  -0.36755
 Alpha  occ. eigenvalues --   -0.35762  -0.35157  -0.34691  -0.33965  -0.33649
 Alpha  occ. eigenvalues --   -0.32225  -0.32124  -0.31555  -0.30994  -0.30651
 Alpha  occ. eigenvalues --   -0.30108  -0.29007  -0.28405  -0.28223  -0.27904
 Alpha  occ. eigenvalues --   -0.27269  -0.26633  -0.25756  -0.25273  -0.21671
 Alpha  occ. eigenvalues --   -0.19805  -0.18026  -0.17422  -0.16671  -0.16209
 Alpha  occ. eigenvalues --   -0.15758   0.03575
 Alpha virt. eigenvalues --    0.05762   0.06021   0.06544   0.06917   0.07282
 Alpha virt. eigenvalues --    0.08058   0.08292   0.08663   0.09056   0.09520
 Alpha virt. eigenvalues --    0.10217   0.10458   0.10816   0.10870   0.11710

  Beta  occ. eigenvalues --  -19.09604 -19.04039 -18.99934 -18.99812 -14.25882
  Beta  occ. eigenvalues --  -14.24935 -14.23260 -10.22916 -10.20673 -10.18566
  Beta  occ. eigenvalues --  -10.13177 -10.12237 -10.11642 -10.11417 -10.11211
  Beta  occ. eigenvalues --  -10.10501 -10.09884 -10.09398 -10.09261 -10.08124
  Beta  occ. eigenvalues --   -1.03486  -0.96427  -0.95078  -0.94632  -0.85657
  Beta  occ. eigenvalues --   -0.83245  -0.82972  -0.76343  -0.71555  -0.65962
  Beta  occ. eigenvalues --   -0.63517  -0.63033  -0.62124  -0.60894  -0.56331
  Beta  occ. eigenvalues --   -0.55425  -0.51005  -0.50138  -0.47332  -0.46371
  Beta  occ. eigenvalues --   -0.43999  -0.43386  -0.41293  -0.40940  -0.40581
  Beta  occ. eigenvalues --   -0.39862  -0.39454  -0.38616  -0.37262  -0.36719
  Beta  occ. eigenvalues --   -0.35742  -0.35133  -0.34672  -0.33942  -0.33626
  Beta  occ. eigenvalues --   -0.32201  -0.32091  -0.31520  -0.30967  -0.30628
  Beta  occ. eigenvalues --   -0.30090  -0.28975  -0.28377  -0.28197  -0.27886
  Beta  occ. eigenvalues --   -0.27238  -0.26617  -0.25743  -0.25227  -0.21648
  Beta  occ. eigenvalues --   -0.19793  -0.17999  -0.17411  -0.16658  -0.16199
  Beta  occ. eigenvalues --   -0.15748
  Beta virt. eigenvalues --    0.05825   0.06099   0.06533   0.07003   0.07469
  Beta virt. eigenvalues --    0.07809   0.08432   0.08656   0.08894   0.09223
  Beta virt. eigenvalues --    0.09810   0.10446   0.10592   0.10891   0.11202

 Mulliken charges and spin densities:
               1          2
     1  C   -0.205297  -0.422822
     2  C    0.106657   0.416381
     3  C   -0.322968  -0.224860
     4  N   -0.038703   0.081382
     5  C    0.094502  -0.417758
     6  C    0.062635  -0.228511
     7  O   -0.299534   0.016070
     8  N   -0.020506   0.043127
     9  C    1.365540  -1.276397
    10  C    0.676255  -1.438038
    11  C   -1.155187   1.657799
    12  C    1.655695  -2.074956
    13  C   -2.454657   2.193123
    14  C   -0.030434  -0.380954
    15  O   -0.259010   0.012837
    16  O   -0.218514   0.007536
    17  C   -0.122467  -0.171072
    18  O   -0.320381   0.009565
    19  N   -0.403878   0.222936
    20  C   -0.933727   0.303393
    21  H    0.086013   0.022970
    22  H    0.033562   0.130535
    23  H    0.180934  -0.018099
    24  H    0.178532   0.063725
    25  H    0.184282  -0.011582
    26  H    0.187130   0.007871
    27  H   -0.033136   0.236319
    28  H   -0.224855   0.426411
    29  H    0.115809   0.026096
    30  H    0.340466  -0.013719
    31  H   -0.080033   0.295028
    32  H    0.098083   0.130719
    33  H   -0.459724   0.683531
    34  H   -0.257680   0.547454
    35  H   -0.278196   0.465584
    36  H   -0.553715   0.740903
    37  H    0.147812   0.165400
    38  H    0.109589   0.219224
    39  H   -0.371805   0.568530
    40  H   -1.299700   1.486703
    41  H    3.720612  -3.502385
 Sum of Mulliken charges =  -1.00000   1.00000

 Dipole moment (field-independent basis, Debye):
    X=             -0.4334    Y=              6.6831    Z=             -0.6355  Tot=              6.7272
 Quadrupole moment (field-independent basis, Debye-Ang):
   XX=           -207.3233   YY=           -179.6232   ZZ=           -159.8621
   XY=             -3.5568   XZ=             -6.6243   YZ=              0.4401

 Summary of Natural Population Analysis:

                                       Natural Population
                Natural  -----------------------------------------------
    Atom  No    Charge         Core      Valence    Rydberg      Total
 -----------------------------------------------------------------------
      C    1   -0.28843      0.99965     2.28232    0.00647     3.28843
      C    2   -0.15316      0.99955     2.14371    0.00990     3.15316
      C    3   -0.07933      0.99958     2.06967    0.01007     3.07933
      N    4   -0.27139      0.99963     2.76189    0.00986     3.77139
      C    5   -0.17955      0.99963     2.17258    0.00734     3.17955
      C    6    0.41470      0.99965     1.56257    0.02307     2.58530
      O    7   -0.33769      0.99988     3.33306    0.00475     4.33769
      N    8   -0.34762      0.99968     2.83813    0.00982     3.84762
      C    9   -0.03339      0.99956     2.01874    0.01509     3.03339
      C   10   -0.19178      0.99961     2.18216    0.01001     3.19178
      C   11   -0.17086      0.99954     2.15827    0.01306     3.17086
      C   12   -0.08244      0.99950     2.07274    0.01020     3.08244
      C   13   -0.08240      0.99949     2.07188    0.01103     3.08240
      C   14    0.41499      0.99968     1.56026    0.02507     2.58501
      O   15   -0.30133      0.99987     3.29537    0.00609     4.30133
      O   16   -0.35238      0.99987     3.34580    0.00671     4.35238
      C   17    0.34445      0.99963     1.63165    0.02428     2.65555
      O   18   -0.33219      0.99988     3.32663    0.00569     4.33219
      N   19   -0.31710      0.99967     2.80618    0.01125     3.81710
      C   20   -0.18211      0.99963     2.17274    0.00975     3.18211
      H   21    0.10219      0.00000     0.39660    0.00121     0.39781
      H   22    0.10144      0.00000     0.39781    0.00075     0.39856
      H   23    0.10402      0.00000     0.39527    0.00071     0.39598
      H   24    0.11142      0.00000     0.38749    0.00109     0.38858
      H   25    0.10006      0.00000     0.39883    0.00110     0.39994
      H   26    0.11449      0.00000     0.38436    0.00116     0.38551
      H   27    0.10839      0.00000     0.39036    0.00124     0.39161
      H   28    0.09771      0.00000     0.40061    0.00168     0.40229
      H   29    0.09683      0.00000     0.40237    0.00079     0.40317
      H   30    0.20066      0.00000     0.29639    0.00296     0.29934
      H   31    0.10642      0.00000     0.39025    0.00334     0.39358
      H   32    0.10669      0.00000     0.39144    0.00187     0.39331
      H   33    0.11202      0.00000     0.38612    0.00186     0.38798
      H   34    0.11920      0.00000     0.37937    0.00143     0.38080
      H   35    0.10393      0.00000     0.39497    0.00109     0.39607
      H   36    0.10599      0.00000     0.39259    0.00141     0.39401
      H   37    0.24354      0.00000     0.25288    0.00358     0.25646
      H   38    0.19653      0.00000     0.30114    0.00232     0.30347
      H   39    0.09468      0.00000     0.40386    0.00146     0.40532
      H   40    0.10852      0.00000     0.38698    0.00450     0.39148
      H   41    0.09427      0.00000     0.40212    0.00362     0.40573
 =======================================================================
   * Total *    0.00000     19.99318    55.73817    0.26865    76.00000

 Normal termination of Gaussian 16 at Sun Dec 13 22:40:24 2020.
