 Gaussian 16, Revision A.03,

 -----------------------------------------------------------
 # opt freq B3LYP/6-31G(d) empiricaldispersion=gd3bj scf=xqc
 -----------------------------------------------------------

 -------------------------------
 CID_105163519_JID_5889_neutraal
 -------------------------------
 Symbolic Z-matrix:
 Charge =  0 Multiplicity = 1

 SCF Done:  E(RB3LYP) =  -635.621461539     A.U. after   14 cycles
 SCF Done:  E(RB3LYP) =  -635.624809884     A.U. after   12 cycles
 SCF Done:  E(RB3LYP) =  -635.625707286     A.U. after   12 cycles
 SCF Done:  E(RB3LYP) =  -635.626078786     A.U. after   11 cycles
 SCF Done:  E(RB3LYP) =  -635.626369207     A.U. after   12 cycles
 SCF Done:  E(RB3LYP) =  -635.626552418     A.U. after   12 cycles
 SCF Done:  E(RB3LYP) =  -635.626889464     A.U. after   12 cycles
 SCF Done:  E(RB3LYP) =  -635.626942123     A.U. after   12 cycles
 SCF Done:  E(RB3LYP) =  -635.627291395     A.U. after   14 cycles
 SCF Done:  E(RB3LYP) =  -635.627254320     A.U. after   12 cycles
 SCF Done:  E(RB3LYP) =  -635.627399153     A.U. after   11 cycles
 SCF Done:  E(RB3LYP) =  -635.627403418     A.U. after    9 cycles
 SCF Done:  E(RB3LYP) =  -635.627403540     A.U. after    9 cycles
 SCF Done:  E(RB3LYP) =  -635.627404989     A.U. after    9 cycles
 SCF Done:  E(RB3LYP) =  -635.627404981     A.U. after    7 cycles
 Optimization completed.
    -- Stationary point found.
 Normal termination of Gaussian 16 at Thu Dec 10 17:31:11 2020.

 --------------------------------------------------------------------
 #N Geom=AllCheck Guess=TCheck SCRF=Check GenChk RB3LYP/6-31G(d) Freq
 --------------------------------------------------------------------

 Structure from the checkpoint file:  "JID_5889.chk"
 -------------------------------
 CID_105163519_JID_5889_neutraal
 -------------------------------
 Charge =  0 Multiplicity = 1

 SCF Done:  E(RB3LYP) =  -635.627404981     A.U. after    1 cycles

  Exact polarizability: 158.116  18.357 131.561 -15.443  13.393 118.333
 Approx polarizability: 232.431  34.851 206.876 -35.172  29.638 186.915

                      1                      2                      3
                      A                      A                      A
 Frequencies --     34.7621                51.2470                78.3386
 Red. masses --      3.5711                 3.9713                 3.4976
 Frc consts  --      0.0025                 0.0061                 0.0126
 IR Inten    --      0.6890                 0.4730                 0.1471

                      4                      5                      6
                      A                      A                      A
 Frequencies --    119.2760               154.0959               197.4874
 Red. masses --      3.8213                 3.3295                 4.1305
 Frc consts  --      0.0320                 0.0466                 0.0949
 IR Inten    --      0.5464                 0.1602                 4.3475

                      7                      8                      9
                      A                      A                      A
 Frequencies --    212.5337               223.2430               286.7224
 Red. masses --      1.3772                 1.9228                 3.5398
 Frc consts  --      0.0367                 0.0565                 0.1715
 IR Inten    --      0.8420                 0.9991                 3.9760

                     10                     11                     12
                      A                      A                      A
 Frequencies --    298.2711               311.2075               330.3815
 Red. masses --      1.8400                 1.3605                 2.4318
 Frc consts  --      0.0964                 0.0776                 0.1564
 IR Inten    --      6.9633                49.7788                 2.7440

                     13                     14                     15
                      A                      A                      A
 Frequencies --    363.2950               393.9651               432.8196
 Red. masses --      4.1002                 3.6371                 3.1909
 Frc consts  --      0.3188                 0.3326                 0.3522
 IR Inten    --      0.3966                 3.9652                 1.8909

                     16                     17                     18
                      A                      A                      A
 Frequencies --    439.4728               476.7138               493.8432
 Red. masses --      2.6677                 3.5044                 3.5972
 Frc consts  --      0.3036                 0.4692                 0.5169
 IR Inten    --      3.8468                 2.3302                 6.0983

                     19                     20                     21
                      A                      A                      A
 Frequencies --    525.3559               562.2374               606.9781
 Red. masses --      3.8881                 3.2854                 3.1575
 Frc consts  --      0.6323                 0.6119                 0.6854
 IR Inten    --      1.8908                 3.2904                 2.7028

                     22                     23                     24
                      A                      A                      A
 Frequencies --    656.7981               674.3519               723.8392
 Red. masses --      2.0034                 3.4814                 2.7585
 Frc consts  --      0.5092                 0.9328                 0.8516
 IR Inten    --      2.4227                 7.0414                 2.6214

                     25                     26                     27
                      A                      A                      A
 Frequencies --    755.1237               768.3863               772.5438
 Red. masses --      2.1264                 1.9764                 1.6266
 Frc consts  --      0.7144                 0.6875                 0.5720
 IR Inten    --     13.4521                 7.2568                24.9647

                     28                     29                     30
                      A                      A                      A
 Frequencies --    802.4713               865.7410               880.8762
 Red. masses --      3.1718                 2.8285                 1.3794
 Frc consts  --      1.2034                 1.2490                 0.6306
 IR Inten    --      3.3869                 1.8657                 3.3707

                     31                     32                     33
                      A                      A                      A
 Frequencies --    914.9816               920.8655               926.6462
 Red. masses --      2.1553                 2.2359                 1.4606
 Frc consts  --      1.0631                 1.1171                 0.7389
 IR Inten    --     36.8568                55.2243                11.3695

                     34                     35                     36
                      A                      A                      A
 Frequencies --    945.4174               954.5857               981.0305
 Red. masses --      1.3964                 1.8992                 1.8616
 Frc consts  --      0.7354                 1.0197                 1.0556
 IR Inten    --      0.4401               164.5014                 1.7689

                     37                     38                     39
                      A                      A                      A
 Frequencies --    981.5982               997.7199              1031.5224
 Red. masses --      1.2594                 2.0313                 2.7374
 Frc consts  --      0.7150                 1.1913                 1.7161
 IR Inten    --      0.0657                 4.0403                75.5589

                     40                     41                     42
                      A                      A                      A
 Frequencies --   1045.6141              1071.5314              1089.1277
 Red. masses --      1.5114                 2.3579                 1.5244
 Frc consts  --      0.9736                 1.5951                 1.0654
 IR Inten    --     25.8548                 5.4336                 2.1198

                     43                     44                     45
                      A                      A                      A
 Frequencies --   1096.3223              1127.2577              1146.0344
 Red. masses --      1.8948                 1.9545                 4.2209
 Frc consts  --      1.3418                 1.4633                 3.2663
 IR Inten    --      5.9171                21.9785                43.1681

                     46                     47                     48
                      A                      A                      A
 Frequencies --   1148.0321              1195.5603              1213.5347
 Red. masses --      1.8832                 1.1004                 1.6149
 Frc consts  --      1.4624                 0.9267                 1.4012
 IR Inten    --     29.8915                 0.1474                 0.7530

                     49                     50                     51
                      A                      A                      A
 Frequencies --   1223.2416              1228.4804              1244.9720
 Red. masses --      2.2525                 1.5317                 1.7358
 Frc consts  --      1.9858                 1.3620                 1.5852
 IR Inten    --      2.2647                14.0861                 0.8581

                     52                     53                     54
                      A                      A                      A
 Frequencies --   1264.3306              1301.4114              1318.5645
 Red. masses --      1.3715                 1.6499                 1.7935
 Frc consts  --      1.2917                 1.6464                 1.8372
 IR Inten    --      2.9534                 2.7405                 7.8720

                     55                     56                     57
                      A                      A                      A
 Frequencies --   1320.7286              1351.0647              1357.0095
 Red. masses --      1.4653                 1.4377                 2.3691
 Frc consts  --      1.5059                 1.5462                 2.5704
 IR Inten    --     13.1275                13.9451                 7.1329

                     58                     59                     60
                      A                      A                      A
 Frequencies --   1382.5266              1388.0441              1424.4268
 Red. masses --      1.3840                 1.8023                 1.2491
 Frc consts  --      1.5586                 2.0459                 1.4932
 IR Inten    --      2.4574                 7.3061                10.6842

                     61                     62                     63
                      A                      A                      A
 Frequencies --   1429.6147              1435.9074              1482.9947
 Red. masses --      1.3567                 1.3953                 1.2241
 Frc consts  --      1.6337                 1.6950                 1.5862
 IR Inten    --     13.3004                 1.7255                 1.8947

                     64                     65                     66
                      A                      A                      A
 Frequencies --   1498.9308              1503.6967              1506.4759
 Red. masses --      1.2282                 1.8143                 1.0994
 Frc consts  --      1.6259                 2.4171                 1.4700
 IR Inten    --      1.7220                12.2535                 2.4911

                     67                     68                     69
                      A                      A                      A
 Frequencies --   1532.1997              1540.7118              1545.7406
 Red. masses --      1.1519                 1.0576                 2.2269
 Frc consts  --      1.5932                 1.4791                 3.1349
 IR Inten    --      1.3354                10.7995                10.9605

                     70                     71                     72
                      A                      A                      A
 Frequencies --   1644.2572              1669.3861              1701.6889
 Red. masses --      6.4059                 5.9006                 1.0863
 Frc consts  --     10.2039                 9.6885                 1.8534
 IR Inten    --      1.1000                 1.5354                26.2377

                     73                     74                     75
                      A                      A                      A
 Frequencies --   1735.4426              2953.9312              3006.5902
 Red. masses --      4.9813                 1.0830                 1.0709
 Frc consts  --      8.8391                 5.5678                 5.7035
 IR Inten    --      7.4344                69.7232                68.5280

                     76                     77                     78
                      A                      A                      A
 Frequencies --   3043.9096              3051.2703              3075.6286
 Red. masses --      1.0601                 1.0349                 1.0853
 Frc consts  --      5.7872                 5.6770                 6.0487
 IR Inten    --     19.3842                22.2992                18.5563

                     79                     80                     81
                      A                      A                      A
 Frequencies --   3086.0381              3110.4167              3112.8661
 Red. masses --      1.1024                 1.0999                 1.0954
 Frc consts  --      6.1856                 6.2699                 6.2538
 IR Inten    --     33.5906                11.8469                46.6839

                     82                     83                     84
                      A                      A                      A
 Frequencies --   3130.0238              3160.6356              3171.4768
 Red. masses --      1.1031                 1.0607                 1.0868
 Frc consts  --      6.3673                 6.2427                 6.4403
 IR Inten    --     20.4596                 9.5733                13.8759

                     85                     86                     87
                      A                      A                      A
 Frequencies --   3177.0061              3193.6091              3208.9313
 Red. masses --      1.0882                 1.0913                 1.0972
 Frc consts  --      6.4715                 6.5575                 6.6565
 IR Inten    --      3.7000                24.9606                28.8291

                     88                     89                     90
                      A                      A                      A
 Frequencies --   3238.4340              3460.3887              3544.8048
 Red. masses --      1.1154                 1.0497                 1.0915
 Frc consts  --      6.8918                 7.4053                 8.0806
 IR Inten    --     16.8590                 1.3628                 1.3481

 - Thermochemistry -
 -------------------
 Temperature   298.150 Kelvin.  Pressure   1.00000 Atm.
 Atom     1 has atomic number  6 and mass  12.00000

 Molecular mass:   203.13101 amu.
 Principal axes and moments of inertia in atomic units:
                           1         2         3
     Eigenvalues --  1909.776293548.737853993.09715
           X            0.99999   0.00475   0.00271
           Y           -0.00484   0.99931   0.03694
           Z           -0.00253  -0.03696   0.99931
 This molecule is an asymmetric top.
 Rotational symmetry number  1.
 Warning -- assumption of classical behavior for rotation
           may cause significant error
 Rotational temperatures (Kelvin)      0.04535     0.02441     0.02169
 Rotational constants (GHZ):           0.94500     0.50856     0.45197
 Zero-point vibrational energy     729946.8 (Joules/Mol)
                                  174.46146 (Kcal/Mol)
 Warning -- explicit consideration of  21 degrees of freedom as
           vibrations may cause significant error
 Vibrational temperatures:     50.01    73.73   112.71   171.61   221.71
          (Kelvin)            284.14   305.79   321.20   412.53   429.15
                              447.76   475.35   522.70   566.83   622.73
                              632.30   685.88   710.53   755.87   808.93
                              873.31   944.99   970.24  1041.44  1086.45
                             1105.54  1111.52  1154.58  1245.61  1267.38
                             1316.45  1324.92  1333.24  1360.24  1373.44
                             1411.48  1412.30  1435.50  1484.13  1504.41
                             1541.69  1567.01  1577.36  1621.87  1648.89
                             1651.76  1720.14  1746.01  1759.97  1767.51
                             1791.24  1819.09  1872.44  1897.12  1900.23
                             1943.88  1952.43  1989.15  1997.09  2049.43
                             2056.90  2065.95  2133.70  2156.63  2163.48
                             2167.48  2204.49  2216.74  2223.98  2365.72
                             2401.87  2448.35  2496.91  4250.05  4325.81
                             4379.51  4390.10  4425.14  4440.12  4475.20
                             4478.72  4503.41  4547.45  4563.05  4571.00
                             4594.89  4616.94  4659.38  4978.73  5100.18

 Zero-point correction=                           0.278022 (Hartree/Particle)
 Thermal correction to Energy=                    0.291776
 Thermal correction to Enthalpy=                  0.292720
 Thermal correction to Gibbs Free Energy=         0.237606
 Sum of electronic and zero-point Energies=           -635.349383
 Sum of electronic and thermal Energies=              -635.335629
 Sum of electronic and thermal Enthalpies=            -635.334685
 Sum of electronic and thermal Free Energies=         -635.389799

                     E (Thermal)             CV                S
                      KCal/Mol        Cal/Mol-Kelvin    Cal/Mol-Kelvin
 Total                  183.092             54.677            115.997
 Electronic               0.000              0.000              0.000
 Translational            0.889              2.981             41.830
 Rotational               0.889              2.981             31.671
 Vibrational            181.314             48.716             42.496
 Vibration     1          0.594              1.983              5.537
 Vibration     2          0.596              1.977              4.769
 Vibration     3          0.600              1.964              3.932
 Vibration     4          0.609              1.933              3.112
 Vibration     5          0.620              1.898              2.621
 Vibration     6          0.637              1.843              2.156
 Vibration     7          0.644              1.822              2.022
 Vibration     8          0.649              1.806              1.933
 Vibration     9          0.684              1.698              1.493
 Vibration    10          0.691              1.677              1.427
 Vibration    11          0.700              1.652              1.356
 Vibration    12          0.713              1.615              1.258
 Vibration    13          0.737              1.548              1.108
 Vibration    14          0.761              1.483              0.985
 Vibration    15          0.794              1.399              0.849
 Vibration    16          0.800              1.384              0.828
 Vibration    17          0.833              1.302              0.719
 Vibration    18          0.849              1.264              0.674
 Vibration    19          0.880              1.194              0.598
 Vibration    20          0.918              1.113              0.519
 Vibration    21          0.966              1.017              0.438

 Optimization completed.
    -- Stationary point found.
 Normal termination of Gaussian 16 at Thu Dec 10 17:43:03 2020.

 ----------------------------------------------------------------------
 # B3LYP/6-311++G(d,p) empiricaldispersion=gd3bj scf=xqc pop=npa geom=c
 heck
 ----------------------------------------------------------------------

 ---------------------------------------
 CID_105163519_JID_5889_Energie_neutraal
 ---------------------------------------
 Structure from the checkpoint file:  "JID_5889.chk"
 Charge =  0 Multiplicity = 1

 SCF Done:  E(RB3LYP) =  -635.804395864     A.U. after   16 cycles
 Normal termination of Gaussian 16 at Thu Dec 10 17:47:52 2020.

 ----------------------------------------------------------------------
 # B3LYP/6-311++G(d,p) empiricaldispersion=gd3bj scf=xqc pop=npa geom=c
 heck
 ----------------------------------------------------------------------

 -------------------------------------
 CID_105163519_JID_5889_Energie_kation
 -------------------------------------
 Structure from the checkpoint file:  "JID_5889.chk"
 Charge =  1 Multiplicity = 2

 SCF Done:  E(UB3LYP) =  -635.509618993     A.U. after   25 cycles
 Normal termination of Gaussian 16 at Thu Dec 10 17:59:24 2020.
 Gaussian 16:  ES64L-G16RevA.03 25-Dec-2016

 ----------------------------------------------------------------------
 # B3LYP/6-311++G(d,p) empiricaldispersion=gd3bj scf=xqc pop=npa geom=c
 heck
 ----------------------------------------------------------------------

 ------------------------------------
 CID_105163519_JID_5889_Energie_anion
 ------------------------------------
 Structure from the checkpoint file:  "JID_5889.chk"
 Charge = -1 Multiplicity = 2

                         Standard orientation:
 ---------------------------------------------------------------------
 Center     Atomic      Atomic             Coordinates (Angstroms)
 Number     Number       Type             X           Y           Z
 ---------------------------------------------------------------------
      1          6           0        2.739673   -0.080105    1.557740
      2          6           0        1.670440   -0.936338    0.930827
      3          6           0        0.821663   -1.656870    1.668912
      4          6           0        1.575636   -0.949397   -0.590928
      5          6           0        0.580696    0.134161   -1.116357
      6          6           0       -0.830337   -0.080982   -0.615807
      7          6           0       -1.549895   -1.195901   -1.059789
      8          6           0       -2.824472   -1.464060   -0.567913
      9          6           0       -3.402172   -0.599890    0.365197
     10          6           0       -2.702953    0.529161    0.784658
     11          6           0       -1.417083    0.796655    0.305303
     12          6           0       -0.654560    2.037842    0.694892
     13          6           0        0.248637    2.441049   -0.467338
     14          8           0        1.158832    1.392919   -0.767207
     15          7           0        2.905102   -0.817273   -1.197234
     16          1           0        2.694216   -0.132908    2.649718
     17          1           0        2.632602    0.966324    1.251341
     18          1           0        3.732803   -0.412712    1.234323
     19          1           0        0.054056   -2.281100    1.220906
     20          1           0        0.859619   -1.637641    2.755247
     21          1           0        1.171640   -1.919134   -0.900663
     22          1           0        0.573868    0.052039   -2.217938
     23          1           0       -1.103562   -1.863803   -1.793313
     24          1           0       -3.367799   -2.338334   -0.914987
     25          1           0       -4.398714   -0.797061    0.749960
     26          1           0       -3.157756    1.219476    1.491428
     27          1           0       -0.027542    1.848502    1.576131
     28          1           0       -1.343669    2.852244    0.949646
     29          1           0        0.870017    3.305844   -0.218816
     30          1           0       -0.359815    2.692669   -1.350269
     31          1           0        2.828232   -0.981667   -2.200514
     32          1           0        3.203784    0.152874   -1.100286
 ---------------------------------------------------------------------

 SCF Done:  E(UB3LYP) =  -635.789532630     A.U. after   33 cycles
 SCF Done:  E(UB3LYP) =  -635.789532630     a.u. after    1 cycles

 The electronic state is 2-A.
 Alpha  occ. eigenvalues --  -19.02902 -14.19481 -10.12814 -10.12151 -10.10719
 Alpha  occ. eigenvalues --  -10.08311 -10.08274 -10.07958 -10.07556 -10.07463
 Alpha  occ. eigenvalues --  -10.07392 -10.07375 -10.07325 -10.06446 -10.05777
 Alpha  occ. eigenvalues --   -0.94519  -0.79584  -0.76403  -0.69942  -0.69108
 Alpha  occ. eigenvalues --   -0.67327  -0.63781  -0.59584  -0.58083  -0.54449
 Alpha  occ. eigenvalues --   -0.52966  -0.50367  -0.46008  -0.43349  -0.42233
 Alpha  occ. eigenvalues --   -0.39791  -0.39542  -0.38288  -0.36374  -0.36230
 Alpha  occ. eigenvalues --   -0.34932  -0.33692  -0.32537  -0.32008  -0.30736
 Alpha  occ. eigenvalues --   -0.30615  -0.30486  -0.28992  -0.27905  -0.27365
 Alpha  occ. eigenvalues --   -0.26739  -0.25731  -0.24262  -0.23498  -0.21104
 Alpha  occ. eigenvalues --   -0.17322  -0.16460  -0.15350  -0.14618  -0.13430
 Alpha  occ. eigenvalues --    0.04421
 Alpha virt. eigenvalues --    0.06363   0.06491   0.07299   0.08129   0.08254
 Alpha virt. eigenvalues --    0.08429   0.08661   0.09385   0.09940   0.10399
 Alpha virt. eigenvalues --    0.10638   0.11123   0.11397   0.12252   0.12941

  Beta  occ. eigenvalues --  -19.02894 -14.19456 -10.12799 -10.12132 -10.10713
  Beta  occ. eigenvalues --  -10.08311 -10.08276 -10.07928 -10.07537 -10.07451
  Beta  occ. eigenvalues --  -10.07370 -10.07356 -10.07301 -10.06434 -10.05772
  Beta  occ. eigenvalues --   -0.94502  -0.79550  -0.76359  -0.69916  -0.69076
  Beta  occ. eigenvalues --   -0.67273  -0.63738  -0.59552  -0.58052  -0.54408
  Beta  occ. eigenvalues --   -0.52911  -0.50310  -0.45960  -0.43325  -0.42184
  Beta  occ. eigenvalues --   -0.39755  -0.39510  -0.38241  -0.36331  -0.36196
  Beta  occ. eigenvalues --   -0.34882  -0.33653  -0.32509  -0.31984  -0.30696
  Beta  occ. eigenvalues --   -0.30585  -0.30445  -0.28959  -0.27881  -0.27326
  Beta  occ. eigenvalues --   -0.26719  -0.25680  -0.24222  -0.23466  -0.21075
  Beta  occ. eigenvalues --   -0.17256  -0.16424  -0.15300  -0.14576  -0.13366
  Beta virt. eigenvalues --    0.06601   0.07266   0.07399   0.07602   0.08340
  Beta virt. eigenvalues --    0.08525   0.08969   0.09154   0.09668   0.10099
  Beta virt. eigenvalues --    0.10566   0.11135   0.11634   0.11703   0.12535

 Mulliken charges and spin densities:
               1          2
     1  C   -0.113472  -0.512269
     2  C   -0.054398   0.824776
     3  C   -0.322062  -0.615178
     4  C    0.638109  -1.337381
     5  C    0.888442  -0.889403
     6  C   -0.753759   1.267441
     7  C   -0.270134  -0.016289
     8  C    0.709550  -1.072851
     9  C    1.138099  -1.442270
    10  C   -0.166801   0.150634
    11  C   -0.610071   0.726070
    12  C    0.230265  -0.548456
    13  C    0.351406  -0.838800
    14  O   -0.149466   0.031931
    15  N   -0.381354   0.109243
    16  H   -0.068063   0.193640
    17  H    0.151917   0.034258
    18  H    0.132281   0.041745
    19  H    0.185701  -0.046613
    20  H    0.010653   0.097023
    21  H    0.190731   0.043453
    22  H   -0.388594   0.634448
    23  H   -0.567666   0.726724
    24  H   -0.461451   0.635368
    25  H   -0.358495   0.518656
    26  H   -0.437346   0.615497
    27  H    0.214229  -0.040147
    28  H   -0.402401   0.563960
    29  H   -0.569010   0.746506
    30  H    0.148588  -0.011212
    31  H   -0.065468   0.309014
    32  H    0.150039   0.100482
 Sum of Mulliken charges =  -1.00000   1.00000

 Dipole moment (field-independent basis, Debye):
    X=              2.3568    Y=             -0.0328    Z=              2.5357  Tot=              3.4620
 Quadrupole moment (field-independent basis, Debye-Ang):
   XX=           -156.1938   YY=           -139.9112   ZZ=           -130.7957
   XY=             -0.9175   XZ=              4.4045   YZ=             -6.3749

 Summary of Natural Population Analysis:

                                       Natural Population
                Natural  -----------------------------------------------
    Atom  No    Charge         Core      Valence    Rydberg      Total
 -----------------------------------------------------------------------
      C    1   -0.30561      0.99961     2.30047    0.00554     3.30561
      C    2    0.00405      0.99950     1.98477    0.01167     2.99595
      C    3   -0.19625      0.99948     2.19069    0.00607     3.19625
      C    4   -0.02713      0.99951     2.01280    0.01482     3.02713
      C    5    0.06338      0.99947     1.91983    0.01731     2.93662
      C    6   -0.02736      0.99945     2.01589    0.01203     3.02736
      C    7   -0.09516      0.99951     2.08500    0.01065     3.09516
      C    8   -0.10197      0.99956     2.09230    0.01011     3.10197
      C    9   -0.09718      0.99956     2.08754    0.01008     3.09718
      C   10   -0.09527      0.99951     2.08574    0.01002     3.09527
      C   11   -0.01243      0.99946     2.00188    0.01110     3.01243
      C   12   -0.20999      0.99959     2.20159    0.00881     3.20999
      C   13   -0.00155      0.99958     1.98992    0.01206     3.00155
      O   14   -0.31106      0.99988     3.30057    0.01061     4.31106
      N   15   -0.42023      0.99977     2.91059    0.00987     3.92023
      H   16    0.09789      0.00000     0.40101    0.00110     0.40211
      H   17    0.10912      0.00000     0.38927    0.00162     0.39088
      H   18    0.10775      0.00000     0.39098    0.00127     0.39225
      H   19    0.09751      0.00000     0.40125    0.00124     0.40249
      H   20    0.08957      0.00000     0.40932    0.00111     0.41043
      H   21    0.09938      0.00000     0.39882    0.00180     0.40062
      H   22    0.09082      0.00000     0.40654    0.00264     0.40918
      H   23    0.10199      0.00000     0.39613    0.00188     0.39801
      H   24    0.10166      0.00000     0.39698    0.00137     0.39834
      H   25    0.10074      0.00000     0.39799    0.00127     0.39926
      H   26    0.10020      0.00000     0.39861    0.00119     0.39980
      H   27    0.10544      0.00000     0.39309    0.00147     0.39456
      H   28    0.10519      0.00000     0.39326    0.00155     0.39481
      H   29    0.09206      0.00000     0.40646    0.00149     0.40794
      H   30    0.07989      0.00000     0.41865    0.00146     0.42011
      H   31    0.17678      0.00000     0.32126    0.00196     0.32322
      H   32    0.17777      0.00000     0.31999    0.00224     0.32223
 =======================================================================
   * Total *    0.00000     14.99343    39.81919    0.18738    55.00000

 Normal termination of Gaussian 16 at Thu Dec 10 18:14:00 2020.
