 Gaussian 16, Revision A.03,

 -----------------------------------------------------------
 # opt freq B3LYP/6-31G(d) empiricaldispersion=gd3bj scf=xqc
 -----------------------------------------------------------

 -------------------------------
 CID_65167845_JID_10010_neutraal
 -------------------------------
 Symbolic Z-matrix:
 Charge =  0 Multiplicity = 1

 SCF Done:  E(RB3LYP) =  -903.972862651     A.U. after   14 cycles
 SCF Done:  E(RB3LYP) =  -903.988150041     A.U. after   12 cycles
 SCF Done:  E(RB3LYP) =  -903.989366039     A.U. after   11 cycles
 SCF Done:  E(RB3LYP) =  -903.989662525     A.U. after   11 cycles
 SCF Done:  E(RB3LYP) =  -903.989764073     A.U. after   11 cycles
 SCF Done:  E(RB3LYP) =  -903.989916670     A.U. after   11 cycles
 SCF Done:  E(RB3LYP) =  -903.990007842     A.U. after   12 cycles
 SCF Done:  E(RB3LYP) =  -903.989969465     A.U. after    9 cycles
 SCF Done:  E(RB3LYP) =  -903.990676533     A.U. after   11 cycles
 SCF Done:  E(RB3LYP) =  -903.990687068     A.U. after   14 cycles
 SCF Done:  E(RB3LYP) =  -903.995943189     A.U. after   10 cycles
 SCF Done:  E(RB3LYP) =  -903.995943474     A.U. after    9 cycles
 SCF Done:  E(RB3LYP) =  -903.995943732     A.U. after    7 cycles
 SCF Done:  E(RB3LYP) =  -903.995946253     A.U. after    9 cycles
 SCF Done:  E(RB3LYP) =  -903.995946371     A.U. after    7 cycles
 Optimization completed.
    -- Stationary point found.
 Normal termination of Gaussian 16 at Sat Dec 12 15:15:00 2020.

 --------------------------------------------------------------------
 #N Geom=AllCheck Guess=TCheck SCRF=Check GenChk RB3LYP/6-31G(d) Freq
 --------------------------------------------------------------------

 Structure from the checkpoint file:  "JID_10010.chk"
 -------------------------------
 CID_65167845_JID_10010_neutraal
 -------------------------------
 Charge =  0 Multiplicity = 1

 SCF Done:  E(RB3LYP) =  -903.995946371     A.U. after    1 cycles

  Exact polarizability: 244.801 -10.318 189.955  -1.317   1.811 118.843
 Approx polarizability: 311.327 -13.994 293.636  -0.371   3.200 182.042

                      1                      2                      3
                      A                      A                      A
 Frequencies --     27.4832                28.8151                35.9793
 Red. masses --      3.8373                 4.1562                 3.7437
 Frc consts  --      0.0017                 0.0020                 0.0029
 IR Inten    --      0.3010                 0.3007                 0.0803

                      4                      5                      6
                      A                      A                      A
 Frequencies --     50.9474                80.6197               103.9339
 Red. masses --      2.9502                 3.8744                 2.4445
 Frc consts  --      0.0045                 0.0148                 0.0156
 IR Inten    --      0.1575                 0.2159                 5.5409

                      7                      8                      9
                      A                      A                      A
 Frequencies --    114.7358               120.5288               143.1895
 Red. masses --      1.7580                 2.5837                 3.3321
 Frc consts  --      0.0136                 0.0221                 0.0403
 IR Inten    --      0.4841                 5.9312                 0.6393

                     10                     11                     12
                      A                      A                      A
 Frequencies --    156.1460               162.5919               195.3248
 Red. masses --      1.9292                 3.6729                 1.6466
 Frc consts  --      0.0277                 0.0572                 0.0370
 IR Inten    --      0.2443                 0.5071                 0.9515

                     13                     14                     15
                      A                      A                      A
 Frequencies --    220.4523               229.6109               236.0580
 Red. masses --      1.9373                 2.9620                 2.4299
 Frc consts  --      0.0555                 0.0920                 0.0798
 IR Inten    --      0.3496                 2.1790                 0.1203

                     16                     17                     18
                      A                      A                      A
 Frequencies --    245.0523               253.0777               309.8109
 Red. masses --      2.0260                 1.8946                 2.5354
 Frc consts  --      0.0717                 0.0715                 0.1434
 IR Inten    --      2.2727                 1.6389                 4.4855

                     19                     20                     21
                      A                      A                      A
 Frequencies --    324.5922               332.5252               358.6177
 Red. masses --      2.4819                 2.7404                 3.7431
 Frc consts  --      0.1541                 0.1785                 0.2836
 IR Inten    --      0.3910                 7.6601                 1.7669

                     22                     23                     24
                      A                      A                      A
 Frequencies --    412.7598               423.2011               437.9938
 Red. masses --      2.0969                 3.2111                 3.3555
 Frc consts  --      0.2105                 0.3388                 0.3793
 IR Inten    --     40.8994                15.2179                13.4811

                     25                     26                     27
                      A                      A                      A
 Frequencies --    450.1922               463.4665               480.2552
 Red. masses --      3.1855                 2.6098                 2.4300
 Frc consts  --      0.3804                 0.3303                 0.3302
 IR Inten    --     21.9383                26.2862                 6.6419

                     28                     29                     30
                      A                      A                      A
 Frequencies --    508.9450               556.0858               582.4217
 Red. masses --      3.0863                 2.5371                 3.8655
 Frc consts  --      0.4710                 0.4622                 0.7725
 IR Inten    --     12.1301                29.5944                 8.0222

                     31                     32                     33
                      A                      A                      A
 Frequencies --    623.7909               643.6205               648.0326
 Red. masses --      3.5835                 4.8912                 3.1480
 Frc consts  --      0.8216                 1.1938                 0.7789
 IR Inten    --      5.0765                 1.3222                 4.9161

                     34                     35                     36
                      A                      A                      A
 Frequencies --    698.8877               733.3613               791.3945
 Red. masses --      5.1118                 7.9982                 1.6804
 Frc consts  --      1.4711                 2.5344                 0.6201
 IR Inten    --      1.2571                 2.0640                12.6649

                     37                     38                     39
                      A                      A                      A
 Frequencies --    793.1744               805.4532               806.1075
 Red. masses --      1.5202                 3.5558                 1.1987
 Frc consts  --      0.5635                 1.3591                 0.4589
 IR Inten    --     18.6849                 9.0440                 5.0973

                     40                     41                     42
                      A                      A                      A
 Frequencies --    809.1269               829.6619               838.5246
 Red. masses --      2.0572                 1.4737                 5.7668
 Frc consts  --      0.7935                 0.5977                 2.3890
 IR Inten    --     11.2410                19.0720                23.6314

                     43                     44                     45
                      A                      A                      A
 Frequencies --    852.7485               898.6633               901.6156
 Red. masses --      1.9664                 2.2213                 1.2625
 Frc consts  --      0.8425                 1.0570                 0.6047
 IR Inten    --      1.1139                 2.9458                 2.6712

                     46                     47                     48
                      A                      A                      A
 Frequencies --    922.4663               942.9448               956.4585
 Red. masses --      2.0251                 2.3080                 2.8146
 Frc consts  --      1.0153                 1.2091                 1.5170
 IR Inten    --      1.7685                 0.3817                17.7422

                     49                     50                     51
                      A                      A                      A
 Frequencies --    972.9126               988.8065              1006.2296
 Red. masses --      4.1346                 2.4709                 2.5227
 Frc consts  --      2.3059                 1.4234                 1.5049
 IR Inten    --     23.5449                29.4275                14.3574

                     52                     53                     54
                      A                      A                      A
 Frequencies --   1022.9682              1048.6189              1057.1916
 Red. masses --      1.7774                 1.7188                 2.8745
 Frc consts  --      1.0959                 1.1136                 1.8928
 IR Inten    --      8.7655                 6.0197                21.4135

                     55                     56                     57
                      A                      A                      A
 Frequencies --   1076.4533              1077.6677              1105.4375
 Red. masses --      2.4906                 2.7940                 2.3700
 Frc consts  --      1.7004                 1.9118                 1.7063
 IR Inten    --     44.6641                82.8896                53.9507

                     58                     59                     60
                      A                      A                      A
 Frequencies --   1124.6018              1141.7006              1149.7109
 Red. masses --      2.5952                 2.4692                 1.9659
 Frc consts  --      1.9338                 1.8963                 1.5311
 IR Inten    --     24.7546               109.0731                 4.1680

                     61                     62                     63
                      A                      A                      A
 Frequencies --   1158.3121              1173.6820              1183.5514
 Red. masses --      1.6482                 1.6940                 1.8561
 Frc consts  --      1.3029                 1.3749                 1.5319
 IR Inten    --      9.1361                39.2037                 8.9501

                     64                     65                     66
                      A                      A                      A
 Frequencies --   1196.4124              1212.5445              1220.1654
 Red. masses --      1.8396                 1.9204                 1.1550
 Frc consts  --      1.5515                 1.6635                 1.0131
 IR Inten    --     26.5747                21.9262                14.5686

                     67                     68                     69
                      A                      A                      A
 Frequencies --   1228.0160              1236.6300              1250.0652
 Red. masses --      2.1225                 1.8937                 2.2038
 Frc consts  --      1.8859                 1.7062                 2.0291
 IR Inten    --     38.4369                48.9620               273.7135

                     70                     71                     72
                      A                      A                      A
 Frequencies --   1270.5255              1286.5002              1304.2135
 Red. masses --      1.7300                 1.4293                 1.5489
 Frc consts  --      1.6454                 1.3938                 1.5523
 IR Inten    --     30.7044                 6.0122                13.7686

                     73                     74                     75
                      A                      A                      A
 Frequencies --   1313.4663              1342.5985              1348.5560
 Red. masses --      1.4278                 1.3265                 2.4177
 Frc consts  --      1.4513                 1.4088                 2.5905
 IR Inten    --     36.2218                46.1572                38.2293

                     76                     77                     78
                      A                      A                      A
 Frequencies --   1360.8252              1377.6907              1389.9135
 Red. masses --      1.5082                 2.9027                 1.4640
 Frc consts  --      1.6455                 3.2460                 1.6663
 IR Inten    --      6.9846                 1.3445                 2.0341

                     79                     80                     81
                      A                      A                      A
 Frequencies --   1396.0110              1407.7481              1425.4156
 Red. masses --      1.2588                 1.4975                 1.2576
 Frc consts  --      1.4454                 1.7486                 1.5055
 IR Inten    --     63.2420                57.5125                 1.4594

                     82                     83                     84
                      A                      A                      A
 Frequencies --   1438.3179              1440.5002              1445.2690
 Red. masses --      1.2739                 1.2953                 1.2371
 Frc consts  --      1.5527                 1.5836                 1.5225
 IR Inten    --     13.5890                22.7471                 5.7567

                     85                     86                     87
                      A                      A                      A
 Frequencies --   1446.0873              1496.2362              1499.7062
 Red. masses --      1.3834                 2.4124                 1.2404
 Frc consts  --      1.7045                 3.1821                 1.6438
 IR Inten    --      4.7159                28.6383                 3.7021

                     88                     89                     90
                      A                      A                      A
 Frequencies --   1510.2548              1518.9039              1519.9641
 Red. masses --      1.0753                 1.0513                 1.0517
 Frc consts  --      1.4451                 1.4291                 1.4316
 IR Inten    --      2.5337                 6.3516                 3.1761

                     91                     92                     93
                      A                      A                      A
 Frequencies --   1522.6825              1527.1628              1535.1911
 Red. masses --      1.0578                 1.0633                 1.3459
 Frc consts  --      1.4450                 1.4611                 1.8689
 IR Inten    --      0.0768                10.6024                38.3126

                     94                     95                     96
                      A                      A                      A
 Frequencies --   1536.3112              1541.0062              1544.8471
 Red. masses --      1.3316                 1.0798                 1.0642
 Frc consts  --      1.8518                 1.5108                 1.4964
 IR Inten    --     50.2955                 2.0798                13.2356

                     97                     98                     99
                      A                      A                      A
 Frequencies --   1548.2112              1572.0427              1669.9465
 Red. masses --      2.7221                 1.2007                 6.8258
 Frc consts  --      3.8443                 1.7483                11.2152
 IR Inten    --    402.5748                 6.6837                21.8444

                    100                    101                    102
                      A                      A                      A
 Frequencies --   1692.5976              2998.0950              3008.7019
 Red. masses --      7.6042                 1.0839                 1.0698
 Frc consts  --     12.8354                 5.7403                 5.7055
 IR Inten    --     78.0269                31.5122               157.7460

                    103                    104                    105
                      A                      A                      A
 Frequencies --   3014.3933              3027.6697              3034.9698
 Red. masses --      1.0687                 1.0670                 1.0809
 Frc consts  --      5.7215                 5.7626                 5.8663
 IR Inten    --     48.1093                42.6152                25.1278

                    106                    107                    108
                      A                      A                      A
 Frequencies --   3047.4396              3055.1947              3056.7375
 Red. masses --      1.0438                 1.0361                 1.0390
 Frc consts  --      5.7113                 5.6984                 5.7201
 IR Inten    --     30.0193                 8.0095                57.8861

                    109                    110                    111
                      A                      A                      A
 Frequencies --   3076.1725              3084.1986              3090.9013
 Red. masses --      1.0895                 1.0646                 1.0961
 Frc consts  --      6.0742                 5.9664                 6.1698
 IR Inten    --      3.5212                26.6970                19.9486

                    112                    113                    114
                      A                      A                      A
 Frequencies --   3116.5960              3117.6432              3122.3198
 Red. masses --      1.0975                 1.1004                 1.1009
 Frc consts  --      6.2805                 6.3015                 6.3232
 IR Inten    --     19.9271                62.5558                35.7123

                    115                    116                    117
                      A                      A                      A
 Frequencies --   3124.7147              3129.4388              3134.0121
 Red. masses --      1.1008                 1.1003                 1.1038
 Frc consts  --      6.3327                 6.3486                 6.3875
 IR Inten    --     59.8153                28.8941                40.1371

                    118                    119                    120
                      A                      A                      A
 Frequencies --   3137.3534              3150.7429              3184.2166
 Red. masses --      1.1083                 1.1001                 1.0888
 Frc consts  --      6.4272                 6.4342                 6.5041
 IR Inten    --     23.8063                19.2742                14.5763

                    121                    122                    123
                      A                      A                      A
 Frequencies --   3224.0223              3254.5379              3583.2015
 Red. masses --      1.0933                 1.0904                 1.0751
 Frc consts  --      6.6953                 6.8050                 8.1326
 IR Inten    --      9.6022                 2.5075                 9.7434

 - Thermochemistry -
 -------------------
 Temperature   298.150 Kelvin.  Pressure   1.00000 Atm.
 Atom     1 has atomic number  6 and mass  12.00000

 Molecular mass:   277.16779 amu.
 Principal axes and moments of inertia in atomic units:
                           1         2         3
     Eigenvalues --  2767.37745********************
           X            0.99999   0.00095  -0.00365
           Y           -0.00097   0.99999  -0.00509
           Z            0.00364   0.00509   0.99998
 This molecule is an asymmetric top.
 Rotational symmetry number  1.
 Warning -- assumption of classical behavior for rotation
           may cause significant error
 Rotational temperatures (Kelvin)      0.03130     0.00723     0.00618
 Rotational constants (GHZ):           0.65215     0.15067     0.12870
 Zero-point vibrational energy     976003.8 (Joules/Mol)
                                  233.27052 (Kcal/Mol)
 Warning -- explicit consideration of  30 degrees of freedom as
           vibrations may cause significant error
 Vibrational temperatures:     39.54    41.46    51.77    73.30   115.99
          (Kelvin)            149.54   165.08   173.41   206.02   224.66
                              233.93   281.03   317.18   330.36   339.63
                              352.58   364.12   445.75   467.02   478.43
                              515.97   593.87   608.89   630.18   647.73
                              666.82   690.98   732.26   800.08   837.97
                              897.50   926.03   932.37  1005.54  1055.14
                             1138.64  1141.20  1158.87  1159.81  1164.15
                             1193.70  1206.45  1226.91  1292.98  1297.22
                             1327.22  1356.69  1376.13  1399.80  1422.67
                             1447.74  1471.82  1508.73  1521.06  1548.78
                             1550.52  1590.48  1618.05  1642.65  1654.18
                             1666.55  1688.67  1702.87  1721.37  1744.58
                             1755.55  1766.84  1779.23  1798.57  1828.00
                             1850.99  1876.47  1889.79  1931.70  1940.27
                             1957.92  1982.19  1999.78  2008.55  2025.44
                             2050.86  2069.42  2072.56  2079.42  2080.60
                             2152.75  2157.74  2172.92  2185.36  2186.89
                             2190.80  2197.25  2208.80  2210.41  2217.16
                             2222.69  2227.53  2261.82  2402.68  2435.27
                             4313.59  4328.85  4337.04  4356.14  4366.64
                             4384.59  4395.74  4397.96  4425.93  4437.47
                             4447.12  4484.09  4485.59  4492.32  4495.77
                             4502.56  4509.14  4513.95  4533.22  4581.38
                             4638.65  4682.55  5155.43

 Zero-point correction=                           0.371740 (Hartree/Particle)
 Thermal correction to Energy=                    0.391830
 Thermal correction to Enthalpy=                  0.392774
 Thermal correction to Gibbs Free Energy=         0.321798
 Sum of electronic and zero-point Energies=           -903.624206
 Sum of electronic and thermal Energies=              -903.604116
 Sum of electronic and thermal Enthalpies=            -903.603172
 Sum of electronic and thermal Free Energies=         -903.674148

                     E (Thermal)             CV                S
                      KCal/Mol        Cal/Mol-Kelvin    Cal/Mol-Kelvin
 Total                  245.877             76.479            149.382
 Electronic               0.000              0.000              0.000
 Translational            0.889              2.981             42.757
 Rotational               0.889              2.981             34.496
 Vibrational            244.100             70.517             72.129
 Vibration     1          0.593              1.984              6.003
 Vibration     2          0.593              1.984              5.909
 Vibration     3          0.594              1.982              5.469
 Vibration     4          0.595              1.977              4.780
 Vibration     5          0.600              1.962              3.876
 Vibration     6          0.605              1.946              3.379
 Vibration     7          0.608              1.937              3.187
 Vibration     8          0.609              1.932              3.092
 Vibration     9          0.616              1.910              2.761
 Vibration    10          0.620              1.896              2.596
 Vibration    11          0.623              1.888              2.519
 Vibration    12          0.636              1.846              2.177
 Vibration    13          0.647              1.810              1.955
 Vibration    14          0.652              1.796              1.882
 Vibration    15          0.655              1.786              1.832
 Vibration    16          0.660              1.771              1.766
 Vibration    17          0.664              1.758              1.709
 Vibration    18          0.699              1.655              1.363
 Vibration    19          0.709              1.626              1.287
 Vibration    20          0.714              1.611              1.248
 Vibration    21          0.733              1.558              1.128
 Vibration    22          0.777              1.443              0.917
 Vibration    23          0.785              1.420              0.881
 Vibration    24          0.798              1.387              0.833
 Vibration    25          0.809              1.360              0.795
 Vibration    26          0.821              1.331              0.756
 Vibration    27          0.837              1.294              0.709
 Vibration    28          0.864              1.230              0.636
 Vibration    29          0.912              1.126              0.532
 Vibration    30          0.939              1.069              0.481

                           ! Non-Optimized Parameters !
 Normal termination of Gaussian 16 at Sat Dec 12 15:36:21 2020.

 ----------------------------------------------------------------------
 # B3LYP/6-311++G(d,p) empiricaldispersion=gd3bj scf=xqc pop=npa geom=c
 heck
 ----------------------------------------------------------------------

 ---------------------------------------
 CID_65167845_JID_10010_Energie_neutraal
 ---------------------------------------
 Structure from the checkpoint file:  "JID_10010.chk"
 Charge =  0 Multiplicity = 1

 SCF Done:  E(RB3LYP) =  -904.245619307     A.U. after   14 cycles
 Normal termination of Gaussian 16 at Sat Dec 12 15:44:57 2020.

 ----------------------------------------------------------------------
 # B3LYP/6-311++G(d,p) empiricaldispersion=gd3bj scf=xqc pop=npa geom=c
 heck
 ----------------------------------------------------------------------

 -------------------------------------
 CID_65167845_JID_10010_Energie_kation
 -------------------------------------
 Structure from the checkpoint file:  "JID_10010.chk"
 Charge =  1 Multiplicity = 2

 SCF Done:  E(UB3LYP) =  -903.996952289     A.U. after   21 cycles
 Normal termination of Gaussian 16 at Sat Dec 12 16:02:22 2020.
 Gaussian 16:  ES64L-G16RevA.03 25-Dec-2016

 ----------------------------------------------------------------------
 # B3LYP/6-311++G(d,p) empiricaldispersion=gd3bj scf=xqc pop=npa geom=c
 heck
 ----------------------------------------------------------------------

 ------------------------------------
 CID_65167845_JID_10010_Energie_anion
 ------------------------------------
 Structure from the checkpoint file:  "JID_10010.chk"
 Charge = -1 Multiplicity = 2

                         Standard orientation:
 ---------------------------------------------------------------------
 Center     Atomic      Atomic             Coordinates (Angstroms)
 Number     Number       Type             X           Y           Z
 ---------------------------------------------------------------------
      1          6           0        4.003324   -2.516638   -0.674743
      2          6           0        2.531835   -2.111807   -0.534655
      3          6           0        2.292512   -0.894783    0.378761
      4          6           0        0.829842   -0.342363    0.278069
      5          6           0        1.311192    0.689999   -0.773313
      6          6           0        2.769244    0.417658   -0.321041
      7          8           0        3.244673    1.341702    0.639381
      8          6           0        3.688449    2.578646    0.093438
      9          6           0        5.099207    2.495512   -0.483657
     10          7           0       -0.199481   -1.281929   -0.109884
     11          6           0       -1.549354   -0.925645   -0.068194
     12          6           0       -1.940546    0.434381   -0.042778
     13          6           0       -3.295518    0.698219   -0.039760
     14          6           0       -4.259269   -0.302184   -0.056659
     15          6           0       -3.900510   -1.634702   -0.079959
     16          6           0       -2.530441   -1.933526   -0.084459
     17          8           0       -5.521118    0.268341   -0.089220
     18          6           0       -5.299051    1.653549    0.171487
     19          8           0       -3.908970    1.930637   -0.046802
     20          6           0        2.795294   -1.132442    1.799172
     21          1           0        4.110862   -3.320654   -1.410704
     22          1           0        4.417594   -2.877333    0.271784
     23          1           0        4.622988   -1.676761   -1.008839
     24          1           0        1.970710   -2.971805   -0.142690
     25          1           0        2.112286   -1.908964   -1.527082
     26          1           0        0.569898    0.174978    1.214226
     27          1           0        0.960378    1.719868   -0.661880
     28          1           0        1.109277    0.347915   -1.792006
     29          1           0        3.503587    0.281074   -1.125532
     30          1           0        2.978984    2.937837   -0.667499
     31          1           0        3.664022    3.290118    0.925487
     32          1           0        5.149723    1.810632   -1.336748
     33          1           0        5.428466    3.482598   -0.828320
     34          1           0        5.799304    2.141933    0.280048
     35          1           0       -0.029992   -2.223913    0.218438
     36          1           0       -1.218414    1.239473   -0.031648
     37          1           0       -4.647289   -2.420979   -0.095423
     38          1           0       -2.214983   -2.973350   -0.103128
     39          1           0       -5.898964    2.255320   -0.515496
     40          1           0       -5.551010    1.879939    1.218878
     41          1           0        2.596311   -0.263850    2.430337
     42          1           0        2.294552   -2.005708    2.237139
     43          1           0        3.874135   -1.313552    1.822714
 ---------------------------------------------------------------------

 SCF Done:  E(UB3LYP) =  -904.232966353     A.U. after   33 cycles
 SCF Done:  E(UB3LYP) =  -904.232966353     a.u. after    1 cycles

 The electronic state is 2-A.
 Alpha  occ. eigenvalues --  -19.08748 -19.08413 -19.03571 -14.23186 -10.21160
 Alpha  occ. eigenvalues --  -10.15115 -10.14119 -10.13134 -10.12964 -10.12950
 Alpha  occ. eigenvalues --  -10.11612 -10.09818 -10.09555 -10.09010 -10.08450
 Alpha  occ. eigenvalues --  -10.07849 -10.07703 -10.07273 -10.06813 -10.06492
 Alpha  occ. eigenvalues --   -1.04764  -0.95578  -0.95044  -0.85249  -0.77621
 Alpha  occ. eigenvalues --   -0.75320  -0.68043  -0.67511  -0.66728  -0.65734
 Alpha  occ. eigenvalues --   -0.62825  -0.59846  -0.57021  -0.55619  -0.54564
 Alpha  occ. eigenvalues --   -0.53761  -0.51994  -0.49958  -0.46142  -0.45000
 Alpha  occ. eigenvalues --   -0.44537  -0.43250  -0.42810  -0.41363  -0.39513
 Alpha  occ. eigenvalues --   -0.38950  -0.37596  -0.36438  -0.36181  -0.35299
 Alpha  occ. eigenvalues --   -0.34650  -0.34031  -0.33400  -0.32109  -0.31845
 Alpha  occ. eigenvalues --   -0.31281  -0.30878  -0.30746  -0.29326  -0.28785
 Alpha  occ. eigenvalues --   -0.28610  -0.28478  -0.28140  -0.27878  -0.27003
 Alpha  occ. eigenvalues --   -0.26227  -0.25068  -0.23819  -0.23111  -0.21921
 Alpha  occ. eigenvalues --   -0.20639  -0.18595  -0.16571  -0.15692  -0.10364
 Alpha  occ. eigenvalues --    0.03885
 Alpha virt. eigenvalues --    0.05148   0.05561   0.06699   0.07013   0.07296
 Alpha virt. eigenvalues --    0.07584   0.07878   0.08201   0.08774   0.09127
 Alpha virt. eigenvalues --    0.09532   0.09659   0.09960   0.10603   0.10970

  Beta  occ. eigenvalues --  -19.08747 -19.08413 -19.03569 -14.23175 -10.21142
  Beta  occ. eigenvalues --  -10.15112 -10.14119 -10.13135 -10.12950 -10.12936
  Beta  occ. eigenvalues --  -10.11611 -10.09808 -10.09555 -10.09003 -10.08437
  Beta  occ. eigenvalues --  -10.07829 -10.07695 -10.07236 -10.06785 -10.06475
  Beta  occ. eigenvalues --   -1.04760  -0.95576  -0.95036  -0.85233  -0.77609
  Beta  occ. eigenvalues --   -0.75306  -0.68014  -0.67485  -0.66707  -0.65702
  Beta  occ. eigenvalues --   -0.62795  -0.59818  -0.56985  -0.55577  -0.54536
  Beta  occ. eigenvalues --   -0.53732  -0.51967  -0.49900  -0.46118  -0.44978
  Beta  occ. eigenvalues --   -0.44522  -0.43228  -0.42786  -0.41325  -0.39490
  Beta  occ. eigenvalues --   -0.38926  -0.37574  -0.36422  -0.36161  -0.35273
  Beta  occ. eigenvalues --   -0.34620  -0.34005  -0.33370  -0.32085  -0.31817
  Beta  occ. eigenvalues --   -0.31260  -0.30866  -0.30723  -0.29296  -0.28745
  Beta  occ. eigenvalues --   -0.28579  -0.28464  -0.28118  -0.27857  -0.26983
  Beta  occ. eigenvalues --   -0.26198  -0.25046  -0.23799  -0.23086  -0.21907
  Beta  occ. eigenvalues --   -0.20619  -0.18574  -0.16556  -0.15669  -0.10350
  Beta virt. eigenvalues --    0.05521   0.05986   0.06517   0.07057   0.07149
  Beta virt. eigenvalues --    0.07559   0.07749   0.08207   0.08567   0.09124
  Beta virt. eigenvalues --    0.09308   0.09652   0.09768   0.10150   0.10752

 Mulliken charges and spin densities:
               1          2
     1  C    0.684982  -1.327685
     2  C   -1.229113   0.821367
     3  C   -0.174610   0.169767
     4  C   -0.436261   0.019924
     5  C    0.114764  -0.414712
     6  C   -0.416758   0.084588
     7  O    0.008386   0.021647
     8  C   -0.241722   0.155698
     9  C    0.689933  -1.139622
    10  N    0.255226   0.106269
    11  C    0.503308  -1.177237
    12  C   -0.084860   0.326678
    13  C    0.158334   0.212500
    14  C    0.152830   0.133005
    15  C   -0.512924   0.013359
    16  C   -0.342249  -0.071416
    17  O   -0.186491   0.020888
    18  C    0.599760  -0.650496
    19  O   -0.153512   0.021102
    20  C    0.783063  -1.267376
    21  H   -0.342737   0.494778
    22  H   -0.115284   0.258799
    23  H   -0.046844   0.188211
    24  H   -0.310354   0.429429
    25  H    0.061639   0.125605
    26  H    0.117688   0.075418
    27  H   -0.036922   0.166804
    28  H   -0.056871   0.237193
    29  H    0.271392  -0.082044
    30  H    0.096699  -0.007469
    31  H   -0.144379   0.306762
    32  H   -0.329308   0.458251
    33  H   -0.421282   0.572856
    34  H    0.021469   0.122175
    35  H    0.337623  -0.100345
    36  H    0.259919   0.000274
    37  H    0.032655   0.145732
    38  H   -0.565277   0.712553
    39  H   -0.077665   0.258840
    40  H   -0.060862   0.236529
    41  H    0.159333   0.004688
    42  H   -0.157074   0.327234
    43  H    0.134357   0.009479
 Sum of Mulliken charges =  -1.00000   1.00000

 Dipole moment (field-independent basis, Debye):
    X=             -5.3505    Y=              1.7600    Z=              1.3926  Tot=              5.8021
 Quadrupole moment (field-independent basis, Debye-Ang):
   XX=           -234.2593   YY=           -186.5499   ZZ=           -156.6204
   XY=             -4.8954   XZ=              5.7448   YZ=              1.3791

 Summary of Natural Population Analysis:

                                       Natural Population
                Natural  -----------------------------------------------
    Atom  No    Charge         Core      Valence    Rydberg      Total
 -----------------------------------------------------------------------
      C    1   -0.28546      0.99966     2.28067    0.00514     3.28546
      C    2   -0.19189      0.99959     2.18175    0.01055     3.19189
      C    3   -0.03599      0.99954     2.02227    0.01418     3.03599
      C    4   -0.00534      0.99953     1.99202    0.01378     3.00534
      C    5   -0.20742      0.99960     2.19942    0.00840     3.20742
      C    6    0.07292      0.99948     1.91240    0.01520     2.92708
      O    7   -0.30554      0.99987     3.29589    0.00978     4.30554
      C    8   -0.00911      0.99959     1.99713    0.01240     3.00911
      C    9   -0.29989      0.99967     2.29556    0.00466     3.29989
      N   10   -0.31507      0.99966     2.80531    0.01011     3.81507
      C   11    0.09457      0.99952     1.89519    0.01073     2.90543
      C   12   -0.15087      0.99949     2.14424    0.00714     3.15087
      C   13    0.14101      0.99934     1.84730    0.01236     2.85899
      C   14    0.10667      0.99931     1.88165    0.01238     2.89333
      C   15   -0.11296      0.99953     2.10471    0.00873     3.11296
      C   16   -0.12584      0.99955     2.11669    0.00961     3.12584
      O   17   -0.27688      0.99987     3.26952    0.00749     4.27688
      C   18    0.15580      0.99964     1.83052    0.01405     2.84420
      O   19   -0.27338      0.99987     3.26591    0.00760     4.27338
      C   20   -0.28817      0.99961     2.28138    0.00717     3.28817
      H   21    0.10139      0.00000     0.39769    0.00092     0.39861
      H   22    0.09762      0.00000     0.40138    0.00100     0.40238
      H   23    0.09726      0.00000     0.40152    0.00122     0.40274
      H   24    0.09708      0.00000     0.40111    0.00181     0.40292
      H   25    0.10177      0.00000     0.39667    0.00156     0.39823
      H   26    0.09101      0.00000     0.40694    0.00205     0.40899
      H   27    0.09967      0.00000     0.39921    0.00112     0.40033
      H   28    0.10583      0.00000     0.39293    0.00123     0.39417
      H   29    0.08553      0.00000     0.41281    0.00166     0.41447
      H   30    0.07885      0.00000     0.41987    0.00128     0.42115
      H   31    0.08733      0.00000     0.41159    0.00108     0.41267
      H   32    0.09910      0.00000     0.39956    0.00134     0.40090
      H   33    0.10122      0.00000     0.39730    0.00148     0.39878
      H   34    0.10019      0.00000     0.39871    0.00110     0.39981
      H   35    0.18821      0.00000     0.30827    0.00352     0.31179
      H   36    0.11133      0.00000     0.38683    0.00184     0.38867
      H   37    0.10639      0.00000     0.39258    0.00103     0.39361
      H   38    0.10312      0.00000     0.39565    0.00123     0.39688
      H   39    0.08027      0.00000     0.41743    0.00230     0.41973
      H   40    0.06935      0.00000     0.42817    0.00249     0.43065
      H   41    0.10753      0.00000     0.39139    0.00107     0.39247
      H   42    0.09935      0.00000     0.39968    0.00096     0.40065
      H   43    0.10344      0.00000     0.39562    0.00094     0.39656
 =======================================================================
   * Total *   -0.00000     19.99190    54.77240    0.23570    75.00000

 Normal termination of Gaussian 16 at Sat Dec 12 16:30:25 2020.
