 Gaussian 16, Revision A.03,

 -----------------------------------------------------------
 # opt freq B3LYP/6-31G(d) empiricaldispersion=gd3bj scf=xqc
 -----------------------------------------------------------

 -------------------------------
 CID_151501347_JID_3873_neutraal
 -------------------------------
 Symbolic Z-matrix:
 Charge =  0 Multiplicity = 1

 SCF Done:  E(RB3LYP) =  -583.900187301     A.U. after   18 cycles
 SCF Done:  E(RB3LYP) =  -583.912848641     A.U. after   14 cycles
 SCF Done:  E(RB3LYP) =  -583.918325863     A.U. after   14 cycles
 SCF Done:  E(RB3LYP) =  -583.921075032     A.U. after   14 cycles
 SCF Done:  E(RB3LYP) =  -583.922478063     A.U. after   15 cycles
 SCF Done:  E(RB3LYP) =  -583.923196183     A.U. after   16 cycles
 SCF Done:  E(RB3LYP) =  -583.924077285     A.U. after   15 cycles
 SCF Done:  E(RB3LYP) =  -583.925186131     A.U. after   16 cycles
 SCF Done:  E(RB3LYP) =  -583.925379635     A.U. after   12 cycles
 SCF Done:  E(RB3LYP) =  -583.925442149     A.U. after   13 cycles
 SCF Done:  E(RB3LYP) =  -583.925458188     A.U. after   11 cycles
 SCF Done:  E(RB3LYP) =  -583.925460702     A.U. after   10 cycles
 SCF Done:  E(RB3LYP) =  -583.925460932     A.U. after    8 cycles
 Optimization completed.
    -- Stationary point found.
 Normal termination of Gaussian 16 at Sun Dec 13 20:05:42 2020.

 --------------------------------------------------------------------
 #N Geom=AllCheck Guess=TCheck SCRF=Check GenChk RB3LYP/6-31G(d) Freq
 --------------------------------------------------------------------

 Structure from the checkpoint file:  "JID_3873.chk"
 -------------------------------
 CID_151501347_JID_3873_neutraal
 -------------------------------
 Charge =  0 Multiplicity = 1

 SCF Done:  E(RB3LYP) =  -583.925460932     A.U. after    1 cycles

  Exact polarizability: 166.339  -3.415 111.919  -5.501  -3.392  64.839
 Approx polarizability: 239.674 -10.419 184.813 -22.423  -3.247 121.161

                      1                      2                      3
                      A                      A                      A
 Frequencies --     33.6696                62.8958               142.6678
 Red. masses --      8.0627                 5.6418                 3.5838
 Frc consts  --      0.0054                 0.0131                 0.0430
 IR Inten    --      0.0949                 0.2593                 1.7006

                      4                      5                      6
                      A                      A                      A
 Frequencies --    163.0891               251.7570               276.2953
 Red. masses --      4.4071                 5.1630                 2.9190
 Frc consts  --      0.0691                 0.1928                 0.1313
 IR Inten    --      0.8591                 0.4318                 4.2374

                      7                      8                      9
                      A                      A                      A
 Frequencies --    300.6342               354.0255               389.4646
 Red. masses --      3.4169                 9.0512                 5.2496
 Frc consts  --      0.1820                 0.6684                 0.4691
 IR Inten    --      3.2831                 0.5389                 4.3653

                     10                     11                     12
                      A                      A                      A
 Frequencies --    439.8136               481.2080               496.1416
 Red. masses --      2.6855                 3.9600                 3.0545
 Frc consts  --      0.3061                 0.5403                 0.4430
 IR Inten    --      4.8588                 8.0631                 1.0739

                     13                     14                     15
                      A                      A                      A
 Frequencies --    523.4068               563.3843               600.9895
 Red. masses --      4.6008                13.7166                 6.1980
 Frc consts  --      0.7426                 2.5651                 1.3190
 IR Inten    --      1.9895                 6.4755                 1.5900

                     16                     17                     18
                      A                      A                      A
 Frequencies --    617.1642               697.9543               725.5610
 Red. masses --      5.4081                 4.3282                 3.7952
 Frc consts  --      1.2137                 1.2423                 1.1771
 IR Inten    --      8.9969                18.7673                 0.4483

                     19                     20                     21
                      A                      A                      A
 Frequencies --    763.0134               765.2574               853.7464
 Red. masses --      1.3534                 3.2319                 2.7892
 Frc consts  --      0.4642                 1.1151                 1.1978
 IR Inten    --     36.1077                 9.8247                18.6194

                     22                     23                     24
                      A                      A                      A
 Frequencies --    864.7971               882.8829               935.8497
 Red. masses --      4.5449                 1.4251                 1.9922
 Frc consts  --      2.0026                 0.6545                 1.0280
 IR Inten    --      1.0262                 3.3775                 2.6131

                     25                     26                     27
                      A                      A                      A
 Frequencies --    947.3704               983.7983               997.5793
 Red. masses --      2.2971                 1.2595                 2.6797
 Frc consts  --      1.2147                 0.7182                 1.5712
 IR Inten    --      8.6892                 0.0822                35.2201

                     28                     29                     30
                      A                      A                      A
 Frequencies --   1030.0618              1057.4527              1065.4987
 Red. masses --      1.8147                 2.3335                 3.1241
 Frc consts  --      1.1344                 1.5374                 2.0897
 IR Inten    --      5.3859                 4.2483                14.6020

                     31                     32                     33
                      A                      A                      A
 Frequencies --   1085.1611              1112.9869              1154.6273
 Red. masses --      2.0444                 3.9322                 1.6033
 Frc consts  --      1.4184                 2.8699                 1.2594
 IR Inten    --      3.7479                30.2392                 4.5909

                     34                     35                     36
                      A                      A                      A
 Frequencies --   1196.1954              1219.7049              1233.1982
 Red. masses --      1.0988                 2.5498                 5.2015
 Frc consts  --      0.9264                 2.2350                 4.6606
 IR Inten    --      0.1403                 4.3741                79.4183

                     37                     38                     39
                      A                      A                      A
 Frequencies --   1245.5001              1271.3497              1284.4153
 Red. masses --      2.3155                 1.1699                 1.3244
 Frc consts  --      2.1164                 1.1141                 1.2873
 IR Inten    --     10.4271                 0.2334                 6.7145

                     40                     41                     42
                      A                      A                      A
 Frequencies --   1307.4935              1351.3320              1396.2429
 Red. masses --      1.4083                 4.6021                 1.5446
 Frc consts  --      1.4185                 4.9514                 1.7741
 IR Inten    --      2.2557                 2.3180                 5.4625

                     43                     44                     45
                      A                      A                      A
 Frequencies --   1404.9448              1483.7179              1505.4839
 Red. masses --      1.6127                 1.2399                 1.7497
 Frc consts  --      1.8755                 1.6081                 2.3365
 IR Inten    --     30.3944                18.6947                 4.9205

                     46                     47                     48
                      A                      A                      A
 Frequencies --   1506.9062              1507.7838              1548.9348
 Red. masses --      1.1245                 1.3215                 2.4579
 Frc consts  --      1.5045                 1.7701                 3.4744
 IR Inten    --      3.4615                 1.6886                14.7542

                     49                     50                     51
                      A                      A                      A
 Frequencies --   1647.0195              1672.5899              2234.7368
 Red. masses --      6.3937                 5.9771                13.9683
 Frc consts  --     10.2188                 9.8518                41.1006
 IR Inten    --      4.1269                 0.1278               559.4396

                     52                     53                     54
                      A                      A                      A
 Frequencies --   2976.3789              3023.2393              3086.4837
 Red. masses --      1.0714                 1.0667                 1.0901
 Frc consts  --      5.5920                 5.7442                 6.1187
 IR Inten    --     50.5179                24.5648                21.7409

                     55                     56                     57
                      A                      A                      A
 Frequencies --   3103.0520              3174.5035              3178.1438
 Red. masses --      1.0960                 1.0867                 1.0889
 Frc consts  --      6.2180                 6.4525                 6.4800
 IR Inten    --     15.5664                14.8722                 1.0921

                     58                     59                     60
                      A                      A                      A
 Frequencies --   3195.4182              3210.6075              3479.8442
 Red. masses --      1.0913                 1.0972                 1.0755
 Frc consts  --      6.5653                 6.6636                 7.6732
 IR Inten    --     24.0766                28.9066                 0.2132

 - Thermochemistry -
 -------------------
 Temperature   298.150 Kelvin.  Pressure   1.00000 Atm.
 Atom     1 has atomic number  6 and mass  12.00000

 Molecular mass:   175.08580 amu.
 Principal axes and moments of inertia in atomic units:
                           1         2         3
     Eigenvalues --   823.302574026.943434564.53790
           X            0.99997   0.00502   0.00563
           Y           -0.00489   0.99973  -0.02282
           Z           -0.00575   0.02279   0.99972
 This molecule is an asymmetric top.
 Rotational symmetry number  1.
 Warning -- assumption of classical behavior for rotation
           may cause significant error
 Rotational temperatures (Kelvin)      0.10520     0.02151     0.01898
 Rotational constants (GHZ):           2.19208     0.44817     0.39538
 Zero-point vibrational energy     454972.3 (Joules/Mol)
                                  108.74099 (Kcal/Mol)
 Warning -- explicit consideration of  16 degrees of freedom as
           vibrations may cause significant error
 Vibrational temperatures:     48.44    90.49   205.27   234.65   362.22
          (Kelvin)            397.53   432.55   509.36   560.35   632.79
                              692.35   713.84   753.07   810.58   864.69
                              887.96  1004.20  1043.92  1097.81  1101.03
                             1228.35  1244.25  1270.27  1346.48  1363.05
                             1415.47  1435.29  1482.03  1521.44  1533.01
                             1561.30  1601.34  1661.25  1721.06  1754.88
                             1774.30  1792.00  1829.19  1847.99  1881.19
                             1944.27  2008.88  2021.40  2134.74  2166.06
                             2168.10  2169.36  2228.57  2369.69  2406.48
                             3215.29  4282.35  4349.77  4440.76  4464.60
                             4567.40  4572.64  4597.49  4619.35  5006.72

 Zero-point correction=                           0.173290 (Hartree/Particle)
 Thermal correction to Energy=                    0.183602
 Thermal correction to Enthalpy=                  0.184546
 Thermal correction to Gibbs Free Energy=         0.136323
 Sum of electronic and zero-point Energies=           -583.752171
 Sum of electronic and thermal Energies=              -583.741859
 Sum of electronic and thermal Enthalpies=            -583.740915
 Sum of electronic and thermal Free Energies=         -583.789138

                     E (Thermal)             CV                S
                      KCal/Mol        Cal/Mol-Kelvin    Cal/Mol-Kelvin
 Total                  115.212             40.321            101.495
 Electronic               0.000              0.000              0.000
 Translational            0.889              2.981             41.388
 Rotational               0.889              2.981             31.093
 Vibrational            113.434             34.359             29.014
 Vibration     1          0.594              1.983              5.601
 Vibration     2          0.597              1.972              4.364
 Vibration     3          0.616              1.911              2.768
 Vibration     4          0.623              1.888              2.514
 Vibration     5          0.664              1.760              1.718
 Vibration     6          0.678              1.717              1.556
 Vibration     7          0.693              1.672              1.413
 Vibration     8          0.730              1.567              1.148
 Vibration     9          0.757              1.493              1.002
 Vibration    10          0.800              1.383              0.827
 Vibration    11          0.838              1.292              0.707
 Vibration    12          0.852              1.259              0.668
 Vibration    13          0.878              1.198              0.602
 Vibration    14          0.919              1.110              0.517
 Vibration    15          0.959              1.030              0.448
 Vibration    16          0.977              0.996              0.421

                           ! Non-Optimized Parameters !
 Normal termination of Gaussian 16 at Sun Dec 13 20:10:54 2020.

 ----------------------------------------------------------------------
 # B3LYP/6-311++G(d,p) empiricaldispersion=gd3bj scf=xqc pop=npa geom=c
 heck
 ----------------------------------------------------------------------

 ---------------------------------------
 CID_151501347_JID_3873_Energie_neutraal
 ---------------------------------------
 Structure from the checkpoint file:  "JID_3873.chk"
 Charge =  0 Multiplicity = 1

 SCF Done:  E(RB3LYP) =  -584.082974941     A.U. after   16 cycles
 Normal termination of Gaussian 16 at Sun Dec 13 20:13:14 2020.

 ----------------------------------------------------------------------
 # B3LYP/6-311++G(d,p) empiricaldispersion=gd3bj scf=xqc pop=npa geom=c
 heck
 ----------------------------------------------------------------------

 -------------------------------------
 CID_151501347_JID_3873_Energie_kation
 -------------------------------------
 Structure from the checkpoint file:  "JID_3873.chk"
 Charge =  1 Multiplicity = 2

 SCF Done:  E(UB3LYP) =  -583.782973661     A.U. after   31 cycles
 Normal termination of Gaussian 16 at Sun Dec 13 20:19:35 2020.
 Gaussian 16:  ES64L-G16RevA.03 25-Dec-2016

 ----------------------------------------------------------------------
 # B3LYP/6-311++G(d,p) empiricaldispersion=gd3bj scf=xqc pop=npa geom=c
 heck
 ----------------------------------------------------------------------

 ------------------------------------
 CID_151501347_JID_3873_Energie_anion
 ------------------------------------
 Structure from the checkpoint file:  "JID_3873.chk"
 Charge = -1 Multiplicity = 2

                         Standard orientation:
 ---------------------------------------------------------------------
 Center     Atomic      Atomic             Coordinates (Angstroms)
 Number     Number       Type             X           Y           Z
 ---------------------------------------------------------------------
      1          6           0       -0.206876    1.804527   -0.046434
      2          6           0       -1.289171    0.750225   -0.058597
      3          6           0       -2.616908    1.082596   -0.341023
      4          6           0       -3.603463    0.100261   -0.382312
      5          6           0       -3.264132   -1.232907   -0.141933
      6          6           0       -1.941380   -1.570536    0.134005
      7          6           0       -0.948523   -0.587276    0.178474
      8          6           0        0.479042   -0.960656    0.507962
      9          7           0        1.394093    0.091217    0.027538
     10          7           0        0.953001    1.322656    0.716393
     11          7           0        2.700284   -0.201295    0.613577
     12          7           0        3.538399   -0.366286   -0.299585
     13          7           0        4.410492   -0.555314   -1.007123
     14          1           0       -0.562114    2.714515    0.449904
     15          1           0        0.057086    2.065306   -1.085644
     16          1           0       -2.877818    2.122252   -0.526028
     17          1           0       -4.632524    0.372542   -0.598472
     18          1           0       -4.026419   -2.006010   -0.173370
     19          1           0       -1.672388   -2.608467    0.316544
     20          1           0        0.762225   -1.891391    0.006598
     21          1           0        0.603217   -1.096252    1.592251
     22          1           0        1.723313    1.973249    0.561769
 ---------------------------------------------------------------------

 SCF Done:  E(UB3LYP) =  -584.082689625     A.U. after   33 cycles
 SCF Done:  E(UB3LYP) =  -584.082689625     a.u. after    1 cycles

 The electronic state is 2-A.
 Alpha  occ. eigenvalues --  -14.29621 -14.24296 -14.22397 -14.21550 -14.21185
 Alpha  occ. eigenvalues --  -10.09423 -10.08512 -10.07757 -10.07642 -10.07229
 Alpha  occ. eigenvalues --  -10.07103 -10.07097 -10.07015  -0.98258  -0.88840
 Alpha  occ. eigenvalues --   -0.80509  -0.75529  -0.70565  -0.66536  -0.64532
 Alpha  occ. eigenvalues --   -0.55901  -0.54980  -0.50338  -0.45900  -0.43860
 Alpha  occ. eigenvalues --   -0.40557  -0.37899  -0.37126  -0.35312  -0.34833
 Alpha  occ. eigenvalues --   -0.34431  -0.33478  -0.31902  -0.31068  -0.30138
 Alpha  occ. eigenvalues --   -0.29357  -0.27593  -0.26266  -0.23840  -0.23596
 Alpha  occ. eigenvalues --   -0.22734  -0.17194  -0.15051  -0.14052  -0.11528
 Alpha  occ. eigenvalues --   -0.09367   0.04707
 Alpha virt. eigenvalues --    0.06283   0.07429   0.08105   0.08495   0.09087
 Alpha virt. eigenvalues --    0.09686   0.10506   0.11307   0.12524   0.12650
 Alpha virt. eigenvalues --    0.13397   0.14647   0.15595   0.15947   0.16939

  Beta  occ. eigenvalues --  -14.29179 -14.24105 -14.22448 -14.21541 -14.20546
  Beta  occ. eigenvalues --  -10.09412 -10.08507 -10.07755 -10.07623 -10.07222
  Beta  occ. eigenvalues --  -10.07085 -10.07080 -10.06982  -0.97410  -0.88525
  Beta  occ. eigenvalues --   -0.80181  -0.75470  -0.70374  -0.66458  -0.64430
  Beta  occ. eigenvalues --   -0.55827  -0.54790  -0.50278  -0.45709  -0.43661
  Beta  occ. eigenvalues --   -0.40467  -0.37633  -0.36667  -0.34860  -0.34368
  Beta  occ. eigenvalues --   -0.34176  -0.32907  -0.31440  -0.30997  -0.30046
  Beta  occ. eigenvalues --   -0.28289  -0.27448  -0.25985  -0.23716  -0.23534
  Beta  occ. eigenvalues --   -0.22015  -0.16595  -0.14920  -0.13968  -0.11345
  Beta  occ. eigenvalues --   -0.09232
  Beta virt. eigenvalues --    0.06946   0.07855   0.08166   0.08645   0.09135
  Beta virt. eigenvalues --    0.09963   0.10583   0.11270   0.12055   0.12464
  Beta virt. eigenvalues --    0.12776   0.13763   0.14636   0.15526   0.16200

 Mulliken charges and spin densities:
               1          2
     1  C    0.473468  -1.079298
     2  C    0.189982   0.618337
     3  C   -0.554198  -0.133966
     4  C    0.836671  -1.045387
     5  C    0.345861  -0.551052
     6  C   -0.935471   0.278747
     7  C   -0.621358   1.073153
     8  C    0.533988  -0.981923
     9  N    0.208245   0.010649
    10  N   -0.312942   0.069880
    11  N   -0.424207  -0.044469
    12  N    0.242697   0.177140
    13  N   -0.267835   0.413718
    14  H   -0.150053   0.325229
    15  H    0.184851  -0.033779
    16  H   -0.223722   0.369087
    17  H   -0.538188   0.689681
    18  H   -0.348662   0.499300
    19  H    0.066051   0.069751
    20  H    0.141311   0.046013
    21  H    0.070493   0.095341
    22  H    0.083017   0.133850
 Sum of Mulliken charges =  -1.00000   1.00000

 Dipole moment (field-independent basis, Debye):
    X=             -1.6698    Y=              0.2420    Z=              0.3493  Tot=              1.7231
 Quadrupole moment (field-independent basis, Debye-Ang):
   XX=           -160.9885   YY=            -91.6478   ZZ=            -97.8200
   XY=              4.6086   XZ=              1.3822   YZ=             -2.7952

 Summary of Natural Population Analysis:

                                       Natural Population
                Natural  -----------------------------------------------
    Atom  No    Charge         Core      Valence    Rydberg      Total
 -----------------------------------------------------------------------
      C    1   -0.09896      0.99959     2.08680    0.01257     3.09896
      C    2   -0.01790      0.99946     2.00767    0.01076     3.01790
      C    3   -0.09607      0.99952     2.08688    0.00967     3.09607
      C    4   -0.10017      0.99957     2.09047    0.01013     3.10017
      C    5   -0.10522      0.99957     2.09522    0.01044     3.10522
      C    6   -0.09593      0.99952     2.08680    0.00961     3.09593
      C    7   -0.01416      0.99946     2.00543    0.00928     3.01416
      C    8   -0.09307      0.99958     2.08159    0.01191     3.09307
      N    9   -0.10295      0.99973     2.58865    0.01456     3.60295
      N   10   -0.24938      0.99975     2.73757    0.01206     3.74938
      N   11   -0.16357      0.99972     2.64808    0.01576     3.66357
      N   12    0.14622      0.99971     2.33847    0.01561     3.35378
      N   13    0.03315      0.99982     2.45262    0.01441     3.46685
      H   14    0.09930      0.00000     0.39923    0.00147     0.40070
      H   15    0.08960      0.00000     0.40842    0.00197     0.41040
      H   16    0.09781      0.00000     0.40050    0.00168     0.40219
      H   17    0.10021      0.00000     0.39827    0.00152     0.39979
      H   18    0.09947      0.00000     0.39942    0.00111     0.40053
      H   19    0.09660      0.00000     0.40203    0.00137     0.40340
      H   20    0.10022      0.00000     0.39815    0.00163     0.39978
      H   21    0.09919      0.00000     0.39802    0.00279     0.40081
      H   22    0.17559      0.00000     0.32091    0.00350     0.32441
 =======================================================================
   * Total *    0.00000     12.99499    32.83120    0.17381    46.00000

 Normal termination of Gaussian 16 at Sun Dec 13 20:26:28 2020.
