 Gaussian 16, Revision A.03,

 -----------------------------------------------------------
 # opt freq B3LYP/6-31G(d) empiricaldispersion=gd3bj scf=xqc
 -----------------------------------------------------------

 ------------------------------
 CID_150632717_JID_844_neutraal
 ------------------------------
 Symbolic Z-matrix:
 Charge =  0 Multiplicity = 1

 SCF Done:  E(RB3LYP) =  -479.796939414     A.U. after   15 cycles
 SCF Done:  E(RB3LYP) =  -479.800608888     A.U. after   12 cycles
 SCF Done:  E(RB3LYP) =  -479.800920095     A.U. after   11 cycles
 SCF Done:  E(RB3LYP) =  -479.800981968     A.U. after   11 cycles
 SCF Done:  E(RB3LYP) =  -479.801017007     A.U. after   10 cycles
 SCF Done:  E(RB3LYP) =  -479.801018824     A.U. after    8 cycles
 SCF Done:  E(RB3LYP) =  -479.801018548     A.U. after    8 cycles
 SCF Done:  E(RB3LYP) =  -479.801018686     A.U. after    8 cycles
 SCF Done:  E(RB3LYP) =  -479.801019175     A.U. after    7 cycles
 SCF Done:  E(RB3LYP) =  -479.801020195     A.U. after    8 cycles
 SCF Done:  E(RB3LYP) =  -479.809557900     A.U. after   10 cycles
 SCF Done:  E(RB3LYP) =  -479.809561943     A.U. after    8 cycles
 SCF Done:  E(RB3LYP) =  -479.809563449     A.U. after    8 cycles
 SCF Done:  E(RB3LYP) =  -479.809564368     A.U. after    8 cycles
 SCF Done:  E(RB3LYP) =  -479.809564471     A.U. after    8 cycles
 Optimization completed.
    -- Stationary point found.
 Normal termination of Gaussian 16 at Tue Dec  8 13:10:53 2020.

 --------------------------------------------------------------------
 #N Geom=AllCheck Guess=TCheck SCRF=Check GenChk RB3LYP/6-31G(d) Freq
 --------------------------------------------------------------------

 Structure from the checkpoint file:  "JID_844.chk"
 ------------------------------
 CID_150632717_JID_844_neutraal
 ------------------------------
 Charge =  0 Multiplicity = 1

 SCF Done:  E(RB3LYP) =  -479.809564471     A.U. after    1 cycles

  Exact polarizability:  96.082  -1.620 104.901  -3.899   5.732  63.029
 Approx polarizability: 122.190  -6.353 168.611  -7.500  19.864  93.260

                      1                      2                      3
                      A                      A                      A
 Frequencies --     33.8726                63.2966                76.8996
 Red. masses --      2.7153                 5.1580                 5.7750
 Frc consts  --      0.0018                 0.0122                 0.0201
 IR Inten    --      0.2099                 0.6702                 0.7427

                      4                      5                      6
                      A                      A                      A
 Frequencies --    149.2777               185.3360               224.4821
 Red. masses --      2.7935                 2.1092                 2.6649
 Frc consts  --      0.0367                 0.0427                 0.0791
 IR Inten    --      0.5866                 1.6916                 0.4373

                      7                      8                      9
                      A                      A                      A
 Frequencies --    230.3638               237.5794               263.4202
 Red. masses --      1.3610                 1.0630                 1.1487
 Frc consts  --      0.0426                 0.0354                 0.0470
 IR Inten    --      0.5321                 0.0797                 0.5815

                     10                     11                     12
                      A                      A                      A
 Frequencies --    317.6104               336.7801               389.8258
 Red. masses --      2.8887                 2.8845                 2.5663
 Frc consts  --      0.1717                 0.1928                 0.2298
 IR Inten    --      3.0743                 1.0394                 2.5343

                     13                     14                     15
                      A                      A                      A
 Frequencies --    428.3328               452.6136               509.8337
 Red. masses --      4.2623                 2.4242                 2.6194
 Frc consts  --      0.4607                 0.2926                 0.4012
 IR Inten    --     11.5843                 0.2396                19.2925

                     16                     17                     18
                      A                      A                      A
 Frequencies --    537.6368               627.4148               659.5793
 Red. masses --      3.3974                 1.6023                 3.3776
 Frc consts  --      0.5786                 0.3716                 0.8658
 IR Inten    --      7.2189                80.0838                37.0950

                     19                     20                     21
                      A                      A                      A
 Frequencies --    753.2852               763.2896               842.4557
 Red. masses --      2.5636                 2.2038                 2.1351
 Frc consts  --      0.8571                 0.7565                 0.8928
 IR Inten    --     85.3477                43.4934                 2.6498

                     22                     23                     24
                      A                      A                      A
 Frequencies --    861.1874               901.4672               942.5537
 Red. masses --      2.0808                 1.4673                 1.2251
 Frc consts  --      0.9092                 0.7025                 0.6413
 IR Inten    --      1.0356                52.7458                 4.5557

                     25                     26                     27
                      A                      A                      A
 Frequencies --    959.8805               968.8915              1042.3871
 Red. masses --      1.5273                 1.8918                 2.5584
 Frc consts  --      0.8291                 1.0463                 1.6379
 IR Inten    --      0.2378                 3.8928                10.7368

                     28                     29                     30
                      A                      A                      A
 Frequencies --   1065.3006              1108.5685              1158.8531
 Red. masses --      1.5414                 2.1251                 2.3065
 Frc consts  --      1.0306                 1.5387                 1.8250
 IR Inten    --      3.8574                17.2325                39.5178

                     31                     32                     33
                      A                      A                      A
 Frequencies --   1161.4593              1199.2755              1206.7513
 Red. masses --      2.3178                 2.1599                 1.9171
 Frc consts  --      1.8422                 1.8303                 1.6449
 IR Inten    --     96.8068               250.3999                28.7524

                     34                     35                     36
                      A                      A                      A
 Frequencies --   1229.9843              1369.4945              1382.1775
 Red. masses --      1.9708                 1.3459                 1.3001
 Frc consts  --      1.7566                 1.4873                 1.4634
 IR Inten    --     24.4896                 9.3451                 8.1333

                     37                     38                     39
                      A                      A                      A
 Frequencies --   1393.3647              1414.3620              1426.9103
 Red. masses --      1.6672                 1.7616                 1.2999
 Frc consts  --      1.9071                 2.0762                 1.5594
 IR Inten    --     52.8649                35.7450                13.9028

                     40                     41                     42
                      A                      A                      A
 Frequencies --   1444.4156              1444.9786              1512.6306
 Red. masses --      1.4269                 1.2546                 1.0668
 Frc consts  --      1.7540                 1.5434                 1.4382
 IR Inten    --     18.8446                 8.3147                 7.2107

                     43                     44                     45
                      A                      A                      A
 Frequencies --   1515.6363              1516.6494              1518.4344
 Red. masses --      1.0549                 1.0554                 1.0730
 Frc consts  --      1.4278                 1.4304                 1.4576
 IR Inten    --      6.4530                 2.1247                 7.7244

                     46                     47                     48
                      A                      A                      A
 Frequencies --   1523.9990              1538.9135              1557.8906
 Red. masses --      1.0653                 1.0536                 1.3098
 Frc consts  --      1.4578                 1.4702                 1.8730
 IR Inten    --     24.5898                 5.2456                64.2547

                     49                     50                     51
                      A                      A                      A
 Frequencies --   1726.0521              1799.8127              3024.8834
 Red. masses --      5.5325                 9.4067                 1.0458
 Frc consts  --      9.7113                17.9532                 5.6380
 IR Inten    --     21.4142               301.7760                22.2929

                     52                     53                     54
                      A                      A                      A
 Frequencies --   3043.0614              3047.5478              3080.3591
 Red. masses --      1.0368                 1.0381                 1.0844
 Frc consts  --      5.6568                 5.6807                 6.0623
 IR Inten    --     19.1010                20.4119                 3.4656

                     55                     56                     57
                      A                      A                      A
 Frequencies --   3084.0434              3109.1466              3118.8254
 Red. masses --      1.0878                 1.1004                 1.1003
 Frc consts  --      6.0958                 6.2673                 6.3059
 IR Inten    --     25.7482                 2.7758                55.5187

                     58                     59                     60
                      A                      A                      A
 Frequencies --   3122.2918              3124.6236              3135.4907
 Red. masses --      1.1021                 1.1014                 1.1033
 Frc consts  --      6.3299                 6.3358                 6.3906
 IR Inten    --     42.1651                 9.2046                27.2230

                     61                     62                     63
                      A                      A                      A
 Frequencies --   3224.4179              3502.3128              3701.6360
 Red. masses --      1.0894                 1.0729                 1.0643
 Frc consts  --      6.6730                 7.7536                 8.5918
 IR Inten    --      1.9965                20.4168                68.0163

 - Thermochemistry -
 -------------------
 Temperature   298.150 Kelvin.  Pressure   1.00000 Atm.
 Atom     1 has atomic number  6 and mass  12.00000

 Molecular mass:   143.09463 amu.
 Principal axes and moments of inertia in atomic units:
                           1         2         3
     Eigenvalues --  1081.274241856.468862511.04602
           X            0.99941  -0.03439  -0.00201
           Y            0.03437   0.99936  -0.00994
           Z            0.00235   0.00986   0.99995
 This molecule is an asymmetric top.
 Rotational symmetry number  1.
 Warning -- assumption of classical behavior for rotation
           may cause significant error
 Rotational temperatures (Kelvin)      0.08010     0.04666     0.03449
 Rotational constants (GHZ):           1.66909     0.97214     0.71872
 Zero-point vibrational energy     522134.7 (Joules/Mol)
                                  124.79319 (Kcal/Mol)
 Warning -- explicit consideration of  16 degrees of freedom as
           vibrations may cause significant error
 Vibrational temperatures:     48.74    91.07   110.64   214.78   266.66
          (Kelvin)            322.98   331.44   341.82   379.00   456.97
                              484.55   560.87   616.28   651.21   733.54
                              773.54   902.71   948.99  1083.81  1098.20
                             1212.11  1239.06  1297.01  1356.12  1381.05
                             1394.02  1499.76  1532.73  1594.98  1667.33
                             1671.08  1725.49  1736.25  1769.67  1970.40
                             1988.65  2004.74  2034.95  2053.01  2078.19
                             2079.00  2176.34  2180.66  2182.12  2184.69
                             2192.69  2214.15  2241.46  2483.40  2589.53
                             4352.13  4378.29  4384.74  4431.95  4437.25
                             4473.37  4487.29  4492.28  4495.64  4511.27
                             4639.22  5039.05  5325.83

 Zero-point correction=                           0.198871 (Hartree/Particle)
 Thermal correction to Energy=                    0.210479
 Thermal correction to Enthalpy=                  0.211423
 Thermal correction to Gibbs Free Energy=         0.161055
 Sum of electronic and zero-point Energies=           -479.610694
 Sum of electronic and thermal Energies=              -479.599086
 Sum of electronic and thermal Enthalpies=            -479.598142
 Sum of electronic and thermal Free Energies=         -479.648509

                     E (Thermal)             CV                S
                      KCal/Mol        Cal/Mol-Kelvin    Cal/Mol-Kelvin
 Total                  132.077             42.131            106.007
 Electronic               0.000              0.000              0.000
 Translational            0.889              2.981             40.786
 Rotational               0.889              2.981             30.001
 Vibrational            130.300             36.169             35.221
 Vibration     1          0.594              1.983              5.589
 Vibration     2          0.597              1.972              4.352
 Vibration     3          0.599              1.965              3.968
 Vibration     4          0.618              1.903              2.681
 Vibration     5          0.631              1.860              2.274
 Vibration     6          0.649              1.804              1.923
 Vibration     7          0.652              1.795              1.876
 Vibration     8          0.656              1.783              1.821
 Vibration     9          0.670              1.740              1.639
 Vibration    10          0.704              1.640              1.322
 Vibration    11          0.717              1.602              1.227
 Vibration    12          0.758              1.492              1.001
 Vibration    13          0.790              1.409              0.864
 Vibration    14          0.811              1.355              0.788
 Vibration    15          0.865              1.228              0.634
 Vibration    16          0.893              1.167              0.570

 Optimization completed.
    -- Stationary point found.
 Normal termination of Gaussian 16 at Tue Dec  8 13:23:24 2020.

 ----------------------------------------------------------------------
 # B3LYP/6-311++G(d,p) empiricaldispersion=gd3bj scf=xqc pop=npa geom=c
 heck
 ----------------------------------------------------------------------

 --------------------------------------
 CID_150632717_JID_844_Energie_neutraal
 --------------------------------------
 Structure from the checkpoint file:  "JID_844.chk"
 Charge =  0 Multiplicity = 1

 SCF Done:  E(RB3LYP) =  -479.961661925     A.U. after   14 cycles
 Normal termination of Gaussian 16 at Tue Dec  8 13:26:53 2020.

 ----------------------------------------------------------------------
 # B3LYP/6-311++G(d,p) empiricaldispersion=gd3bj scf=xqc pop=npa geom=c
 heck
 ----------------------------------------------------------------------

 ------------------------------------
 CID_150632717_JID_844_Energie_kation
 ------------------------------------
 Structure from the checkpoint file:  "JID_844.chk"
 Charge =  1 Multiplicity = 2

 SCF Done:  E(UB3LYP) =  -479.665103552     A.U. after   20 cycles
 Normal termination of Gaussian 16 at Tue Dec  8 13:31:41 2020.
 Gaussian 16:  ES64L-G16RevA.03 25-Dec-2016

 ----------------------------------------------------------------------
 # B3LYP/6-311++G(d,p) empiricaldispersion=gd3bj scf=xqc pop=npa geom=c
 heck
 ----------------------------------------------------------------------

 -----------------------------------
 CID_150632717_JID_844_Energie_anion
 -----------------------------------
 Structure from the checkpoint file:  "JID_844.chk"
 Charge = -1 Multiplicity = 2

                         Standard orientation:
 ---------------------------------------------------------------------
 Center     Atomic      Atomic             Coordinates (Angstroms)
 Number     Number       Type             X           Y           Z
 ---------------------------------------------------------------------
      1          6           0        0.052971    2.731864   -0.042496
      2          6           0       -0.907457    1.596196    0.118241
      3          6           0       -0.644965    0.320051   -0.232262
      4          6           0       -1.692227   -0.732676   -0.144987
      5          8           0       -1.496991   -1.898301   -0.444370
      6          8           0       -2.902847   -0.296456    0.278641
      7          7           0        0.584404   -0.140029   -0.735384
      8          6           0        1.768189   -0.085321    0.146860
      9          6           0        1.573203   -0.886212    1.440956
     10          6           0        2.976763   -0.574180   -0.649628
     11          1           0        0.774567    2.517828   -0.838017
     12          1           0        0.620249    2.930501    0.878697
     13          1           0       -0.480980    3.656453   -0.289007
     14          1           0       -1.887558    1.811984    0.528651
     15          1           0       -3.476443   -1.084374    0.280114
     16          1           0        0.458639   -1.094655   -1.067046
     17          1           0        1.931718    0.964757    0.409216
     18          1           0        1.401286   -1.945542    1.215267
     19          1           0        2.455319   -0.811745    2.087531
     20          1           0        0.708520   -0.514216    2.000648
     21          1           0        3.103382    0.017555   -1.561325
     22          1           0        3.891264   -0.503384   -0.051540
     23          1           0        2.849049   -1.625236   -0.939770
 ---------------------------------------------------------------------

 SCF Done:  E(UB3LYP) =  -479.950009703     A.U. after   33 cycles
 SCF Done:  E(UB3LYP) =  -479.950009703     a.u. after    1 cycles

 The electronic state is 2-A.
 Alpha  occ. eigenvalues --  -19.03078 -18.96044 -14.17138 -10.14162 -10.07811
 Alpha  occ. eigenvalues --  -10.05582 -10.04170 -10.03601 -10.03503 -10.01952
 Alpha  occ. eigenvalues --   -0.96772  -0.87429  -0.78875  -0.66512  -0.62623
 Alpha  occ. eigenvalues --   -0.57114  -0.56608  -0.48427  -0.47172  -0.42068
 Alpha  occ. eigenvalues --   -0.38254  -0.34649  -0.33712  -0.32800  -0.31761
 Alpha  occ. eigenvalues --   -0.30425  -0.28784  -0.28119  -0.27856  -0.26954
 Alpha  occ. eigenvalues --   -0.26092  -0.23843  -0.23351  -0.23015  -0.21073
 Alpha  occ. eigenvalues --   -0.19158  -0.15879  -0.14250  -0.08163   0.05656
 Alpha virt. eigenvalues --    0.07701   0.08466   0.09001   0.09774   0.10852
 Alpha virt. eigenvalues --    0.11508   0.12154   0.12667   0.13703   0.14170
 Alpha virt. eigenvalues --    0.14956   0.15654   0.15854   0.17513   0.17750

  Beta  occ. eigenvalues --  -19.03033 -18.95802 -14.17143 -10.13896 -10.07794
  Beta  occ. eigenvalues --  -10.05567 -10.04139 -10.03585 -10.03509 -10.01630
  Beta  occ. eigenvalues --   -0.96520  -0.87082  -0.78812  -0.66291  -0.62366
  Beta  occ. eigenvalues --   -0.56982  -0.56410  -0.48073  -0.47075  -0.41795
  Beta  occ. eigenvalues --   -0.38084  -0.34362  -0.33529  -0.32636  -0.31492
  Beta  occ. eigenvalues --   -0.29776  -0.28592  -0.27950  -0.27632  -0.26920
  Beta  occ. eigenvalues --   -0.25963  -0.23683  -0.23241  -0.22984  -0.21000
  Beta  occ. eigenvalues --   -0.18336  -0.15308  -0.14034  -0.07260
  Beta virt. eigenvalues --    0.08093   0.08665   0.09319   0.10080   0.10828
  Beta virt. eigenvalues --    0.11298   0.11894   0.12531   0.12670   0.13754
  Beta virt. eigenvalues --    0.14317   0.14983   0.15635   0.16046   0.17518

 Mulliken charges and spin densities:
               1          2
     1  C    0.628870  -1.501424
     2  C   -0.176137   0.577007
     3  C   -0.298797   0.167308
     4  C   -0.239873   0.344031
     5  O   -0.397747   0.079845
     6  O   -0.220057   0.010979
     7  N    0.059894   0.040566
     8  C   -0.829831   0.744204
     9  C   -0.081978  -0.505325
    10  C    0.901458  -1.382707
    11  H    0.011798   0.141637
    12  H   -0.407125   0.572030
    13  H    0.029480   0.084377
    14  H    0.051329   0.130379
    15  H    0.152431   0.102370
    16  H    0.184594   0.043699
    17  H    0.029157   0.119187
    18  H    0.175917  -0.035559
    19  H   -0.167105   0.295299
    20  H    0.104959   0.061615
    21  H   -0.192564   0.340503
    22  H   -0.293944   0.425249
    23  H   -0.024729   0.144730
 Sum of Mulliken charges =  -1.00000   1.00000

 Dipole moment (field-independent basis, Debye):
    X=             -2.8369    Y=             -1.6801    Z=              0.1884  Tot=              3.3025
 Quadrupole moment (field-independent basis, Debye-Ang):
   XX=           -103.3820   YY=            -93.9644   ZZ=            -82.5472
   XY=             -3.5567   XZ=             -4.2275   YZ=             -4.2841

 Summary of Natural Population Analysis:

                                       Natural Population
                Natural  -----------------------------------------------
    Atom  No    Charge         Core      Valence    Rydberg      Total
 -----------------------------------------------------------------------
      C    1   -0.31123      0.99966     2.30565    0.00592     3.31123
      C    2   -0.02610      0.99951     2.01763    0.00896     3.02610
      C    3    0.01405      0.99941     1.97342    0.01312     2.98595
      C    4    0.41869      0.99964     1.55818    0.02348     2.58131
      O    5   -0.31730      0.99987     3.31116    0.00627     4.31730
      O    6   -0.35099      0.99988     3.34475    0.00637     4.35099
      N    7   -0.33812      0.99970     2.82595    0.01247     3.83812
      C    8   -0.01340      0.99961     2.00149    0.01231     3.01340
      C    9   -0.29406      0.99965     2.28827    0.00615     3.29406
      C   10   -0.28544      0.99965     2.27893    0.00686     3.28544
      H   11    0.10346      0.00000     0.39521    0.00133     0.39654
      H   12    0.10733      0.00000     0.38982    0.00286     0.39267
      H   13    0.09691      0.00000     0.40230    0.00079     0.40309
      H   14    0.09597      0.00000     0.40267    0.00136     0.40403
      H   15    0.23200      0.00000     0.26399    0.00401     0.26800
      H   16    0.18651      0.00000     0.31052    0.00297     0.31349
      H   17    0.09258      0.00000     0.40435    0.00307     0.40742
      H   18    0.09593      0.00000     0.40322    0.00085     0.40407
      H   19    0.09548      0.00000     0.40360    0.00092     0.40452
      H   20    0.10422      0.00000     0.39488    0.00090     0.39578
      H   21    0.10240      0.00000     0.39619    0.00141     0.39760
      H   22    0.09876      0.00000     0.40013    0.00111     0.40124
      H   23    0.09237      0.00000     0.40663    0.00100     0.40763
 =======================================================================
   * Total *    0.00000      9.99657    28.87893    0.12449    39.00000

 Normal termination of Gaussian 16 at Tue Dec  8 13:40:29 2020.
