 Gaussian 16, Revision A.03,

 -----------------------------------------------------------
 # opt freq B3LYP/6-31G(d) empiricaldispersion=gd3bj scf=xqc
 -----------------------------------------------------------

 -------------------------------
 CID_149910599_JID_1409_neutraal
 -------------------------------
 Symbolic Z-matrix:
 Charge =  0 Multiplicity = 1

 SCF Done:  E(RB3LYP) =  -901.266524020     A.U. after   17 cycles
 SCF Done:  E(RB3LYP) =  -901.281357808     A.U. after   15 cycles
 SCF Done:  E(RB3LYP) =  -901.284449004     A.U. after   14 cycles
 SCF Done:  E(RB3LYP) =  -901.285326192     A.U. after   14 cycles
 SCF Done:  E(RB3LYP) =  -901.285810164     A.U. after   13 cycles
 SCF Done:  E(RB3LYP) =  -901.285973194     A.U. after   14 cycles
 SCF Done:  E(RB3LYP) =  -901.286018078     A.U. after   12 cycles
 SCF Done:  E(RB3LYP) =  -901.286048999     A.U. after   12 cycles
 SCF Done:  E(RB3LYP) =  -901.286096880     A.U. after   13 cycles
 SCF Done:  E(RB3LYP) =  -901.286144501     A.U. after   16 cycles
 SCF Done:  E(RB3LYP) =  -901.287658535     A.U. after   16 cycles
 SCF Done:  E(RB3LYP) =  -901.287824443     A.U. after   15 cycles
 SCF Done:  E(RB3LYP) =  -901.287845754     A.U. after   13 cycles
 SCF Done:  E(RB3LYP) =  -901.287849301     A.U. after   11 cycles
 SCF Done:  E(RB3LYP) =  -901.287849856     A.U. after   10 cycles
 SCF Done:  E(RB3LYP) =  -901.287849953     A.U. after    8 cycles
 Optimization completed.
    -- Stationary point found.
 Normal termination of Gaussian 16 at Tue Dec  8 19:55:54 2020.

 --------------------------------------------------------------------
 #N Geom=AllCheck Guess=TCheck SCRF=Check GenChk RB3LYP/6-31G(d) Freq
 --------------------------------------------------------------------

 Structure from the checkpoint file:  "JID_1409.chk"
 -------------------------------
 CID_149910599_JID_1409_neutraal
 -------------------------------
 Charge =  0 Multiplicity = 1

 SCF Done:  E(RB3LYP) =  -901.287849953     A.U. after    1 cycles

  Exact polarizability: 110.145  -3.653  82.290  -7.707  -9.331  76.942
 Approx polarizability: 164.106 -14.297 173.456 -15.311 -37.346 162.364

                      1                      2                      3
                      A                      A                      A
 Frequencies --     29.0301                44.1297               101.1362
 Red. masses --      9.9903                 8.0086                 8.4061
 Frc consts  --      0.0050                 0.0092                 0.0507
 IR Inten    --      0.3074                 0.0063                 1.1050

                      4                      5                      6
                      A                      A                      A
 Frequencies --    142.2114               185.4050               248.5731
 Red. masses --      9.5447                 7.6049                 6.8464
 Frc consts  --      0.1137                 0.1540                 0.2492
 IR Inten    --      0.2887                 3.5313                 4.5038

                      7                      8                      9
                      A                      A                      A
 Frequencies --    311.3461               371.1928               408.0100
 Red. masses --      8.8181                14.2602                 4.1308
 Frc consts  --      0.5036                 1.1576                 0.4052
 IR Inten    --      0.3255                 6.9798                 1.5577

                     10                     11                     12
                      A                      A                      A
 Frequencies --    468.2299               471.0062               535.7353
 Red. masses --      8.6484                16.2880                 9.5880
 Frc consts  --      1.1171                 2.1290                 1.6214
 IR Inten    --     21.6095               103.7105                68.5957

                     13                     14                     15
                      A                      A                      A
 Frequencies --    587.3195               625.1275               691.2086
 Red. masses --     14.1152                 9.7420                13.6359
 Frc consts  --      2.8687                 2.2430                 3.8384
 IR Inten    --     15.0766                 4.3219                 6.0718

                     16                     17                     18
                      A                      A                      A
 Frequencies --    766.6784               774.9576               870.5815
 Red. masses --      3.8287                 7.2505                 1.3244
 Frc consts  --      1.3259                 2.5655                 0.5914
 IR Inten    --      2.9588                 7.5511                 8.1407

                     19                     20                     21
                      A                      A                      A
 Frequencies --    972.0637               994.6442              1033.3609
 Red. masses --      1.3063                 1.4868                 5.4892
 Frc consts  --      0.7273                 0.8666                 3.4536
 IR Inten    --      0.0567                 0.0707                30.9439

                     22                     23                     24
                      A                      A                      A
 Frequencies --   1073.2506              1134.8092              1156.1730
 Red. masses --      3.3585                 9.1740                 3.4190
 Frc consts  --      2.2793                 6.9607                 2.6927
 IR Inten    --      8.2539               109.5995                13.7106

                     25                     26                     27
                      A                      A                      A
 Frequencies --   1202.5028              1248.4409              1251.0831
 Red. masses --      1.8727                13.3246                12.1497
 Frc consts  --      1.5955                12.2360                11.2044
 IR Inten    --      9.2526               111.5204                33.6003

                     28                     29                     30
                      A                      A                      A
 Frequencies --   1321.9219              1433.0004              1502.3732
 Red. masses --      1.4297                 1.7858                 2.1124
 Frc consts  --      1.4720                 2.1606                 2.8092
 IR Inten    --      0.7905                29.9852                11.3546

                     31                     32                     33
                      A                      A                      A
 Frequencies --   1585.3192              1615.5022              2226.4237
 Red. masses --      7.9613                 5.0647                14.0068
 Frc consts  --     11.7887                 7.7879                40.9076
 IR Inten    --      2.3731                 3.0198               409.2356

                     34                     35                     36
                      A                      A                      A
 Frequencies --   3192.1238              3209.2281              3224.7341
 Red. masses --      1.0885                 1.0963                 1.0923
 Frc consts  --      6.5350                 6.6527                 6.6926
 IR Inten    --      2.5559                28.9200                 0.9584

 - Thermochemistry -
 -------------------
 Temperature   298.150 Kelvin.  Pressure   1.00000 Atm.
 Atom     1 has atomic number  6 and mass  12.00000

 Molecular mass:   169.00583 amu.
 Principal axes and moments of inertia in atomic units:
                           1         2         3
     Eigenvalues --  1059.632542379.121152576.95991
           X            0.99991  -0.00700  -0.01141
           Y            0.00668   0.99959  -0.02788
           Z            0.01160   0.02780   0.99955
 This molecule is an asymmetric top.
 Rotational symmetry number  1.
 Warning -- assumption of classical behavior for rotation
           may cause significant error
 Rotational temperatures (Kelvin)      0.08174     0.03641     0.03361
 Rotational constants (GHZ):           1.70318     0.75857     0.70034
 Zero-point vibrational energy     221362.0 (Joules/Mol)
                                   52.90678 (Kcal/Mol)
 Warning -- explicit consideration of  13 degrees of freedom as
           vibrations may cause significant error
 Vibrational temperatures:     41.77    63.49   145.51   204.61   266.76
          (Kelvin)            357.64   447.96   534.06   587.04   673.68
                              677.67   770.80   845.02   899.42   994.49
                             1103.08  1114.99  1252.57  1398.58  1431.07
                             1486.78  1544.17  1632.74  1663.48  1730.13
                             1796.23  1800.03  1901.95  2061.77  2161.58
                             2280.92  2324.35  3203.33  4592.75  4617.36
                             4639.67

 Zero-point correction=                           0.084312 (Hartree/Particle)
 Thermal correction to Energy=                    0.093991
 Thermal correction to Enthalpy=                  0.094936
 Thermal correction to Gibbs Free Energy=         0.047147
 Sum of electronic and zero-point Energies=           -901.203538
 Sum of electronic and thermal Energies=              -901.193858
 Sum of electronic and thermal Enthalpies=            -901.192914
 Sum of electronic and thermal Free Energies=         -901.240703

                     E (Thermal)             CV                S
                      KCal/Mol        Cal/Mol-Kelvin    Cal/Mol-Kelvin
 Total                   58.981             33.571            100.580
 Electronic               0.000              0.000              0.000
 Translational            0.889              2.981             41.282
 Rotational               0.889              2.981             30.253
 Vibrational             57.203             27.609             29.045
 Vibration     1          0.593              1.984              5.895
 Vibration     2          0.595              1.980              5.065
 Vibration     3          0.604              1.948              3.432
 Vibration     4          0.616              1.911              2.774
 Vibration     5          0.631              1.860              2.273
 Vibration     6          0.662              1.765              1.741
 Vibration     7          0.700              1.652              1.355
 Vibration     8          0.743              1.531              1.075
 Vibration     9          0.773              1.453              0.934
 Vibration    10          0.825              1.321              0.743
 Vibration    11          0.828              1.314              0.735
 Vibration    12          0.891              1.171              0.575
 Vibration    13          0.944              1.059              0.472

 Optimization completed.
    -- Stationary point found.
 Normal termination of Gaussian 16 at Tue Dec  8 19:58:25 2020.

 ----------------------------------------------------------------------
 # B3LYP/6-311++G(d,p) empiricaldispersion=gd3bj scf=xqc pop=npa geom=c
 heck
 ----------------------------------------------------------------------

 ---------------------------------------
 CID_149910599_JID_1409_Energie_neutraal
 ---------------------------------------
 Structure from the checkpoint file:  "JID_1409.chk"
 Charge =  0 Multiplicity = 1

 SCF Done:  E(RB3LYP) =  -901.451314147     A.U. after   16 cycles
 Normal termination of Gaussian 16 at Tue Dec  8 19:59:38 2020.

 ----------------------------------------------------------------------
 # B3LYP/6-311++G(d,p) empiricaldispersion=gd3bj scf=xqc pop=npa geom=c
 heck
 ----------------------------------------------------------------------

 -------------------------------------
 CID_149910599_JID_1409_Energie_kation
 -------------------------------------
 Structure from the checkpoint file:  "JID_1409.chk"
 Charge =  1 Multiplicity = 2

 SCF Done:  E(UB3LYP) =  -901.104384864     A.U. after   24 cycles
 Normal termination of Gaussian 16 at Tue Dec  8 20:02:18 2020.
 Gaussian 16:  ES64L-G16RevA.03 25-Dec-2016

 ----------------------------------------------------------------------
 # B3LYP/6-311++G(d,p) empiricaldispersion=gd3bj scf=xqc pop=npa geom=c
 heck
 ----------------------------------------------------------------------

 ------------------------------------
 CID_149910599_JID_1409_Energie_anion
 ------------------------------------
 Structure from the checkpoint file:  "JID_1409.chk"
 Charge = -1 Multiplicity = 2

                         Standard orientation:
 ---------------------------------------------------------------------
 Center     Atomic      Atomic             Coordinates (Angstroms)
 Number     Number       Type             X           Y           Z
 ---------------------------------------------------------------------
      1          6           0       -2.939954    0.494412   -0.075360
      2          6           0       -2.479631   -0.232266    1.028764
      3          7           0       -1.239854   -0.728133    1.068375
      4          6           0       -0.492915   -0.489373   -0.003603
      5          6           0       -0.939245    0.216442   -1.120747
      6          7           0       -2.179636    0.720783   -1.151394
      7         16           0        1.209613   -1.162177    0.048104
      8          8           0        1.727985   -0.990079   -1.342224
      9          7           0        1.865223    0.162880    1.130508
     10          7           0        1.860538    1.253280    0.535012
     11          7           0        1.878697    2.267088    0.014419
     12          1           0       -3.948479    0.900448   -0.091463
     13          1           0       -3.115889   -0.415865    1.890622
     14          1           0       -0.297617    0.364306   -1.983786
 ---------------------------------------------------------------------

 SCF Done:  E(UB3LYP) =  -901.495399530     A.U. after   26 cycles

 The electronic state is 2-A.
 Alpha  occ. eigenvalues --  -88.81791 -18.95918 -14.32401 -14.22788 -14.21253
 Alpha  occ. eigenvalues --  -14.17933 -14.17630 -10.08241 -10.08229 -10.08079
 Alpha  occ. eigenvalues --  -10.06902  -7.89408  -5.85745  -5.85532  -5.84991
 Alpha  occ. eigenvalues --   -0.99155  -0.89909  -0.84452  -0.82108  -0.77187
 Alpha  occ. eigenvalues --   -0.65014  -0.57911  -0.52587  -0.50236  -0.40610
 Alpha  occ. eigenvalues --   -0.38408  -0.38074  -0.36542  -0.35960  -0.33674
 Alpha  occ. eigenvalues --   -0.31144  -0.30472  -0.29471  -0.26079  -0.25652
 Alpha  occ. eigenvalues --   -0.21610  -0.20253  -0.17546  -0.15260  -0.15184
 Alpha  occ. eigenvalues --   -0.13051  -0.12447  -0.10000   0.02110
 Alpha virt. eigenvalues --    0.07274   0.08951   0.10301   0.11363   0.11861
 Alpha virt. eigenvalues --    0.12795   0.14514   0.14719   0.16076   0.16664
 Alpha virt. eigenvalues --    0.17236   0.17773   0.18509   0.19085   0.19802

  Beta  occ. eigenvalues --  -88.81667 -18.95728 -14.32238 -14.22400 -14.21144
  Beta  occ. eigenvalues --  -14.17661 -14.17134 -10.08315 -10.08158 -10.08089
  Beta  occ. eigenvalues --  -10.06672  -7.89285  -5.85532  -5.85330  -5.84909
  Beta  occ. eigenvalues --   -0.98670  -0.89504  -0.83909  -0.81658  -0.76471
  Beta  occ. eigenvalues --   -0.64636  -0.57204  -0.52360  -0.49689  -0.40008
  Beta  occ. eigenvalues --   -0.38137  -0.37594  -0.36038  -0.35455  -0.33466
  Beta  occ. eigenvalues --   -0.30695  -0.29932  -0.28250  -0.25885  -0.24957
  Beta  occ. eigenvalues --   -0.20909  -0.18308  -0.17008  -0.14725  -0.14315
  Beta  occ. eigenvalues --   -0.12310  -0.11948  -0.09672
  Beta virt. eigenvalues --    0.08071   0.08918   0.09094   0.11178   0.11461
  Beta virt. eigenvalues --    0.12071   0.12862   0.14768   0.14953   0.16181
  Beta virt. eigenvalues --    0.16893   0.17350   0.17845   0.18541   0.19264

 Mulliken charges and spin densities:
               1          2
     1  C   -0.332493   0.195042
     2  C    0.123066  -0.064730
     3  N   -0.015261   0.205670
     4  C   -0.715338   0.100298
     5  C   -0.020469  -0.014892
     6  N   -0.096492   0.107494
     7  S    0.345562   0.187346
     8  O   -0.453018   0.041231
     9  N   -0.405982   0.030737
    10  N    0.283956   0.068061
    11  N   -0.225212   0.151751
    12  H    0.122650  -0.014616
    13  H    0.149522   0.002106
    14  H    0.239510   0.004502
 Sum of Mulliken charges =  -1.00000   1.00000

 Dipole moment (field-independent basis, Debye):
    X=             -2.1901    Y=             -0.9295    Z=              1.5336  Tot=              2.8307
 Quadrupole moment (field-independent basis, Debye-Ang):
   XX=            -91.7896   YY=            -85.7234   ZZ=            -84.8035
   XY=             -0.3811   XZ=             -1.7617   YZ=              1.7584

 Summary of Natural Population Analysis:

                                       Natural Population
                Natural  -----------------------------------------------
    Atom  No    Charge         Core      Valence    Rydberg      Total
 -----------------------------------------------------------------------
      C    1    0.03980      0.99961     1.94637    0.01422     2.96020
      C    2   -0.01763      0.99960     2.00399    0.01403     3.01763
      N    3   -0.15535      0.99965     2.64163    0.01406     3.65535
      C    4   -0.00036      0.99944     1.97734    0.02358     3.00036
      C    5   -0.00745      0.99950     1.99106    0.01689     3.00745
      N    6   -0.18882      0.99972     2.67706    0.01204     3.68882
      S    7    0.68679      4.99941     2.25379    0.06001     7.31321
      O    8   -0.45629      0.99993     3.44820    0.00816     4.45629
      N    9   -0.28303      0.99976     2.76594    0.01733     3.78303
      N   10    0.11408      0.99971     2.36871    0.01749     3.38592
      N   11   -0.00107      0.99982     2.48807    0.01317     3.50107
      H   12    0.08068      0.00000     0.41794    0.00138     0.41932
      H   13    0.08369      0.00000     0.41471    0.00160     0.41631
      H   14    0.10495      0.00000     0.39371    0.00134     0.39505
 =======================================================================
   * Total *   -0.00000     14.99615    27.78853    0.21532    43.00000

 Normal termination of Gaussian 16 at Tue Dec  8 20:05:09 2020.
