 Gaussian 16, Revision A.03,

 -----------------------------------------------------------
 # opt freq B3LYP/6-31G(d) empiricaldispersion=gd3bj scf=xqc
 -----------------------------------------------------------

 ------------------------------
 CID_84146800_JID_7595_neutraal
 ------------------------------
 Symbolic Z-matrix:
 Charge =  0 Multiplicity = 1

 SCF Done:  E(RB3LYP) =  -836.840585864     A.U. after   15 cycles
 SCF Done:  E(RB3LYP) =  -836.829192274     A.U. after   13 cycles
 SCF Done:  E(RB3LYP) =  -836.847234557     A.U. after   12 cycles
 SCF Done:  E(RB3LYP) =  -836.849149957     A.U. after   12 cycles
 SCF Done:  E(RB3LYP) =  -836.849823589     A.U. after   12 cycles
 SCF Done:  E(RB3LYP) =  -836.850414264     A.U. after   12 cycles
 SCF Done:  E(RB3LYP) =  -836.850922011     A.U. after   11 cycles
 SCF Done:  E(RB3LYP) =  -836.851060604     A.U. after   11 cycles
 SCF Done:  E(RB3LYP) =  -836.851001528     A.U. after   11 cycles
 SCF Done:  E(RB3LYP) =  -836.851117270     A.U. after   11 cycles
 SCF Done:  E(RB3LYP) =  -836.851134479     A.U. after    9 cycles
 SCF Done:  E(RB3LYP) =  -836.851139973     A.U. after   10 cycles
 SCF Done:  E(RB3LYP) =  -836.851140568     A.U. after    8 cycles
 SCF Done:  E(RB3LYP) =  -836.851140991     A.U. after    8 cycles
 SCF Done:  E(RB3LYP) =  -836.851141113     A.U. after    7 cycles
 Optimization completed.
    -- Stationary point found.
 Normal termination of Gaussian 16 at Sun Dec 13 20:15:23 2020.

 --------------------------------------------------------------------
 #N Geom=AllCheck Guess=TCheck SCRF=Check GenChk RB3LYP/6-31G(d) Freq
 --------------------------------------------------------------------

 Structure from the checkpoint file:  "JID_7595.chk"
 ------------------------------
 CID_84146800_JID_7595_neutraal
 ------------------------------
 Charge =  0 Multiplicity = 1

 SCF Done:  E(RB3LYP) =  -836.851141113     A.U. after    1 cycles

  Exact polarizability: 189.492 -11.635 124.392  11.562  16.457  98.628
 Approx polarizability: 283.856 -30.709 205.826  30.658  41.144 156.923

                      1                      2                      3
                      A                      A                      A
 Frequencies --     36.8125                50.6507                65.3373
 Red. masses --      5.2246                 5.2413                 3.4818
 Frc consts  --      0.0042                 0.0079                 0.0088
 IR Inten    --      1.2484                 1.4788                 0.5536

                      4                      5                      6
                      A                      A                      A
 Frequencies --     86.5794               103.0820               142.7658
 Red. masses --      7.1527                 5.3350                 6.1302
 Frc consts  --      0.0316                 0.0334                 0.0736
 IR Inten    --      0.9515                 0.6582                 0.3871

                      7                      8                      9
                      A                      A                      A
 Frequencies --    151.6563               175.5921               202.6676
 Red. masses --      5.8500                 5.0559                 4.4849
 Frc consts  --      0.0793                 0.0918                 0.1085
 IR Inten    --      0.7438                 0.9593                 8.6044

                     10                     11                     12
                      A                      A                      A
 Frequencies --    230.2800               306.5605               321.7265
 Red. masses --      4.4595                 7.2893                 5.3920
 Frc consts  --      0.1393                 0.4036                 0.3288
 IR Inten    --      1.1031                 0.7550                 4.3552

                     13                     14                     15
                      A                      A                      A
 Frequencies --    336.0240               355.7732               386.6108
 Red. masses --      5.5076                 8.5682                 5.0205
 Frc consts  --      0.3664                 0.6390                 0.4421
 IR Inten    --      1.8385                 1.7786                 4.2585

                     16                     17                     18
                      A                      A                      A
 Frequencies --    412.8610               479.4606               486.2703
 Red. masses --      3.2020                 5.7801                 3.6662
 Frc consts  --      0.3216                 0.7829                 0.5108
 IR Inten    --      5.2695                 5.0044                 8.0610

                     19                     20                     21
                      A                      A                      A
 Frequencies --    526.4179               536.7987               554.2520
 Red. masses --      1.9736                 2.0065                 3.5260
 Frc consts  --      0.3222                 0.3407                 0.6382
 IR Inten    --     65.5724                 6.3123                28.3970

                     22                     23                     24
                      A                      A                      A
 Frequencies --    576.2707               621.5780               630.5751
 Red. masses --      2.1506                 1.7745                 3.2386
 Frc consts  --      0.4208                 0.4039                 0.7587
 IR Inten    --     52.0309                65.7877                49.8018

                     25                     26                     27
                      A                      A                      A
 Frequencies --    674.7203               698.1791               726.3111
 Red. masses --      2.1690                 3.3936                 3.6946
 Frc consts  --      0.5818                 0.9747                 1.1483
 IR Inten    --      2.8920                30.3594                19.0691

                     28                     29                     30
                      A                      A                      A
 Frequencies --    751.5370               771.8481               772.6678
 Red. masses --      1.4819                 4.5866                 4.4334
 Frc consts  --      0.4932                 1.6099                 1.5594
 IR Inten    --     39.7866                43.1984                15.4472

                     31                     32                     33
                      A                      A                      A
 Frequencies --    783.5869               804.1303               835.9706
 Red. masses --      1.5379                 2.6564                 1.4781
 Frc consts  --      0.5564                 1.0120                 0.6086
 IR Inten    --     33.4884                27.2330                 2.8390

                     34                     35                     36
                      A                      A                      A
 Frequencies --    848.3008               860.4920               879.9628
 Red. masses --      2.3946                 1.4977                 2.0424
 Frc consts  --      1.0153                 0.6534                 0.9318
 IR Inten    --     27.0158                11.5162                30.9385

                     37                     38                     39
                      A                      A                      A
 Frequencies --    912.8642               926.8122               973.3398
 Red. masses --      2.7893                 1.8207                 3.3754
 Frc consts  --      1.3695                 0.9215                 1.8841
 IR Inten    --     21.5374                 4.7749                16.9849

                     40                     41                     42
                      A                      A                      A
 Frequencies --    981.5739              1024.0523              1050.4197
 Red. masses --      1.3037                 2.6384                 2.1819
 Frc consts  --      0.7401                 1.6302                 1.4184
 IR Inten    --      0.1146                10.6322                11.5803

                     43                     44                     45
                      A                      A                      A
 Frequencies --   1078.8371              1098.0693              1115.6677
 Red. masses --      1.4284                 1.3583                 3.2613
 Frc consts  --      0.9795                 0.9650                 2.3917
 IR Inten    --     20.0113                 5.9966               107.8098

                     46                     47                     48
                      A                      A                      A
 Frequencies --   1136.5363              1149.1729              1201.1646
 Red. masses --      1.1608                 1.4546                 1.8208
 Frc consts  --      0.8834                 1.1318                 1.5478
 IR Inten    --      4.5397                47.6050               174.0709

                     49                     50                     51
                      A                      A                      A
 Frequencies --   1206.1165              1211.2315              1247.7140
 Red. masses --      1.7532                 1.4102                 2.0374
 Frc consts  --      1.5027                 1.2190                 1.8688
 IR Inten    --     81.6469                19.9324                95.4663

                     52                     53                     54
                      A                      A                      A
 Frequencies --   1260.8160              1289.6422              1305.7194
 Red. masses --      1.9452                 1.5259                 3.9715
 Frc consts  --      1.8219                 1.4952                 3.9894
 IR Inten    --      6.5061                12.9942                63.5149

                     55                     56                     57
                      A                      A                      A
 Frequencies --   1362.3678              1394.0255              1398.9986
 Red. masses --      3.9954                 3.7597                 3.0971
 Frc consts  --      4.3692                 4.3047                 3.5714
 IR Inten    --     51.4758               256.0942               326.9915

                     58                     59                     60
                      A                      A                      A
 Frequencies --   1410.0341              1417.9895              1454.5592
 Red. masses --      1.3835                 1.7269                 1.3830
 Frc consts  --      1.6207                 2.0458                 1.7239
 IR Inten    --     19.9133                31.5366                 7.2371

                     61                     62                     63
                      A                      A                      A
 Frequencies --   1475.9395              1489.5647              1506.9765
 Red. masses --      1.7451                 1.1071                 2.7753
 Frc consts  --      2.2398                 1.4473                 3.7134
 IR Inten    --     54.3367                 4.1027                28.5446

                     64                     65                     66
                      A                      A                      A
 Frequencies --   1531.0020              1564.4173              1637.5783
 Red. masses --      1.3875                 3.3720                 5.4118
 Frc consts  --      1.9161                 4.8623                 8.5506
 IR Inten    --      5.1869                90.1535                83.3949

                     67                     68                     69
                      A                      A                      A
 Frequencies --   1670.1528              1818.3060              1822.9721
 Red. masses --      6.0790                 8.5958                 7.5617
 Frc consts  --      9.9906                16.7445                14.8057
 IR Inten    --     53.2383               859.4003               151.8775

                     70                     71                     72
                      A                      A                      A
 Frequencies --   3150.4634              3163.0199              3170.7654
 Red. masses --      1.0547                 1.0853                 1.0609
 Frc consts  --      6.1678                 6.3975                 6.2840
 IR Inten    --     11.5344                 8.5721                 3.9136

                     73                     74                     75
                      A                      A                      A
 Frequencies --   3216.2834              3224.5249              3231.8387
 Red. masses --      1.0890                 1.0908                 1.1184
 Frc consts  --      6.6371                 6.6823                 6.8824
 IR Inten    --      2.7323                 0.8518                 6.3316

                     76                     77                     78
                      A                      A                      A
 Frequencies --   3234.5177              3259.7950              3405.7829
 Red. masses --      1.0941                 1.1167                 1.0681
 Frc consts  --      6.7441                 6.9912                 7.2993
 IR Inten    --      2.0501                 3.8106               581.9309

                     79                     80                     81
                      A                      A                      A
 Frequencies --   3541.5443              3601.4633              3702.8194
 Red. masses --      1.0750                 1.0757                 1.0642
 Frc consts  --      7.9438                 8.2205                 8.5968
 IR Inten    --     22.4279                45.6946                79.2751

 - Thermochemistry -
 -------------------
 Temperature   298.150 Kelvin.  Pressure   1.00000 Atm.
 Atom     1 has atomic number  6 and mass  12.00000

 Molecular mass:   236.07971 amu.
 Principal axes and moments of inertia in atomic units:
                           1         2         3
     Eigenvalues --  2252.166006421.673956822.75413
           X            0.99982   0.01636  -0.00995
           Y           -0.01652   0.99975  -0.01538
           Z            0.00970   0.01554   0.99983
 This molecule is an asymmetric top.
 Rotational symmetry number  1.
 Warning -- assumption of classical behavior for rotation
           may cause significant error
 Rotational temperatures (Kelvin)      0.03846     0.01349     0.01269
 Rotational constants (GHZ):           0.80134     0.28104     0.26452
 Zero-point vibrational energy     599399.4 (Joules/Mol)
                                  143.25991 (Kcal/Mol)
 Warning -- explicit consideration of  22 degrees of freedom as
           vibrations may cause significant error
 Vibrational temperatures:     52.97    72.88    94.01   124.57   148.31
          (Kelvin)            205.41   218.20   252.64   291.59   331.32
                              441.07   462.89   483.46   511.88   556.25
                              594.01   689.84   699.63   757.40   772.33
                              797.45   829.13   894.31   907.26   970.77
                             1004.52  1045.00  1081.29  1110.52  1111.70
                             1127.41  1156.96  1202.78  1220.52  1238.06
                             1266.07  1313.41  1333.48  1400.42  1412.27
                             1473.38  1511.32  1552.21  1579.88  1605.20
                             1635.22  1653.40  1728.21  1735.33  1742.69
                             1795.18  1814.03  1855.51  1878.64  1960.14
                             2005.69  2012.85  2028.72  2040.17  2092.79
                             2123.55  2143.15  2168.20  2202.77  2250.85
                             2356.11  2402.98  2616.14  2622.85  4532.81
                             4550.88  4562.02  4627.51  4639.37  4649.90
                             4653.75  4690.12  4900.16  5095.49  5181.70
                             5327.53

 Zero-point correction=                           0.228299 (Hartree/Particle)
 Thermal correction to Energy=                    0.243334
 Thermal correction to Enthalpy=                  0.244278
 Thermal correction to Gibbs Free Energy=         0.185309
 Sum of electronic and zero-point Energies=           -836.622842
 Sum of electronic and thermal Energies=              -836.607807
 Sum of electronic and thermal Enthalpies=            -836.606863
 Sum of electronic and thermal Free Energies=         -836.665833

                     E (Thermal)             CV                S
                      KCal/Mol        Cal/Mol-Kelvin    Cal/Mol-Kelvin
 Total                  152.694             57.939            124.112
 Electronic               0.000              0.000              0.000
 Translational            0.889              2.981             42.279
 Rotational               0.889              2.981             32.956
 Vibrational            150.917             51.978             48.877
 Vibration     1          0.594              1.982              5.424
 Vibration     2          0.595              1.977              4.792
 Vibration     3          0.597              1.971              4.289
 Vibration     4          0.601              1.959              3.736
 Vibration     5          0.605              1.947              3.395
 Vibration     6          0.616              1.910              2.766
 Vibration     7          0.619              1.901              2.651
 Vibration     8          0.628              1.872              2.375
 Vibration     9          0.639              1.836              2.109
 Vibration    10          0.652              1.795              1.877
 Vibration    11          0.697              1.661              1.381
 Vibration    12          0.707              1.632              1.301
 Vibration    13          0.717              1.604              1.231
 Vibration    14          0.731              1.563              1.141
 Vibration    15          0.755              1.499              1.013
 Vibration    16          0.777              1.442              0.917
 Vibration    17          0.836              1.296              0.712
 Vibration    18          0.842              1.280              0.693
 Vibration    19          0.881              1.192              0.595
 Vibration    20          0.892              1.169              0.572
 Vibration    21          0.910              1.130              0.535
 Vibration    22          0.933              1.083              0.492

                           ! Non-Optimized Parameters !
 Normal termination of Gaussian 16 at Sun Dec 13 20:27:03 2020.

 ----------------------------------------------------------------------
 # B3LYP/6-311++G(d,p) empiricaldispersion=gd3bj scf=xqc pop=npa geom=c
 heck
 ----------------------------------------------------------------------

 --------------------------------------
 CID_84146800_JID_7595_Energie_neutraal
 --------------------------------------
 Structure from the checkpoint file:  "JID_7595.chk"
 Charge =  0 Multiplicity = 1

 SCF Done:  E(RB3LYP) =  -837.108299262     A.U. after   15 cycles
 Normal termination of Gaussian 16 at Sun Dec 13 20:32:17 2020.

 ----------------------------------------------------------------------
 # B3LYP/6-311++G(d,p) empiricaldispersion=gd3bj scf=xqc pop=npa geom=c
 heck
 ----------------------------------------------------------------------

 ------------------------------------
 CID_84146800_JID_7595_Energie_kation
 ------------------------------------
 Structure from the checkpoint file:  "JID_7595.chk"
 Charge =  1 Multiplicity = 2

 SCF Done:  E(UB3LYP) =  -836.799227562     A.U. after   25 cycles
 Normal termination of Gaussian 16 at Sun Dec 13 20:44:35 2020.
 Gaussian 16:  ES64L-G16RevA.03 25-Dec-2016

 ----------------------------------------------------------------------
 # B3LYP/6-311++G(d,p) empiricaldispersion=gd3bj scf=xqc pop=npa geom=c
 heck
 ----------------------------------------------------------------------

 -----------------------------------
 CID_84146800_JID_7595_Energie_anion
 -----------------------------------
 Structure from the checkpoint file:  "JID_7595.chk"
 Charge = -1 Multiplicity = 2

                         Standard orientation:
 ---------------------------------------------------------------------
 Center     Atomic      Atomic             Coordinates (Angstroms)
 Number     Number       Type             X           Y           Z
 ---------------------------------------------------------------------
      1          6           0       -2.999729   -1.806767    1.730742
      2          6           0       -1.652827   -1.919807    1.062322
      3          6           0       -2.281853   -0.567451    1.274365
      4          7           0       -2.863203    0.169927    0.153852
      5          6           0       -2.383922    1.465866   -0.151485
      6          8           0       -3.144467    2.402558   -0.334617
      7          7           0       -1.018737    1.592682   -0.252808
      8          6           0       -0.003865    0.618079   -0.462472
      9          6           0       -0.168043   -0.489285   -1.326831
     10          6           0        0.923900   -1.335084   -1.568246
     11          6           0        2.155561   -1.096658   -0.982224
     12          6           0        2.320838   -0.007097   -0.115633
     13          6           0        1.234422    0.833942    0.140353
     14          6           0        3.645191    0.206155    0.504101
     15          8           0        4.621124   -0.497348    0.328903
     16          8           0        3.684185    1.295705    1.319182
     17          8           0       -1.330404   -0.783351   -1.954041
     18          1           0       -3.085642   -1.980006    2.799031
     19          1           0       -3.866058   -2.121979    1.154551
     20          1           0       -0.781525   -2.168219    1.660227
     21          1           0       -1.634123   -2.305682    0.049692
     22          1           0       -1.846826    0.067059    2.042939
     23          1           0       -3.873615    0.250650    0.231533
     24          1           0       -0.749012    2.555809   -0.409243
     25          1           0        0.768100   -2.176034   -2.235700
     26          1           0        3.002116   -1.746923   -1.172251
     27          1           0        1.351548    1.678699    0.810163
     28          1           0        4.596206    1.329904    1.661147
     29          1           0       -2.089121   -0.473407   -1.404772
 ---------------------------------------------------------------------

 SCF Done:  E(UB3LYP) =  -837.112686650     A.U. after   33 cycles
 SCF Done:  E(UB3LYP) =  -837.112686650     a.u. after    1 cycles

 The electronic state is 2-A.
 Alpha  occ. eigenvalues --  -19.02979 -19.02209 -18.99822 -18.95390 -14.25154
 Alpha  occ. eigenvalues --  -14.24688 -10.20786 -10.13803 -10.12529 -10.09876
 Alpha  occ. eigenvalues --  -10.09329 -10.08734 -10.07772 -10.04396 -10.04203
 Alpha  occ. eigenvalues --  -10.03919 -10.03396  -0.96606  -0.96423  -0.93859
 Alpha  occ. eigenvalues --   -0.86922  -0.85022  -0.82642  -0.75270  -0.72208
 Alpha  occ. eigenvalues --   -0.62771  -0.62565  -0.54090  -0.52877  -0.52203
 Alpha  occ. eigenvalues --   -0.50704  -0.50157  -0.46865  -0.45108  -0.42551
 Alpha  occ. eigenvalues --   -0.40023  -0.39293  -0.38178  -0.36308  -0.36168
 Alpha  occ. eigenvalues --   -0.34429  -0.33901  -0.32578  -0.31696  -0.31383
 Alpha  occ. eigenvalues --   -0.30857  -0.30294  -0.27998  -0.27730  -0.25696
 Alpha  occ. eigenvalues --   -0.25027  -0.23961  -0.22638  -0.21999  -0.21419
 Alpha  occ. eigenvalues --   -0.19727  -0.18773  -0.18045  -0.16593  -0.13836
 Alpha  occ. eigenvalues --   -0.12585  -0.10535   0.04500
 Alpha virt. eigenvalues --    0.06348   0.07984   0.08601   0.09028   0.09391
 Alpha virt. eigenvalues --    0.09840   0.10710   0.11497   0.11740   0.12258
 Alpha virt. eigenvalues --    0.12538   0.13718   0.14107   0.14654   0.15104

  Beta  occ. eigenvalues --  -19.02931 -19.02145 -18.99825 -18.95102 -14.25152
  Beta  occ. eigenvalues --  -14.24680 -10.20788 -10.13522 -10.12518 -10.09548
  Beta  occ. eigenvalues --  -10.09441 -10.08707 -10.07767 -10.04331 -10.04235
  Beta  occ. eigenvalues --  -10.03655 -10.03255  -0.96602  -0.96145  -0.93665
  Beta  occ. eigenvalues --   -0.86496  -0.85018  -0.82639  -0.75245  -0.71919
  Beta  occ. eigenvalues --   -0.62544  -0.62114  -0.53986  -0.52616  -0.52087
  Beta  occ. eigenvalues --   -0.50454  -0.49969  -0.46692  -0.45031  -0.42499
  Beta  occ. eigenvalues --   -0.39969  -0.39106  -0.38143  -0.36131  -0.36003
  Beta  occ. eigenvalues --   -0.34268  -0.33792  -0.32482  -0.31518  -0.30865
  Beta  occ. eigenvalues --   -0.30182  -0.29749  -0.27824  -0.27686  -0.25438
  Beta  occ. eigenvalues --   -0.24769  -0.23863  -0.22321  -0.21962  -0.21168
  Beta  occ. eigenvalues --   -0.19413  -0.18322  -0.17334  -0.16571  -0.13551
  Beta  occ. eigenvalues --   -0.11744  -0.09429
  Beta virt. eigenvalues --    0.06827   0.08245   0.08607   0.08979   0.09594
  Beta virt. eigenvalues --    0.09786   0.10101   0.10665   0.11579   0.11995
  Beta virt. eigenvalues --    0.12272   0.12618   0.13633   0.14018   0.14691

 Mulliken charges and spin densities:
               1          2
     1  C    0.882010  -1.435703
     2  C   -0.391418   0.127198
     3  C   -0.670478   0.554221
     4  N   -0.323831  -0.003197
     5  C    0.160879  -0.019994
     6  O   -0.351015  -0.005825
     7  N   -0.285092  -0.003234
     8  C    0.213458   0.104497
     9  C   -0.272292   0.143420
    10  C   -0.131720   0.032499
    11  C   -0.636775   0.097545
    12  C    0.441927  -0.071140
    13  C   -0.416438   0.273556
    14  C    0.043228   0.135511
    15  O   -0.419911   0.102304
    16  O   -0.243215   0.013227
    17  O   -0.306437   0.017385
    18  H   -0.340948   0.499184
    19  H    0.040376   0.076335
    20  H    0.099931   0.070463
    21  H    0.134549   0.036887
    22  H    0.011925   0.235972
    23  H    0.308050   0.001033
    24  H    0.323314  -0.004225
    25  H    0.148574   0.007225
    26  H    0.176589  -0.001347
    27  H    0.179134   0.004403
    28  H    0.264351  -0.000051
    29  H    0.361274   0.011854
 Sum of Mulliken charges =  -1.00000   1.00000

 Dipole moment (field-independent basis, Debye):
    X=             -3.1717    Y=              0.9935    Z=             -0.1724  Tot=              3.3281
 Quadrupole moment (field-independent basis, Debye-Ang):
   XX=           -161.2845   YY=           -121.7709   ZZ=           -124.0806
   XY=             11.4996   XZ=              4.4623   YZ=              5.5612

 Summary of Natural Population Analysis:

                                       Natural Population
                Natural  -----------------------------------------------
    Atom  No    Charge         Core      Valence    Rydberg      Total
 -----------------------------------------------------------------------
      C    1   -0.20256      0.99962     2.19397    0.00897     3.20256
      C    2   -0.19732      0.99962     2.18730    0.01040     3.19732
      C    3   -0.02508      0.99956     2.01236    0.01315     3.02508
      N    4   -0.35911      0.99968     2.84858    0.01084     3.85911
      C    5    0.40525      0.99971     1.57100    0.02404     2.59475
      O    6   -0.33572      0.99987     3.33023    0.00561     4.33572
      N    7   -0.31421      0.99964     2.80469    0.00988     3.81421
      C    8    0.00694      0.99939     1.98265    0.01102     2.99306
      C    9    0.20457      0.99937     1.78053    0.01554     2.79543
      C   10   -0.14112      0.99954     2.13340    0.00819     3.14112
      C   11   -0.05917      0.99955     2.04993    0.00970     3.05917
      C   12   -0.07276      0.99946     2.06145    0.01186     3.07276
      C   13   -0.03364      0.99952     2.02392    0.01020     3.03364
      C   14    0.42659      0.99965     1.54739    0.02637     2.57341
      O   15   -0.30514      0.99987     3.29918    0.00609     4.30514
      O   16   -0.35656      0.99988     3.34943    0.00725     4.35656
      O   17   -0.35262      0.99987     3.34636    0.00639     4.35262
      H   18    0.10669      0.00000     0.39173    0.00157     0.39331
      H   19    0.10052      0.00000     0.39848    0.00100     0.39948
      H   20    0.10913      0.00000     0.38989    0.00098     0.39087
      H   21    0.11271      0.00000     0.38575    0.00155     0.38729
      H   22    0.10376      0.00000     0.39481    0.00143     0.39624
      H   23    0.19507      0.00000     0.30261    0.00231     0.30493
      H   24    0.19857      0.00000     0.30006    0.00137     0.30143
      H   25    0.09954      0.00000     0.39959    0.00087     0.40046
      H   26    0.10593      0.00000     0.39318    0.00089     0.39407
      H   27    0.10232      0.00000     0.39646    0.00122     0.39768
      H   28    0.23240      0.00000     0.26479    0.00281     0.26760
      H   29    0.24502      0.00000     0.25192    0.00306     0.25498
 =======================================================================
   * Total *    0.00001     16.99379    44.79166    0.21454    61.99999

 Normal termination of Gaussian 16 at Sun Dec 13 21:01:06 2020.
