 Gaussian 16, Revision A.03,

 -----------------------------------------------------------
 # opt freq B3LYP/6-31G(d) empiricaldispersion=gd3bj scf=xqc
 -----------------------------------------------------------

 -----------------------------
 CID_79124658_JID_192_neutraal
 -----------------------------
 Symbolic Z-matrix:
 Charge =  0 Multiplicity = 1

 SCF Done:  E(RB3LYP) =  -479.740815976     A.U. after   14 cycles
 SCF Done:  E(RB3LYP) =  -479.748359636     A.U. after   13 cycles
 SCF Done:  E(RB3LYP) =  -479.748671570     A.U. after   13 cycles
 SCF Done:  E(RB3LYP) =  -479.747856976     A.U. after   13 cycles
 SCF Done:  E(RB3LYP) =  -479.748724758     A.U. after   13 cycles
 SCF Done:  E(RB3LYP) =  -479.749220005     A.U. after   12 cycles
 SCF Done:  E(RB3LYP) =  -479.749245687     A.U. after   10 cycles
 SCF Done:  E(RB3LYP) =  -479.749259547     A.U. after   10 cycles
 SCF Done:  E(RB3LYP) =  -479.749266919     A.U. after   10 cycles
 SCF Done:  E(RB3LYP) =  -479.749268387     A.U. after    8 cycles
 SCF Done:  E(RB3LYP) =  -479.749268766     A.U. after    8 cycles
 SCF Done:  E(RB3LYP) =  -479.749268901     A.U. after    7 cycles
 Optimization completed.
    -- Stationary point found.
 Normal termination of Gaussian 16 at Tue Dec  8 10:20:11 2020.

 --------------------------------------------------------------------
 #N Geom=AllCheck Guess=TCheck SCRF=Check GenChk RB3LYP/6-31G(d) Freq
 --------------------------------------------------------------------

 Structure from the checkpoint file:  "JID_192.chk"
 -----------------------------
 CID_79124658_JID_192_neutraal
 -----------------------------
 Charge =  0 Multiplicity = 1

 SCF Done:  E(RB3LYP) =  -479.749268901     A.U. after    1 cycles

  Exact polarizability:  92.647   1.216  80.155   2.280  -2.873  75.162
 Approx polarizability: 132.604  -0.963 109.375   7.376  -6.429 113.329

                      1                      2                      3
                      A                      A                      A
 Frequencies --     76.4797                89.7286               120.0312
 Red. masses --      5.7691                 4.4775                 2.9661
 Frc consts  --      0.0199                 0.0212                 0.0252
 IR Inten    --      1.3466                 0.1731                 0.8716

                      4                      5                      6
                      A                      A                      A
 Frequencies --    160.9220               205.7315               225.2610
 Red. masses --      2.1346                 3.4406                 1.3665
 Frc consts  --      0.0326                 0.0858                 0.0409
 IR Inten    --      0.8928                 1.2908                32.9608

                      7                      8                      9
                      A                      A                      A
 Frequencies --    243.7212               283.5477               335.3662
 Red. masses --      2.3398                 2.0941                 2.6787
 Frc consts  --      0.0819                 0.0992                 0.1775
 IR Inten    --     16.4974                 9.5467                 5.8508

                     10                     11                     12
                      A                      A                      A
 Frequencies --    346.5376               405.1276               427.7769
 Red. masses --      4.5823                 3.3670                 2.3647
 Frc consts  --      0.3242                 0.3256                 0.2550
 IR Inten    --     14.9093                11.7533                23.5024

                     13                     14                     15
                      A                      A                      A
 Frequencies --    459.2984               546.4960               652.3950
 Red. masses --      1.2845                 2.9020                 2.4666
 Frc consts  --      0.1597                 0.5106                 0.6185
 IR Inten    --     59.6918                10.5463                 6.3825

                     16                     17                     18
                      A                      A                      A
 Frequencies --    718.3945               782.5315               805.4944
 Red. masses --      1.6731                 2.9081                 1.2467
 Frc consts  --      0.5087                 1.0492                 0.4766
 IR Inten    --      2.6201                14.9639                 6.0639

                     19                     20                     21
                      A                      A                      A
 Frequencies --    837.6964               856.3857               878.0973
 Red. masses --      2.3990                 1.2852                 2.2333
 Frc consts  --      0.9919                 0.5554                 1.0146
 IR Inten    --     18.3601               109.2244                 2.8163

                     22                     23                     24
                      A                      A                      A
 Frequencies --    939.1501               951.1343               956.3969
 Red. masses --      1.8473                 2.4174                 2.2869
 Frc consts  --      0.9600                 1.2885                 1.2324
 IR Inten    --      9.4084                 7.7702                12.4828

                     25                     26                     27
                      A                      A                      A
 Frequencies --    983.8335              1011.1340              1048.8342
 Red. masses --      2.0623                 2.3934                 1.7832
 Frc consts  --      1.1761                 1.4417                 1.1558
 IR Inten    --      5.8138                29.5644                 1.9282

                     28                     29                     30
                      A                      A                      A
 Frequencies --   1065.9802              1086.7937              1147.8086
 Red. masses --      1.4365                 2.2027                 3.3613
 Frc consts  --      0.9617                 1.5329                 2.6092
 IR Inten    --      4.8984                12.4721                23.9893

                     31                     32                     33
                      A                      A                      A
 Frequencies --   1161.1375              1212.2129              1214.5465
 Red. masses --      2.3821                 1.4844                 1.6594
 Frc consts  --      1.8923                 1.2852                 1.4422
 IR Inten    --     34.6999                 2.2431                 0.6469

                     34                     35                     36
                      A                      A                      A
 Frequencies --   1239.7839              1265.2835              1273.1449
 Red. masses --      1.5148                 1.3376                 1.2719
 Frc consts  --      1.3718                 1.2617                 1.2146
 IR Inten    --      3.3345                19.5222                10.1869

                     37                     38                     39
                      A                      A                      A
 Frequencies --   1290.3062              1294.7229              1314.6867
 Red. masses --      1.5271                 1.5266                 1.6215
 Frc consts  --      1.4979                 1.5078                 1.6512
 IR Inten    --      0.6239                 8.3921                24.9973

                     40                     41                     42
                      A                      A                      A
 Frequencies --   1350.1475              1364.3913              1412.4567
 Red. masses --      1.4666                 1.3174                 1.1959
 Frc consts  --      1.5752                 1.4449                 1.4057
 IR Inten    --      6.6707                 8.3309                41.0902

                     43                     44                     45
                      A                      A                      A
 Frequencies --   1429.6493              1458.4233              1512.1130
 Red. masses --      1.4350                 1.3593                 1.0871
 Frc consts  --      1.7280                 1.7035                 1.4645
 IR Inten    --     10.5708                61.2528                 6.9623

                     46                     47                     48
                      A                      A                      A
 Frequencies --   1516.1023              1530.4736              1544.4178
 Red. masses --      1.0789                 1.0857                 1.1220
 Frc consts  --      1.4612                 1.4984                 1.5768
 IR Inten    --      0.4829                 5.6006                 1.5597

                     49                     50                     51
                      A                      A                      A
 Frequencies --   1694.5912              1798.1697              2958.7336
 Red. masses --      1.0902                 9.6129                 1.0737
 Frc consts  --      1.8446                18.3132                 5.5379
 IR Inten    --     31.2049               149.7386                78.0010

                     52                     53                     54
                      A                      A                      A
 Frequencies --   2986.3270              3006.4104              3057.6734
 Red. masses --      1.0851                 1.0831                 1.0593
 Frc consts  --      5.7014                 5.7676                 5.8350
 IR Inten    --     43.0490                30.5166                43.2656

                     55                     56                     57
                      A                      A                      A
 Frequencies --   3073.8027              3076.4309              3099.9639
 Red. masses --      1.0590                 1.0645                 1.1052
 Frc consts  --      5.8951                 5.9357                 6.2577
 IR Inten    --     30.3480                28.6424                23.8111

                     58                     59                     60
                      A                      A                      A
 Frequencies --   3109.5244              3119.6113              3132.8818
 Red. masses --      1.0892                 1.1060                 1.1068
 Frc consts  --      6.2048                 6.3417                 6.4006
 IR Inten    --     10.5436                16.3028                51.3751

                     61                     62                     63
                      A                      A                      A
 Frequencies --   3479.6926              3567.1513              3620.2351
 Red. masses --      1.0502                 1.0924                 1.0647
 Frc consts  --      7.4919                 8.1898                 8.2216
 IR Inten    --      0.8400                 0.0181                62.5874

 - Thermochemistry -
 -------------------
 Temperature   298.150 Kelvin.  Pressure   1.00000 Atm.
 Atom     1 has atomic number  6 and mass  12.00000

 Molecular mass:   143.09463 amu.
 Principal axes and moments of inertia in atomic units:
                           1         2         3
     Eigenvalues --  1055.913471525.411372037.90600
           X            0.99940   0.03433   0.00352
           Y           -0.03434   0.99941   0.00214
           Z           -0.00344  -0.00226   0.99999
 This molecule is an asymmetric top.
 Rotational symmetry number  1.
 Warning -- assumption of classical behavior for rotation
           may cause significant error
 Rotational temperatures (Kelvin)      0.08203     0.05678     0.04250
 Rotational constants (GHZ):           1.70918     1.18312     0.88559
 Zero-point vibrational energy     525240.1 (Joules/Mol)
                                  125.53539 (Kcal/Mol)
 Warning -- explicit consideration of  14 degrees of freedom as
           vibrations may cause significant error
 Vibrational temperatures:    110.04   129.10   172.70   231.53   296.00
          (Kelvin)            324.10   350.66   407.96   482.52   498.59
                              582.89   615.48   660.83   786.29   938.65
                             1033.61  1125.89  1158.93  1205.26  1232.15
                             1263.39  1351.23  1368.47  1376.04  1415.52
                             1454.80  1509.04  1533.71  1563.65  1651.44
                             1670.62  1744.10  1747.46  1783.77  1820.46
                             1831.77  1856.46  1862.82  1891.54  1942.56
                             1963.05  2032.21  2056.95  2098.35  2175.59
                             2181.33  2202.01  2222.07  2438.14  2587.17
                             4256.96  4296.66  4325.55  4399.31  4422.52
                             4426.30  4460.16  4473.91  4488.42  4507.52
                             5006.50  5132.34  5208.71

 Zero-point correction=                           0.200053 (Hartree/Particle)
 Thermal correction to Energy=                    0.210619
 Thermal correction to Enthalpy=                  0.211564
 Thermal correction to Gibbs Free Energy=         0.164385
 Sum of electronic and zero-point Energies=           -479.549216
 Sum of electronic and thermal Energies=              -479.538650
 Sum of electronic and thermal Enthalpies=            -479.537705
 Sum of electronic and thermal Free Energies=         -479.584884

                     E (Thermal)             CV                S
                      KCal/Mol        Cal/Mol-Kelvin    Cal/Mol-Kelvin
 Total                  132.166             39.768             99.297
 Electronic               0.000              0.000              0.000
 Translational            0.889              2.981             40.786
 Rotational               0.889              2.981             29.575
 Vibrational            130.388             33.806             28.936
 Vibration     1          0.599              1.965              3.979
 Vibration     2          0.602              1.956              3.666
 Vibration     3          0.609              1.933              3.100
 Vibration     4          0.622              1.890              2.539
 Vibration     5          0.640              1.832              2.081
 Vibration     6          0.650              1.803              1.916
 Vibration     7          0.659              1.773              1.776
 Vibration     8          0.682              1.704              1.512
 Vibration     9          0.716              1.605              1.234
 Vibration    10          0.725              1.582              1.182
 Vibration    11          0.770              1.459              0.944
 Vibration    12          0.789              1.410              0.866
 Vibration    13          0.817              1.340              0.768
 Vibration    14          0.902              1.147              0.551

                           ! Non-Optimized Parameters !
 Normal termination of Gaussian 16 at Tue Dec  8 10:24:29 2020.

 ----------------------------------------------------------------------
 # B3LYP/6-311++G(d,p) empiricaldispersion=gd3bj scf=xqc pop=npa geom=c
 heck
 ----------------------------------------------------------------------

 -------------------------------------
 CID_79124658_JID_192_Energie_neutraal
 -------------------------------------
 Structure from the checkpoint file:  "JID_192.chk"
 Charge =  0 Multiplicity = 1

 SCF Done:  E(RB3LYP) =  -479.906312106     A.U. after   14 cycles
 Normal termination of Gaussian 16 at Tue Dec  8 10:26:12 2020.

 ----------------------------------------------------------------------
 # B3LYP/6-311++G(d,p) empiricaldispersion=gd3bj scf=xqc pop=npa geom=c
 heck
 ----------------------------------------------------------------------

 -----------------------------------
 CID_79124658_JID_192_Energie_kation
 -----------------------------------
 Structure from the checkpoint file:  "JID_192.chk"
 Charge =  1 Multiplicity = 2

 SCF Done:  E(UB3LYP) =  -479.573980465     A.U. after   24 cycles
 Normal termination of Gaussian 16 at Tue Dec  8 10:30:23 2020.
 Gaussian 16:  ES64L-G16RevA.03 25-Dec-2016

 ----------------------------------------------------------------------
 # B3LYP/6-311++G(d,p) empiricaldispersion=gd3bj scf=xqc pop=npa geom=c
 heck
 ----------------------------------------------------------------------

 ----------------------------------
 CID_79124658_JID_192_Energie_anion
 ----------------------------------
 Structure from the checkpoint file:  "JID_192.chk"
 Charge = -1 Multiplicity = 2

                         Standard orientation:
 ---------------------------------------------------------------------
 Center     Atomic      Atomic             Coordinates (Angstroms)
 Number     Number       Type             X           Y           Z
 ---------------------------------------------------------------------
      1          6           0        0.186002    2.267309    0.107118
      2          6           0        0.015542    1.188253    1.210000
      3          6           0       -0.555919    0.208002    0.147148
      4          6           0       -0.702565    1.412566   -0.835175
      5          6           0       -1.859166   -0.502864    0.513568
      6          7           0       -2.431590   -1.164004   -0.662807
      7          6           0        0.478702   -0.860142   -0.285051
      8          6           0        1.767863   -0.265552   -0.797969
      9          8           0        2.828346   -0.465362   -0.234743
     10          8           0        0.757038   -1.722238    0.795907
     11          1           0        1.219731    2.353919   -0.242516
     12          1           0       -0.176298    3.272680    0.339407
     13          1           0        0.915456    0.852369    1.732582
     14          1           0       -0.734303    1.464496    1.958506
     15          1           0       -1.736217    1.775843   -0.862494
     16          1           0       -0.370747    1.275167   -1.869962
     17          1           0       -1.638842   -1.266207    1.266057
     18          1           0       -2.534201    0.236394    0.980707
     19          1           0       -3.153911   -1.822403   -0.381868
     20          1           0       -2.882984   -0.477066   -1.263967
     21          1           0        0.013881   -1.425238   -1.109941
     22          1           0        1.717695    0.353697   -1.712873
     23          1           0        1.716047   -1.630260    0.958855
 ---------------------------------------------------------------------

 SCF Done:  E(UB3LYP) =  -479.896110141     A.U. after   33 cycles
 SCF Done:  E(UB3LYP) =  -479.896110141     a.u. after    2 cycles

 The electronic state is 2-A.
 Alpha  occ. eigenvalues --  -18.99922 -18.98854 -14.17327 -10.11113 -10.09734
 Alpha  occ. eigenvalues --  -10.06797 -10.06292 -10.05290 -10.05052 -10.04998
 Alpha  occ. eigenvalues --   -0.93305  -0.89385  -0.76881  -0.72779  -0.61439
 Alpha  occ. eigenvalues --   -0.56952  -0.54683  -0.49070  -0.46245  -0.41183
 Alpha  occ. eigenvalues --   -0.39357  -0.38252  -0.37125  -0.35544  -0.33499
 Alpha  occ. eigenvalues --   -0.32760  -0.30219  -0.27578  -0.27280  -0.27011
 Alpha  occ. eigenvalues --   -0.25343  -0.23311  -0.22816  -0.21230  -0.19148
 Alpha  occ. eigenvalues --   -0.18785  -0.15605  -0.13896  -0.12461   0.05160
 Alpha virt. eigenvalues --    0.07146   0.08141   0.09335   0.09812   0.10810
 Alpha virt. eigenvalues --    0.11563   0.12170   0.12310   0.12648   0.14522
 Alpha virt. eigenvalues --    0.14803   0.15133   0.15729   0.17420   0.17968

  Beta  occ. eigenvalues --  -18.99922 -18.98560 -14.17275 -10.10792 -10.09760
  Beta  occ. eigenvalues --  -10.06769 -10.06260 -10.05266 -10.05015 -10.04995
  Beta  occ. eigenvalues --   -0.92939  -0.89170  -0.76807  -0.72722  -0.61276
  Beta  occ. eigenvalues --   -0.56713  -0.54612  -0.48947  -0.45785  -0.41085
  Beta  occ. eigenvalues --   -0.39172  -0.38145  -0.37046  -0.35341  -0.33416
  Beta  occ. eigenvalues --   -0.32573  -0.29951  -0.27525  -0.27143  -0.26623
  Beta  occ. eigenvalues --   -0.24278  -0.23121  -0.22778  -0.21092  -0.19097
  Beta  occ. eigenvalues --   -0.18741  -0.15514  -0.13676  -0.12372
  Beta virt. eigenvalues --    0.08126   0.08971   0.09520   0.09976   0.10546
  Beta virt. eigenvalues --    0.11431   0.11909   0.12355   0.12539   0.12789
  Beta virt. eigenvalues --    0.14714   0.15278   0.15560   0.15811   0.17495

 Mulliken charges and spin densities:
               1          2
     1  C   -0.331088   0.095041
     2  C    0.293568  -0.767117
     3  C   -0.418871   1.553651
     4  C    0.909208  -1.482186
     5  C    1.378881  -2.030225
     6  N   -0.476437   0.163570
     7  C   -1.080731   0.356396
     8  C   -0.009550   0.034233
     9  O   -0.324120   0.087824
    10  O   -0.215944  -0.000964
    11  H    0.126135  -0.001011
    12  H   -0.444833   0.605294
    13  H    0.213049  -0.025987
    14  H    0.093075   0.028317
    15  H   -0.645730   0.790564
    16  H   -0.016554   0.173309
    17  H    0.111533   0.088057
    18  H   -0.334667   0.469144
    19  H   -0.191471   0.435903
    20  H   -0.206727   0.425604
    21  H    0.237806   0.000076
    22  H    0.095120  -0.005803
    23  H    0.238349   0.006308
 Sum of Mulliken charges =  -1.00000   1.00000

 Dipole moment (field-independent basis, Debye):
    X=              4.6244    Y=             -0.5646    Z=              1.4201  Tot=              4.8704
 Quadrupole moment (field-independent basis, Debye-Ang):
   XX=           -117.8820   YY=            -98.7262   ZZ=            -79.9695
   XY=              3.8594   XZ=             -5.4440   YZ=              0.4692

 Summary of Natural Population Analysis:

                                       Natural Population
                Natural  -----------------------------------------------
    Atom  No    Charge         Core      Valence    Rydberg      Total
 -----------------------------------------------------------------------
      C    1   -0.19354      0.99965     2.18513    0.00877     3.19354
      C    2   -0.18850      0.99960     2.18005    0.00886     3.18850
      C    3   -0.03623      0.99954     2.01994    0.01675     3.03623
      C    4   -0.19172      0.99960     2.18193    0.01020     3.19172
      C    5   -0.08616      0.99954     2.07400    0.01262     3.08616
      N    6   -0.42686      0.99977     2.91601    0.01108     3.92686
      C    7    0.01344      0.99947     1.97064    0.01645     2.98656
      C    8    0.25092      0.99972     1.72941    0.01996     2.74908
      O    9   -0.27774      0.99988     3.27081    0.00705     4.27774
      O   10   -0.37937      0.99989     3.37323    0.00624     4.37937
      H   11    0.09688      0.00000     0.40201    0.00111     0.40312
      H   12    0.09658      0.00000     0.40179    0.00163     0.40342
      H   13    0.10040      0.00000     0.39845    0.00115     0.39960
      H   14    0.09650      0.00000     0.40238    0.00111     0.40350
      H   15    0.10223      0.00000     0.39472    0.00305     0.39777
      H   16    0.09654      0.00000     0.40230    0.00116     0.40346
      H   17    0.09923      0.00000     0.39929    0.00148     0.40077
      H   18    0.07935      0.00000     0.41884    0.00181     0.42065
      H   19    0.17831      0.00000     0.31901    0.00267     0.32169
      H   20    0.17714      0.00000     0.31874    0.00412     0.32286
      H   21    0.10602      0.00000     0.39199    0.00199     0.39398
      H   22    0.05021      0.00000     0.44804    0.00175     0.44979
      H   23    0.23635      0.00000     0.26041    0.00324     0.26365
 =======================================================================
   * Total *   -0.00000      9.99665    28.85910    0.14424    39.00000

 Normal termination of Gaussian 16 at Tue Dec  8 10:47:34 2020.
