 Gaussian 16, Revision A.03,

 -----------------------------------------------------------
 # opt freq B3LYP/6-31G(d) empiricaldispersion=gd3bj scf=xqc
 -----------------------------------------------------------

 -------------------------------
 CID_115011013_JID_3506_neutraal
 -------------------------------
 Symbolic Z-matrix:
 Charge =  0 Multiplicity = 1

 SCF Done:  E(RB3LYP) =  -576.892337791     A.U. after   15 cycles
 SCF Done:  E(RB3LYP) =  -576.894652057     A.U. after   12 cycles
 SCF Done:  E(RB3LYP) =  -576.894825666     A.U. after   12 cycles
 SCF Done:  E(RB3LYP) =  -576.895271130     A.U. after   11 cycles
 SCF Done:  E(RB3LYP) =  -576.895316742     A.U. after   11 cycles
 SCF Done:  E(RB3LYP) =  -576.895340715     A.U. after   11 cycles
 SCF Done:  E(RB3LYP) =  -576.895354848     A.U. after   10 cycles
 SCF Done:  E(RB3LYP) =  -576.895358034     A.U. after   10 cycles
 SCF Done:  E(RB3LYP) =  -576.895358383     A.U. after    8 cycles
 SCF Done:  E(RB3LYP) =  -576.895358597     A.U. after    8 cycles
 Optimization completed.
    -- Stationary point found.
 Normal termination of Gaussian 16 at Wed Dec  9 23:29:18 2020.

 --------------------------------------------------------------------
 #N Geom=AllCheck Guess=TCheck SCRF=Check GenChk RB3LYP/6-31G(d) Freq
 --------------------------------------------------------------------

 Structure from the checkpoint file:  "JID_3506.chk"
 -------------------------------
 CID_115011013_JID_3506_neutraal
 -------------------------------
 Charge =  0 Multiplicity = 1

 SCF Done:  E(RB3LYP) =  -576.895358597     A.U. after    1 cycles

  Exact polarizability: 142.735   2.765 128.206   2.490  -3.660  66.648
 Approx polarizability: 213.807  -1.629 205.075  11.679  -8.159 105.905

                      1                      2                      3
                      A                      A                      A
 Frequencies --     48.7396                81.2059               142.1173
 Red. masses --      4.0908                 5.2251                 3.0376
 Frc consts  --      0.0057                 0.0203                 0.0361
 IR Inten    --      3.6973                 1.9487                 1.2975

                      4                      5                      6
                      A                      A                      A
 Frequencies --    186.8401               232.2153               239.6683
 Red. masses --      2.7300                 1.2834                 2.3238
 Frc consts  --      0.0562                 0.0408                 0.0786
 IR Inten    --      0.5277                 1.5768                 8.7455

                      7                      8                      9
                      A                      A                      A
 Frequencies --    262.2563               265.4553               299.0507
 Red. masses --      3.3914                 1.9170                 1.6771
 Frc consts  --      0.1374                 0.0796                 0.0884
 IR Inten    --      5.7060                33.0273                44.3522

                     10                     11                     12
                      A                      A                      A
 Frequencies --    338.8147               384.0632               407.6736
 Red. masses --      3.1388                 6.3377                 3.6989
 Frc consts  --      0.2123                 0.5508                 0.3622
 IR Inten    --     14.5250                 1.4718                 7.5995

                     13                     14                     15
                      A                      A                      A
 Frequencies --    481.1243               498.2641               531.8966
 Red. masses --      4.6933                 3.8012                 4.7559
 Frc consts  --      0.6401                 0.5560                 0.7928
 IR Inten    --      3.8479                 1.4557                 0.2439

                     16                     17                     18
                      A                      A                      A
 Frequencies --    550.9971               587.0821               623.4483
 Red. masses --      3.3186                 4.0862                 4.4490
 Frc consts  --      0.5936                 0.8298                 1.0188
 IR Inten    --     14.4347                 3.1541                 1.8208

                     19                     20                     21
                      A                      A                      A
 Frequencies --    687.3612               722.3720               746.6390
 Red. masses --      3.8920                 2.7740                 3.6393
 Frc consts  --      1.0834                 0.8529                 1.1953
 IR Inten    --      1.7142                 2.1781                 4.6564

                     22                     23                     24
                      A                      A                      A
 Frequencies --    787.6733               800.8279               825.0480
 Red. masses --      2.1920                 1.7865                 3.8073
 Frc consts  --      0.8013                 0.6750                 1.5269
 IR Inten    --     10.6383                23.4871                 2.3564

                     25                     26                     27
                      A                      A                      A
 Frequencies --    879.9810               891.5618               935.6043
 Red. masses --      1.9575                 1.3831                 2.4024
 Frc consts  --      0.8931                 0.6477                 1.2390
 IR Inten    --      2.4392                 0.7755                16.1247

                     28                     29                     30
                      A                      A                      A
 Frequencies --    965.3522               992.4634              1016.2514
 Red. masses --      1.2573                 1.8202                 2.1738
 Frc consts  --      0.6903                 1.0564                 1.3227
 IR Inten    --      0.5149                 9.8479                 0.2390

                     31                     32                     33
                      A                      A                      A
 Frequencies --   1051.3605              1092.3496              1097.8439
 Red. masses --      2.5534                 1.8548                 2.1976
 Frc consts  --      1.6629                 1.3040                 1.5606
 IR Inten    --      1.6262                 3.9285                 3.6505

                     34                     35                     36
                      A                      A                      A
 Frequencies --   1110.3009              1174.5528              1187.2966
 Red. masses --      1.9851                 1.5998                 1.3246
 Frc consts  --      1.4418                 1.3004                 1.1002
 IR Inten    --     10.9598                52.0960                 4.3434

                     37                     38                     39
                      A                      A                      A
 Frequencies --   1204.7713              1225.1839              1237.4334
 Red. masses --      1.4015                 1.7379                 1.8316
 Frc consts  --      1.1986                 1.5370                 1.6524
 IR Inten    --     23.9210                71.9149                 6.6857

                     40                     41                     42
                      A                      A                      A
 Frequencies --   1263.4594              1278.3420              1322.6024
 Red. masses --      1.8614                 1.6895                 1.3534
 Frc consts  --      1.7507                 1.6267                 1.3948
 IR Inten    --     72.8674                21.4499                 5.8137

                     43                     44                     45
                      A                      A                      A
 Frequencies --   1332.9862              1344.9893              1353.9921
 Red. masses --      2.0995                 2.0219                 1.6835
 Frc consts  --      2.1979                 2.1551                 1.8185
 IR Inten    --     12.3853                14.7014                11.9129

                     46                     47                     48
                      A                      A                      A
 Frequencies --   1378.0945              1408.6349              1430.5988
 Red. masses --      2.3053                 1.7767                 1.2045
 Frc consts  --      2.5795                 2.0771                 1.4525
 IR Inten    --     46.2807                 6.1270                 1.7507

                     49                     50                     51
                      A                      A                      A
 Frequencies --   1497.6204              1507.9097              1521.3099
 Red. masses --      1.1102                 2.5895                 1.3352
 Frc consts  --      1.4670                 3.4691                 1.8207
 IR Inten    --      8.2892                77.2352                 1.7716

                     52                     53                     54
                      A                      A                      A
 Frequencies --   1527.7836              1528.8565              1537.3034
 Red. masses --      1.0540                 1.1389                 1.8476
 Frc consts  --      1.4495                 1.5685                 2.5726
 IR Inten    --     14.7339                 3.3687                 3.2821

                     55                     56                     57
                      A                      A                      A
 Frequencies --   1646.3707              1672.4841              1824.3062
 Red. masses --      6.6149                 6.0313                11.0825
 Frc consts  --     10.5640                 9.9400                21.7313
 IR Inten    --     71.4066                16.7692               191.3994

                     58                     59                     60
                      A                      A                      A
 Frequencies --   3008.9166              3032.6276              3052.3748
 Red. masses --      1.0585                 1.0962                 1.0703
 Frc consts  --      5.6464                 5.9397                 5.8756
 IR Inten    --     35.0738                15.2152                11.5754

                     61                     62                     63
                      A                      A                      A
 Frequencies --   3059.2388              3064.8916              3131.6552
 Red. masses --      1.0416                 1.0789                 1.1016
 Frc consts  --      5.7435                 5.9711                 6.3652
 IR Inten    --     24.0532                12.4472                26.5131

                     64                     65                     66
                      A                      A                      A
 Frequencies --   3135.1882              3140.2776              3185.0774
 Red. masses --      1.0985                 1.1036                 1.0866
 Frc consts  --      6.3616                 6.4119                 6.4946
 IR Inten    --     16.3595                21.0400                 6.1873

                     67                     68                     69
                      A                      A                      A
 Frequencies --   3202.0830              3221.4376              3775.3787
 Red. masses --      1.0923                 1.0946                 1.0652
 Frc consts  --      6.5985                 6.6929                 8.9456
 IR Inten    --     19.8478                10.5954                39.6814

 - Thermochemistry -
 -------------------
 Temperature   298.150 Kelvin.  Pressure   1.00000 Atm.
 Atom     1 has atomic number  6 and mass  12.00000

 Molecular mass:   176.08373 amu.
 Principal axes and moments of inertia in atomic units:
                           1         2         3
     Eigenvalues --  1310.331602756.439043762.11022
           X            0.99988  -0.00574  -0.01433
           Y            0.00575   0.99998   0.00052
           Z            0.01433  -0.00061   0.99990
 This molecule is an asymmetric top.
 Rotational symmetry number  1.
 Warning -- assumption of classical behavior for rotation
           may cause significant error
 Rotational temperatures (Kelvin)      0.06610     0.03142     0.02302
 Rotational constants (GHZ):           1.37732     0.65474     0.47972
 Zero-point vibrational energy     545377.1 (Joules/Mol)
                                  130.34826 (Kcal/Mol)
 Warning -- explicit consideration of  17 degrees of freedom as
           vibrations may cause significant error
 Vibrational temperatures:     70.13   116.84   204.48   268.82   334.11
          (Kelvin)            344.83   377.33   381.93   430.27   487.48
                              552.58   586.55   692.23   716.89   765.28
                              792.76   844.68   897.00   988.96  1039.33
                             1074.25  1133.29  1152.21  1187.06  1266.10
                             1282.76  1346.13  1388.93  1427.93  1462.16
                             1512.67  1571.65  1579.55  1597.48  1689.92
                             1708.26  1733.40  1762.77  1780.39  1817.84
                             1839.25  1902.93  1917.87  1935.14  1948.09
                             1982.77  2026.71  2058.31  2154.74  2169.55
                             2188.83  2198.14  2199.68  2211.84  2368.76
                             2406.33  2624.77  4329.16  4363.27  4391.69
                             4401.56  4409.70  4505.75  4510.84  4518.16
                             4582.62  4607.08  4634.93  5431.93

 Zero-point correction=                           0.207723 (Hartree/Particle)
 Thermal correction to Energy=                    0.219073
 Thermal correction to Enthalpy=                  0.220017
 Thermal correction to Gibbs Free Energy=         0.170603
 Sum of electronic and zero-point Energies=           -576.687635
 Sum of electronic and thermal Energies=              -576.676286
 Sum of electronic and thermal Enthalpies=            -576.675341
 Sum of electronic and thermal Free Energies=         -576.724755

                     E (Thermal)             CV                S
                      KCal/Mol        Cal/Mol-Kelvin    Cal/Mol-Kelvin
 Total                  137.470             44.685            104.000
 Electronic               0.000              0.000              0.000
 Translational            0.889              2.981             41.405
 Rotational               0.889              2.981             30.986
 Vibrational            135.693             38.723             31.610
 Vibration     1          0.595              1.978              4.868
 Vibration     2          0.600              1.962              3.862
 Vibration     3          0.616              1.911              2.775
 Vibration     4          0.632              1.858              2.259
 Vibration     5          0.653              1.792              1.862
 Vibration     6          0.657              1.780              1.805
 Vibration     7          0.670              1.742              1.647
 Vibration     8          0.671              1.736              1.626
 Vibration     9          0.692              1.675              1.422
 Vibration    10          0.719              1.598              1.218
 Vibration    11          0.753              1.504              1.023
 Vibration    12          0.772              1.454              0.935
 Vibration    13          0.837              1.292              0.707
 Vibration    14          0.854              1.254              0.662
 Vibration    15          0.887              1.179              0.583
 Vibration    16          0.906              1.138              0.542
 Vibration    17          0.944              1.059              0.472

                           ! Non-Optimized Parameters !
 Normal termination of Gaussian 16 at Wed Dec  9 23:35:49 2020.

 ----------------------------------------------------------------------
 # B3LYP/6-311++G(d,p) empiricaldispersion=gd3bj scf=xqc pop=npa geom=c
 heck
 ----------------------------------------------------------------------

 ---------------------------------------
 CID_115011013_JID_3506_Energie_neutraal
 ---------------------------------------
 Structure from the checkpoint file:  "JID_3506.chk"
 Charge =  0 Multiplicity = 1

 SCF Done:  E(RB3LYP) =  -577.060563601     A.U. after   15 cycles
 Normal termination of Gaussian 16 at Wed Dec  9 23:38:08 2020.

 ----------------------------------------------------------------------
 # B3LYP/6-311++G(d,p) empiricaldispersion=gd3bj scf=xqc pop=npa geom=c
 heck
 ----------------------------------------------------------------------

 -------------------------------------
 CID_115011013_JID_3506_Energie_kation
 -------------------------------------
 Structure from the checkpoint file:  "JID_3506.chk"
 Charge =  1 Multiplicity = 2

 SCF Done:  E(UB3LYP) =  -576.755346297     A.U. after   25 cycles
 Normal termination of Gaussian 16 at Wed Dec  9 23:43:19 2020.
 Gaussian 16:  ES64L-G16RevA.03 25-Dec-2016

 ----------------------------------------------------------------------
 # B3LYP/6-311++G(d,p) empiricaldispersion=gd3bj scf=xqc pop=npa geom=c
 heck
 ----------------------------------------------------------------------

 ------------------------------------
 CID_115011013_JID_3506_Energie_anion
 ------------------------------------
 Structure from the checkpoint file:  "JID_3506.chk"
 Charge = -1 Multiplicity = 2

                         Standard orientation:
 ---------------------------------------------------------------------
 Center     Atomic      Atomic             Coordinates (Angstroms)
 Number     Number       Type             X           Y           Z
 ---------------------------------------------------------------------
      1          6           0       -2.015215    1.715563    0.974655
      2          6           0       -1.468105    0.906353   -0.226588
      3          6           0       -2.224767   -0.413483   -0.282355
      4          8           0       -3.257601   -0.537310   -0.911549
      5          6           0       -1.617086   -1.534077    0.534464
      6          6           0       -0.171673   -1.792856    0.080191
      7          6           0        0.647709   -0.521264   -0.012534
      8          6           0        0.044672    0.740193   -0.155044
      9          6           0        0.842345    1.886014   -0.254514
     10          6           0        2.230348    1.791454   -0.205035
     11          6           0        2.843200    0.549730   -0.070218
     12          6           0        2.053980   -0.596790    0.011850
     13          8           0        2.721318   -1.788195    0.118416
     14          1           0       -1.798065    1.208975    1.921076
     15          1           0       -3.098249    1.844205    0.883381
     16          1           0       -1.548785    2.703973    1.013206
     17          1           0       -1.729550    1.450447   -1.141791
     18          1           0       -1.605036   -1.225280    1.588506
     19          1           0       -2.237891   -2.428116    0.441158
     20          1           0        0.284772   -2.495583    0.791952
     21          1           0       -0.190588   -2.305807   -0.893303
     22          1           0        0.369111    2.856085   -0.378364
     23          1           0        2.839945    2.687199   -0.281866
     24          1           0        3.922361    0.443306   -0.039903
     25          1           0        2.089790   -2.520400    0.071780
 ---------------------------------------------------------------------

 SCF Done:  E(UB3LYP) =  -577.052006493     A.U. after   33 cycles
 SCF Done:  E(UB3LYP) =  -577.052006493     a.u. after    1 cycles

 The electronic state is 2-A.
 Alpha  occ. eigenvalues --  -19.03708 -18.97266 -10.12539 -10.11257 -10.07831
 Alpha  occ. eigenvalues --  -10.07372 -10.07345 -10.07326 -10.06621 -10.06380
 Alpha  occ. eigenvalues --  -10.06340 -10.06312 -10.05309  -0.94855  -0.90944
 Alpha  occ. eigenvalues --   -0.75881  -0.70214  -0.67404  -0.62688  -0.62304
 Alpha  occ. eigenvalues --   -0.56302  -0.52585  -0.49721  -0.48414  -0.43402
 Alpha  occ. eigenvalues --   -0.40645  -0.38756  -0.36636  -0.35639  -0.34696
 Alpha  occ. eigenvalues --   -0.32455  -0.31784  -0.30699  -0.29783  -0.29055
 Alpha  occ. eigenvalues --   -0.28450  -0.28033  -0.27009  -0.26406  -0.25431
 Alpha  occ. eigenvalues --   -0.23454  -0.22440  -0.22302  -0.21615  -0.14142
 Alpha  occ. eigenvalues --   -0.11809  -0.11721   0.05167
 Alpha virt. eigenvalues --    0.07266   0.08350   0.08590   0.09229   0.09833
 Alpha virt. eigenvalues --    0.09989   0.10554   0.11163   0.11563   0.11956
 Alpha virt. eigenvalues --    0.12474   0.13531   0.14908   0.15359   0.15706

  Beta  occ. eigenvalues --  -19.03644 -18.97008 -10.12525 -10.11015 -10.07823
  Beta  occ. eigenvalues --  -10.07389 -10.07337 -10.07327 -10.06591 -10.06379
  Beta  occ. eigenvalues --  -10.06307 -10.06236 -10.05318  -0.94729  -0.90451
  Beta  occ. eigenvalues --   -0.75836  -0.70099  -0.67329  -0.62602  -0.62230
  Beta  occ. eigenvalues --   -0.56133  -0.52515  -0.49573  -0.48292  -0.43324
  Beta  occ. eigenvalues --   -0.40447  -0.38669  -0.36437  -0.35529  -0.34608
  Beta  occ. eigenvalues --   -0.32367  -0.31597  -0.30424  -0.29611  -0.28953
  Beta  occ. eigenvalues --   -0.28370  -0.27960  -0.26939  -0.26179  -0.25265
  Beta  occ. eigenvalues --   -0.23325  -0.22369  -0.21985  -0.20943  -0.14106
  Beta  occ. eigenvalues --   -0.11716  -0.11554
  Beta virt. eigenvalues --    0.07205   0.08310   0.08869   0.09242   0.09609
  Beta virt. eigenvalues --    0.10110   0.10518   0.11270   0.11562   0.12037
  Beta virt. eigenvalues --    0.12405   0.13079   0.13887   0.15118   0.15642

 Mulliken charges and spin densities:
               1          2
     1  C   -0.570198  -0.152542
     2  C    0.541500  -0.260582
     3  C   -0.356295   0.440900
     4  O   -0.356345   0.087809
     5  C    0.112615  -0.641137
     6  C    2.447163  -2.697919
     7  C   -2.599480   3.363175
     8  C    0.585975  -0.059287
     9  C   -0.556166   0.039629
    10  C   -0.242048  -0.101140
    11  C    0.896771  -0.981410
    12  C    0.430099  -1.221834
    13  O   -0.253569   0.030635
    14  H    0.081002   0.060835
    15  H    0.153184   0.001927
    16  H    0.122981  -0.000350
    17  H    0.207698   0.000776
    18  H   -0.244938   0.409994
    19  H   -0.092649   0.286019
    20  H   -0.890082   1.043382
    21  H   -0.111419   0.322416
    22  H    0.115855   0.003461
    23  H    0.138474  -0.003555
    24  H    0.035772   0.124702
    25  H   -0.595902   0.904095
 Sum of Mulliken charges =  -1.00000   1.00000

 Dipole moment (field-independent basis, Debye):
    X=              0.5820    Y=              9.1515    Z=             -1.0302  Tot=              9.2276
 Quadrupole moment (field-independent basis, Debye-Ang):
   XX=           -124.1195   YY=           -120.1789   ZZ=           -101.6400
   XY=              6.7866   XZ=             -6.2793   YZ=              6.0826

 Summary of Natural Population Analysis:

                                       Natural Population
                Natural  -----------------------------------------------
    Atom  No    Charge         Core      Valence    Rydberg      Total
 -----------------------------------------------------------------------
      C    1   -0.27224      0.99965     2.26801    0.00459     3.27224
      C    2   -0.15951      0.99953     2.14823    0.01175     3.15951
      C    3    0.32885      0.99963     1.64823    0.02329     2.67115
      O    4   -0.27609      0.99987     3.26940    0.00682     4.27609
      C    5   -0.23245      0.99959     2.22229    0.01057     3.23245
      C    6   -0.20176      0.99960     2.19142    0.01074     3.20176
      C    7   -0.04361      0.99943     2.03471    0.00947     3.04361
      C    8   -0.00089      0.99947     1.99106    0.01035     3.00089
      C    9   -0.12135      0.99952     2.11212    0.00972     3.12135
      C   10   -0.09632      0.99957     2.08871    0.00804     3.09632
      C   11   -0.13224      0.99952     2.12235    0.01038     3.13224
      C   12    0.17016      0.99933     1.81652    0.01399     2.82984
      O   13   -0.34258      0.99988     3.33586    0.00685     4.34258
      H   14    0.09943      0.00000     0.39970    0.00087     0.40057
      H   15    0.10024      0.00000     0.39899    0.00077     0.39976
      H   16    0.09570      0.00000     0.40348    0.00082     0.40430
      H   17    0.10825      0.00000     0.39045    0.00130     0.39175
      H   18    0.10841      0.00000     0.38947    0.00213     0.39159
      H   19    0.10927      0.00000     0.38954    0.00119     0.39073
      H   20    0.11314      0.00000     0.37334    0.01352     0.38686
      H   21    0.10502      0.00000     0.39342    0.00156     0.39498
      H   22    0.09522      0.00000     0.40372    0.00106     0.40478
      H   23    0.09472      0.00000     0.40450    0.00078     0.40528
      H   24    0.10352      0.00000     0.39564    0.00084     0.39648
      H   25    0.24710      0.00000     0.23998    0.01292     0.25290
 =======================================================================
   * Total *   -0.00000     12.99459    33.83113    0.17428    47.00000

 Normal termination of Gaussian 16 at Wed Dec  9 23:50:11 2020.
