 Gaussian 16, Revision A.03,

 -----------------------------------------------------------
 # opt freq B3LYP/6-31G(d) empiricaldispersion=gd3bj scf=xqc
 -----------------------------------------------------------

 ------------------------------
 CID_62398822_JID_9728_neutraal
 ------------------------------
 Symbolic Z-matrix:
 Charge =  0 Multiplicity = 1

 SCF Done:  E(RB3LYP) =  -957.585022437     A.U. after   15 cycles
 SCF Done:  E(RB3LYP) =  -957.590679030     A.U. after   13 cycles
 SCF Done:  E(RB3LYP) =  -957.591882486     A.U. after   12 cycles
 SCF Done:  E(RB3LYP) =  -957.592118821     A.U. after   13 cycles
 SCF Done:  E(RB3LYP) =  -957.592697576     A.U. after   13 cycles
 SCF Done:  E(RB3LYP) =  -957.593186111     A.U. after   12 cycles
 SCF Done:  E(RB3LYP) =  -957.594137710     A.U. after   13 cycles
 SCF Done:  E(RB3LYP) =  -957.594016296     A.U. after   13 cycles
 SCF Done:  E(RB3LYP) =  -957.594988545     A.U. after   12 cycles
 SCF Done:  E(RB3LYP) =  -957.595101353     A.U. after   12 cycles
 SCF Done:  E(RB3LYP) =  -957.596181976     A.U. after   11 cycles
 SCF Done:  E(RB3LYP) =  -957.596185700     A.U. after    9 cycles
 SCF Done:  E(RB3LYP) =  -957.596186990     A.U. after    8 cycles
 SCF Done:  E(RB3LYP) =  -957.596187333     A.U. after    8 cycles
 SCF Done:  E(RB3LYP) =  -957.596187383     A.U. after    8 cycles
 Optimization completed.
    -- Stationary point found.
 Normal termination of Gaussian 16 at Sat Dec 12 10:13:40 2020.

 --------------------------------------------------------------------
 #N Geom=AllCheck Guess=TCheck SCRF=Check GenChk RB3LYP/6-31G(d) Freq
 --------------------------------------------------------------------

 Structure from the checkpoint file:  "JID_9728.chk"
 ------------------------------
 CID_62398822_JID_9728_neutraal
 ------------------------------
 Charge =  0 Multiplicity = 1

 SCF Done:  E(RB3LYP) =  -957.596187383     A.U. after    1 cycles

  Exact polarizability: 192.643   5.804 160.617 -11.247   8.802 111.086
 Approx polarizability: 270.311  15.382 239.022 -18.921  24.600 175.971

                      1                      2                      3
                      A                      A                      A
 Frequencies --     21.6437                44.0289                67.1622
 Red. masses --      5.6505                 3.6295                 2.9825
 Frc consts  --      0.0016                 0.0041                 0.0079
 IR Inten    --      0.9834                 0.8166                 3.2597

                      4                      5                      6
                      A                      A                      A
 Frequencies --     86.8340                95.9931               101.2094
 Red. masses --      2.8800                 3.7188                 3.9015
 Frc consts  --      0.0128                 0.0202                 0.0235
 IR Inten    --      1.1140                 3.6736                 1.1412

                      7                      8                      9
                      A                      A                      A
 Frequencies --    116.7163               132.5038               149.3579
 Red. masses --      4.9056                 3.7698                 2.2392
 Frc consts  --      0.0394                 0.0390                 0.0294
 IR Inten    --      2.7604                 2.4360                 0.7952

                     10                     11                     12
                      A                      A                      A
 Frequencies --    163.4542               169.2316               183.0323
 Red. masses --      1.3473                 3.0587                 2.8296
 Frc consts  --      0.0212                 0.0516                 0.0559
 IR Inten    --      0.8059                 1.1671                 0.2523

                     13                     14                     15
                      A                      A                      A
 Frequencies --    189.8356               228.3061               231.0384
 Red. masses --      1.9286                 2.8471                 3.3890
 Frc consts  --      0.0409                 0.0874                 0.1066
 IR Inten    --      6.9382                 0.4024                 5.4199

                     16                     17                     18
                      A                      A                      A
 Frequencies --    243.7755               255.8035               277.3725
 Red. masses --      1.1551                 1.4925                 4.0097
 Frc consts  --      0.0404                 0.0575                 0.1818
 IR Inten    --      1.0955                 1.8570                 2.8928

                     19                     20                     21
                      A                      A                      A
 Frequencies --    287.0163               315.8722               319.7720
 Red. masses --      3.8247                 4.3446                 3.7781
 Frc consts  --      0.1856                 0.2554                 0.2276
 IR Inten    --      2.0711                 3.2513                 5.3733

                     22                     23                     24
                      A                      A                      A
 Frequencies --    347.2768               390.0070               410.3152
 Red. masses --      4.1543                 4.3212                 5.3686
 Frc consts  --      0.2952                 0.3873                 0.5325
 IR Inten    --      6.9369                 2.2910                13.0752

                     25                     26                     27
                      A                      A                      A
 Frequencies --    450.0821               463.0459               516.4594
 Red. masses --      5.1152                 4.9690                 2.4444
 Frc consts  --      0.6105                 0.6277                 0.3841
 IR Inten    --      1.3608                11.0421                29.2556

                     28                     29                     30
                      A                      A                      A
 Frequencies --    517.5914               539.0491               546.9264
 Red. masses --      1.7301                 3.1116                 3.7694
 Frc consts  --      0.2731                 0.5327                 0.6643
 IR Inten    --     52.6514                 2.9457                30.8565

                     31                     32                     33
                      A                      A                      A
 Frequencies --    566.4670               588.9195               635.9723
 Red. masses --      3.4072                 3.6817                 1.9523
 Frc consts  --      0.6442                 0.7523                 0.4652
 IR Inten    --     24.8480                 9.6871                83.0089

                     34                     35                     36
                      A                      A                      A
 Frequencies --    646.8164               718.6842               732.2231
 Red. masses --      3.7573                 4.6573                 3.9134
 Frc consts  --      0.9262                 1.4173                 1.2362
 IR Inten    --     29.9965                16.4319                 7.4979

                     37                     38                     39
                      A                      A                      A
 Frequencies --    744.8502               759.0700               788.9920
 Red. masses --      4.6148                 4.5174                 3.8394
 Frc consts  --      1.5085                 1.5336                 1.4082
 IR Inten    --     10.4623                 4.6350                 7.6044

                     40                     41                     42
                      A                      A                      A
 Frequencies --    818.0843               853.5844               861.4228
 Red. masses --      4.0448                 1.6074                 2.7839
 Frc consts  --      1.5949                 0.6900                 1.2171
 IR Inten    --     80.7829                10.9059                11.3278

                     43                     44                     45
                      A                      A                      A
 Frequencies --    908.0021               936.5665              1006.0466
 Red. masses --      1.4755                 2.2571                 4.4485
 Frc consts  --      0.7167                 1.1665                 2.6528
 IR Inten    --     21.0758                 6.6570                13.1646

                     46                     47                     48
                      A                      A                      A
 Frequencies --   1037.4919              1059.1025              1071.5726
 Red. masses --      1.8611                 5.8929                 6.6034
 Frc consts  --      1.1803                 3.8945                 4.4675
 IR Inten    --      9.1083               164.7786                75.1757

                     49                     50                     51
                      A                      A                      A
 Frequencies --   1087.7228              1114.9514              1142.9641
 Red. masses --      4.8694                 2.0069                 2.9711
 Frc consts  --      3.3944                 1.4699                 2.2868
 IR Inten    --     29.9647                44.1925                13.5324

                     52                     53                     54
                      A                      A                      A
 Frequencies --   1176.8825              1185.9856              1186.9363
 Red. masses --      2.9395                 1.2649                 1.2678
 Frc consts  --      2.3988                 1.0483                 1.0523
 IR Inten    --    125.2134                 4.2310                 1.4264

                     55                     56                     57
                      A                      A                      A
 Frequencies --   1188.1960              1203.1895              1217.7020
 Red. masses --      1.2613                 1.5719                 1.6876
 Frc consts  --      1.0491                 1.3408                 1.4744
 IR Inten    --      2.9089                82.0215                37.9403

                     58                     59                     60
                      A                      A                      A
 Frequencies --   1222.7212              1227.4312              1243.6652
 Red. masses --      1.3913                 2.0293                 1.8683
 Frc consts  --      1.2256                 1.8013                 1.7026
 IR Inten    --      3.5273               123.2659               122.0159

                     61                     62                     63
                      A                      A                      A
 Frequencies --   1248.6637              1272.1302              1287.8094
 Red. masses --      2.1307                 1.7572                 1.4131
 Frc consts  --      1.9573                 1.6755                 1.3808
 IR Inten    --     70.0960                83.8715                 8.4098

                     64                     65                     66
                      A                      A                      A
 Frequencies --   1318.6744              1330.3979              1368.1748
 Red. masses --      1.3468                 3.7072                 4.8815
 Frc consts  --      1.3799                 3.8660                 5.3838
 IR Inten    --     43.8135                46.5273               126.8083

                     67                     68                     69
                      A                      A                      A
 Frequencies --   1377.0607              1388.8105              1411.2684
 Red. masses --      1.4863                 2.1861                 2.5461
 Frc consts  --      1.6606                 2.4843                 2.9877
 IR Inten    --     18.6096                37.7060                55.2481

                     70                     71                     72
                      A                      A                      A
 Frequencies --   1444.6820              1459.0843              1489.0610
 Red. masses --      1.2861                 1.7885                 1.2137
 Frc consts  --      1.5815                 2.2434                 1.5856
 IR Inten    --     13.1311                35.8357                46.1524

                     73                     74                     75
                      A                      A                      A
 Frequencies --   1495.9051              1496.4143              1511.7143
 Red. masses --      1.2154                 1.2019                 1.2313
 Frc consts  --      1.6024                 1.5857                 1.6579
 IR Inten    --     72.9357                 0.3632                 3.8707

                     76                     77                     78
                      A                      A                      A
 Frequencies --   1515.3964              1516.8654              1520.7302
 Red. masses --      1.0499                 1.1874                 1.0480
 Frc consts  --      1.4205                 1.6097                 1.4279
 IR Inten    --      5.9654                11.0151                 6.3500

                     79                     80                     81
                      A                      A                      A
 Frequencies --   1525.1421              1531.0287              1534.9414
 Red. masses --      1.0435                 1.0705                 1.0761
 Frc consts  --      1.4300                 1.4785                 1.4938
 IR Inten    --     11.7323                11.1349                51.1980

                     82                     83                     84
                      A                      A                      A
 Frequencies --   1541.2796              1543.0370              1564.5476
 Red. masses --      1.0504                 1.0526                 2.9413
 Frc consts  --      1.4702                 1.4766                 4.2420
 IR Inten    --      5.0900                 7.0558               214.4038

                     85                     86                     87
                      A                      A                      A
 Frequencies --   1632.3567              1667.5262              1794.3108
 Red. masses --      8.3421                 6.5280                 8.8855
 Frc consts  --     13.0965                10.6949                16.8550
 IR Inten    --     12.9373                51.8834               238.8127

                     88                     89                     90
                      A                      A                      A
 Frequencies --   3028.3345              3032.1573              3036.4098
 Red. masses --      1.0347                 1.0395                 1.0391
 Frc consts  --      5.5907                 5.6309                 5.6443
 IR Inten    --     54.1120                66.8061                69.9794

                     91                     92                     93
                      A                      A                      A
 Frequencies --   3038.6295              3058.0252              3067.0236
 Red. masses --      1.0835                 1.0815                 1.0400
 Frc consts  --      5.8945                 5.9589                 5.7638
 IR Inten    --     20.0307                15.2288                20.6338

                     94                     95                     96
                      A                      A                      A
 Frequencies --   3088.3608              3111.1854              3118.2853
 Red. masses --      1.1066                 1.0956                 1.0973
 Frc consts  --      6.2187                 6.2484                 6.2867
 IR Inten    --     39.1968                38.0184                21.2713

                     97                     98                     99
                      A                      A                      A
 Frequencies --   3131.9115              3153.4224              3157.3463
 Red. masses --      1.1014                 1.1049                 1.1016
 Frc consts  --      6.3653                 6.4737                 6.4703
 IR Inten    --     22.1948                30.4724                19.9872

                    100                    101                    102
                      A                      A                      A
 Frequencies --   3162.0079              3162.2188              3198.5208
 Red. masses --      1.1055                 1.1005                 1.0901
 Frc consts  --      6.5120                 6.4835                 6.5708
 IR Inten    --     27.5003                16.6508                 6.6957

                    103                    104                    105
                      A                      A                      A
 Frequencies --   3233.0457              3608.0225              3685.8555
 Red. masses --      1.0898                 1.0669                 1.0638
 Frc consts  --      6.7114                 8.1834                 8.5149
 IR Inten    --      4.3717               162.3496                47.6725

 - Thermochemistry -
 -------------------
 Temperature   298.150 Kelvin.  Pressure   1.00000 Atm.
 Atom     1 has atomic number  6 and mass  12.00000

 Molecular mass:   270.11034 amu.
 Principal axes and moments of inertia in atomic units:
                           1         2         3
     Eigenvalues --  2864.674797280.826238392.27485
           X            0.99992  -0.00755  -0.01047
           Y            0.00728   0.99965  -0.02562
           Z            0.01066   0.02555   0.99962
 This molecule is an asymmetric top.
 Rotational symmetry number  1.
 Warning -- assumption of classical behavior for rotation
           may cause significant error
 Rotational temperatures (Kelvin)      0.03024     0.01190     0.01032
 Rotational constants (GHZ):           0.63000     0.24788     0.21505
 Zero-point vibrational energy     799408.7 (Joules/Mol)
                                  191.06328 (Kcal/Mol)
 Warning -- explicit consideration of  32 degrees of freedom as
           vibrations may cause significant error
 Vibrational temperatures:     31.14    63.35    96.63   124.93   138.11
          (Kelvin)            145.62   167.93   190.64   214.89   235.17
                              243.49   263.34   273.13   328.48   332.41
                              350.74   368.04   399.08   412.95   454.47
                              460.08   499.65   561.13   590.35   647.57
                              666.22   743.07   744.70   775.57   786.91
                              815.02   847.32   915.02   930.62  1034.03
                             1053.51  1071.67  1092.13  1135.18  1177.04
                             1228.12  1239.40  1306.41  1347.51  1447.48
                             1492.72  1523.81  1541.75  1564.99  1604.17
                             1644.47  1693.27  1706.37  1707.74  1709.55
                             1731.12  1752.00  1759.22  1766.00  1789.36
                             1796.55  1830.31  1852.87  1897.28  1914.15
                             1968.50  1981.28  1998.19  2030.50  2078.58
                             2099.30  2142.43  2152.27  2153.01  2175.02
                             2180.32  2182.43  2187.99  2194.34  2202.81
                             2208.44  2217.56  2220.09  2251.04  2348.60
                             2399.20  2581.61  4357.10  4362.60  4368.72
                             4371.91  4399.82  4412.76  4443.46  4476.30
                             4486.52  4506.12  4537.07  4542.72  4549.42
                             4549.73  4601.96  4651.63  5191.14  5303.12

 Zero-point correction=                           0.304479 (Hartree/Particle)
 Thermal correction to Energy=                    0.324412
 Thermal correction to Enthalpy=                  0.325356
 Thermal correction to Gibbs Free Energy=         0.256041
 Sum of electronic and zero-point Energies=           -957.291709
 Sum of electronic and thermal Energies=              -957.271775
 Sum of electronic and thermal Enthalpies=            -957.270831
 Sum of electronic and thermal Free Energies=         -957.340146

                     E (Thermal)             CV                S
                      KCal/Mol        Cal/Mol-Kelvin    Cal/Mol-Kelvin
 Total                  203.572             73.542            145.886
 Electronic               0.000              0.000              0.000
 Translational            0.889              2.981             42.680
 Rotational               0.889              2.981             33.526
 Vibrational            201.794             67.580             69.680
 Vibration     1          0.593              1.985              6.477
 Vibration     2          0.595              1.980              5.069
 Vibration     3          0.598              1.970              4.235
 Vibration     4          0.601              1.958              3.730
 Vibration     5          0.603              1.952              3.534
 Vibration     6          0.604              1.948              3.431
 Vibration     7          0.608              1.935              3.154
 Vibration     8          0.613              1.921              2.909
 Vibration     9          0.618              1.903              2.680
 Vibration    10          0.623              1.887              2.509
 Vibration    11          0.625              1.880              2.444
 Vibration    12          0.631              1.863              2.297
 Vibration    13          0.633              1.854              2.229
 Vibration    14          0.651              1.798              1.892
 Vibration    15          0.653              1.794              1.871
 Vibration    16          0.659              1.773              1.775
 Vibration    17          0.666              1.753              1.690
 Vibration    18          0.678              1.715              1.550
 Vibration    19          0.684              1.698              1.491
 Vibration    20          0.703              1.643              1.331
 Vibration    21          0.706              1.636              1.311
 Vibration    22          0.725              1.581              1.179
 Vibration    23          0.758              1.492              1.000
 Vibration    24          0.774              1.448              0.926
 Vibration    25          0.809              1.361              0.796
 Vibration    26          0.821              1.332              0.757
 Vibration    27          0.871              1.214              0.618
 Vibration    28          0.873              1.211              0.616
 Vibration    29          0.894              1.164              0.567
 Vibration    30          0.902              1.146              0.551
 Vibration    31          0.922              1.104              0.511
 Vibration    32          0.946              1.055              0.469

                           ! Non-Optimized Parameters !
 Normal termination of Gaussian 16 at Sat Dec 12 10:33:17 2020.

 ----------------------------------------------------------------------
 # B3LYP/6-311++G(d,p) empiricaldispersion=gd3bj scf=xqc pop=npa geom=c
 heck
 ----------------------------------------------------------------------

 --------------------------------------
 CID_62398822_JID_9728_Energie_neutraal
 --------------------------------------
 Structure from the checkpoint file:  "JID_9728.chk"
 Charge =  0 Multiplicity = 1

 SCF Done:  E(RB3LYP) =  -957.884708978     A.U. after   15 cycles
 Normal termination of Gaussian 16 at Sat Dec 12 10:41:55 2020.

 ----------------------------------------------------------------------
 # B3LYP/6-311++G(d,p) empiricaldispersion=gd3bj scf=xqc pop=npa geom=c
 heck
 ----------------------------------------------------------------------

 ------------------------------------
 CID_62398822_JID_9728_Energie_kation
 ------------------------------------
 Structure from the checkpoint file:  "JID_9728.chk"
 Charge =  1 Multiplicity = 2

 SCF Done:  E(UB3LYP) =  -957.598887124     A.U. after   23 cycles
 Normal termination of Gaussian 16 at Sat Dec 12 11:00:24 2020.
 Gaussian 16:  ES64L-G16RevA.03 25-Dec-2016

 ----------------------------------------------------------------------
 # B3LYP/6-311++G(d,p) empiricaldispersion=gd3bj scf=xqc pop=npa geom=c
 heck
 ----------------------------------------------------------------------

 -----------------------------------
 CID_62398822_JID_9728_Energie_anion
 -----------------------------------
 Structure from the checkpoint file:  "JID_9728.chk"
 Charge = -1 Multiplicity = 2

                         Standard orientation:
 ---------------------------------------------------------------------
 Center     Atomic      Atomic             Coordinates (Angstroms)
 Number     Number       Type             X           Y           Z
 ---------------------------------------------------------------------
      1          6           0        1.778077   -2.269728    1.197979
      2          6           0        2.509014   -1.386650    0.186894
      3          6           0        1.608248   -1.023193   -1.041104
      4          6           0        0.253243   -0.445616   -0.661497
      5          6           0       -0.893722   -1.235288   -0.817249
      6          6           0       -2.165387   -0.781641   -0.491145
      7          6           0       -2.323849    0.524641    0.016021
      8          6           0       -1.193181    1.323514    0.190899
      9          6           0        0.075353    0.840068   -0.142119
     10          8           0        1.167426    1.650594    0.094297
     11          6           0        1.431118    2.603761   -0.940468
     12          8           0       -3.599354    0.914318    0.300954
     13          6           0       -3.794724    2.235491    0.777880
     14          8           0       -3.247004   -1.595625   -0.725953
     15          6           0       -3.906809   -2.073196    0.447228
     16          8           0        2.310259   -0.238091   -1.991258
     17          6           0        3.134053   -0.137259    0.772546
     18          8           0        3.901373    0.579955    0.148890
     19          8           0        2.790870    0.115919    2.045791
     20          1           0        0.946467   -1.734403    1.661248
     21          1           0        2.454977   -2.601786    1.990185
     22          1           0        1.376292   -3.156425    0.695969
     23          1           0        3.355088   -1.937069   -0.243678
     24          1           0        1.401739   -1.984558   -1.528208
     25          1           0       -0.812204   -2.240742   -1.220222
     26          1           0       -1.264390    2.325380    0.596202
     27          1           0        2.369328    3.092115   -0.669432
     28          1           0        1.538629    2.098707   -1.904820
     29          1           0        0.628002    3.350036   -0.997737
     30          1           0       -3.283516    2.397589    1.735888
     31          1           0       -3.441844    2.978419    0.051158
     32          1           0       -4.871069    2.346835    0.917504
     33          1           0       -3.210349   -2.637523    1.082127
     34          1           0       -4.342518   -1.251063    1.023354
     35          1           0       -4.700262   -2.738488    0.099552
     36          1           0        3.008621    0.247847   -1.510720
     37          1           0        3.189845    0.979148    2.264680
 ---------------------------------------------------------------------

 SCF Done:  E(UB3LYP) =  -957.873987400     A.U. after   33 cycles
 SCF Done:  E(UB3LYP) =  -957.873987400     a.u. after    1 cycles

 The electronic state is 2-A.
 Alpha  occ. eigenvalues --  -19.08626 -19.06928 -19.05299 -19.04976 -19.03263
 Alpha  occ. eigenvalues --  -19.02785 -10.22571 -10.15128 -10.15112 -10.14137
 Alpha  occ. eigenvalues --  -10.13794 -10.12992 -10.12878 -10.12533 -10.11179
 Alpha  occ. eigenvalues --  -10.09008 -10.08936 -10.08630 -10.07907  -1.02952
 Alpha  occ. eigenvalues --   -0.98976  -0.96724  -0.96371  -0.94412  -0.92919
 Alpha  occ. eigenvalues --   -0.77013  -0.72521  -0.67884  -0.67033  -0.62868
 Alpha  occ. eigenvalues --   -0.61728  -0.59360  -0.58260  -0.56646  -0.52727
 Alpha  occ. eigenvalues --   -0.51872  -0.48998  -0.45240  -0.43894  -0.42981
 Alpha  occ. eigenvalues --   -0.41889  -0.40931  -0.40788  -0.39466  -0.38787
 Alpha  occ. eigenvalues --   -0.37101  -0.37032  -0.36477  -0.36142  -0.35563
 Alpha  occ. eigenvalues --   -0.34654  -0.34411  -0.33862  -0.32907  -0.32090
 Alpha  occ. eigenvalues --   -0.31283  -0.29986  -0.29828  -0.29243  -0.27272
 Alpha  occ. eigenvalues --   -0.27148  -0.26168  -0.25132  -0.24652  -0.24077
 Alpha  occ. eigenvalues --   -0.22619  -0.19976  -0.19779  -0.19195  -0.18830
 Alpha  occ. eigenvalues --   -0.15852  -0.13111   0.03913
 Alpha virt. eigenvalues --    0.05474   0.05982   0.06821   0.07246   0.07454
 Alpha virt. eigenvalues --    0.07664   0.08411   0.08775   0.09067   0.09554
 Alpha virt. eigenvalues --    0.09688   0.10492   0.10809   0.11249   0.11678

  Beta  occ. eigenvalues --  -19.08591 -19.06920 -19.05295 -19.04970 -19.03251
  Beta  occ. eigenvalues --  -19.02782 -10.22565 -10.15124 -10.15113 -10.14135
  Beta  occ. eigenvalues --  -10.13793 -10.12934 -10.12865 -10.12519 -10.11167
  Beta  occ. eigenvalues --  -10.09007 -10.08933 -10.08615 -10.07883  -1.02905
  Beta  occ. eigenvalues --   -0.98961  -0.96716  -0.96361  -0.94386  -0.92902
  Beta  occ. eigenvalues --   -0.77006  -0.72495  -0.67862  -0.67019  -0.62816
  Beta  occ. eigenvalues --   -0.61701  -0.59330  -0.58205  -0.56607  -0.52691
  Beta  occ. eigenvalues --   -0.51814  -0.48976  -0.45212  -0.43864  -0.42964
  Beta  occ. eigenvalues --   -0.41868  -0.40909  -0.40758  -0.39444  -0.38762
  Beta  occ. eigenvalues --   -0.37083  -0.37006  -0.36453  -0.36113  -0.35536
  Beta  occ. eigenvalues --   -0.34622  -0.34391  -0.33832  -0.32874  -0.32072
  Beta  occ. eigenvalues --   -0.31257  -0.29966  -0.29799  -0.29224  -0.27242
  Beta  occ. eigenvalues --   -0.27119  -0.26144  -0.25109  -0.24628  -0.24047
  Beta  occ. eigenvalues --   -0.22601  -0.19948  -0.19763  -0.19178  -0.18821
  Beta  occ. eigenvalues --   -0.15840  -0.13102
  Beta virt. eigenvalues --    0.05892   0.06412   0.06547   0.07159   0.07541
  Beta virt. eigenvalues --    0.07843   0.08003   0.08679   0.09133   0.09379
  Beta virt. eigenvalues --    0.09853   0.10079   0.10605   0.11223   0.11421

 Mulliken charges and spin densities:
               1          2
     1  C    0.382674  -1.161340
     2  C    0.136134   0.371882
     3  C    0.282059  -0.608148
     4  C    1.201828   0.040836
     5  C   -0.396879  -0.109268
     6  C   -0.942388   0.056748
     7  C   -0.703570   0.436924
     8  C    0.221349  -0.261966
     9  C   -0.097405   0.059443
    10  O   -0.142524   0.017019
    11  C    0.058639  -0.386415
    12  O   -0.239234   0.069031
    13  C    1.021519  -1.384144
    14  O   -0.165333   0.015546
    15  C    0.109577  -0.406964
    16  O   -0.165492   0.005724
    17  C    0.059227  -0.409763
    18  O   -0.289254   0.036946
    19  O   -0.122964   0.054148
    20  H    0.174106   0.029739
    21  H   -0.112107   0.276171
    22  H   -0.148014   0.282076
    23  H   -0.086387   0.340747
    24  H    0.083741   0.120845
    25  H    0.107203   0.063755
    26  H   -0.000572   0.248041
    27  H    0.074789   0.088708
    28  H    0.113897   0.055879
    29  H   -0.153090   0.273644
    30  H   -0.407048   0.580345
    31  H   -0.230483   0.390430
    32  H   -0.658090   0.846585
    33  H   -0.033958   0.158861
    34  H   -0.004590   0.174487
    35  H    0.061284   0.077374
    36  H    0.294603  -0.030660
    37  H   -0.283247   0.586733
 Sum of Mulliken charges =  -1.00000   1.00000

 Dipole moment (field-independent basis, Debye):
    X=              2.2136    Y=             -3.6079    Z=             -2.9777  Tot=              5.1753
 Quadrupole moment (field-independent basis, Debye-Ang):
   XX=           -199.7191   YY=           -160.3057   ZZ=           -154.9769
   XY=             16.2205   XZ=              1.0617   YZ=             -7.4276

 Summary of Natural Population Analysis:

                                       Natural Population
                Natural  -----------------------------------------------
    Atom  No    Charge         Core      Valence    Rydberg      Total
 -----------------------------------------------------------------------
      C    1   -0.28833      0.99965     2.28148    0.00721     3.28833
      C    2   -0.16330      0.99952     2.15228    0.01149     3.16330
      C    3    0.07282      0.99950     1.91114    0.01654     2.92718
      C    4   -0.05940      0.99943     2.04872    0.01125     3.05940
      C    5   -0.10247      0.99949     2.09455    0.00843     3.10247
      C    6    0.13070      0.99933     1.85655    0.01342     2.86930
      C    7    0.14959      0.99935     1.83752    0.01353     2.85041
      C    8   -0.15140      0.99948     2.14323    0.00869     3.15140
      C    9    0.16365      0.99932     1.82246    0.01456     2.83635
      O   10   -0.29925      0.99987     3.28581    0.01357     4.29925
      C   11   -0.10001      0.99958     2.09147    0.00896     3.10001
      O   12   -0.27151      0.99986     3.26089    0.01076     4.27151
      C   13   -0.10069      0.99960     2.09190    0.00919     3.10069
      O   14   -0.28613      0.99986     3.27633    0.00993     4.28613
      C   15   -0.09701      0.99959     2.08952    0.00789     3.09701
      O   16   -0.37844      0.99989     3.37255    0.00600     4.37844
      C   17    0.41920      0.99967     1.55453    0.02660     2.58080
      O   18   -0.32755      0.99986     3.32145    0.00624     4.32755
      O   19   -0.33201      0.99987     3.32513    0.00701     4.33201
      H   20    0.11014      0.00000     0.38837    0.00150     0.38986
      H   21    0.10580      0.00000     0.39320    0.00099     0.39420
      H   22    0.10020      0.00000     0.39863    0.00117     0.39980
      H   23    0.11489      0.00000     0.38384    0.00127     0.38511
      H   24    0.08787      0.00000     0.41008    0.00206     0.41213
      H   25    0.10470      0.00000     0.39386    0.00144     0.39530
      H   26    0.11390      0.00000     0.38437    0.00173     0.38610
      H   27    0.09264      0.00000     0.40643    0.00093     0.40736
      H   28    0.09201      0.00000     0.40704    0.00094     0.40799
      H   29    0.08247      0.00000     0.41637    0.00116     0.41753
      H   30    0.08788      0.00000     0.40958    0.00253     0.41212
      H   31    0.08639      0.00000     0.41170    0.00191     0.41361
      H   32    0.09672      0.00000     0.40159    0.00169     0.40328
      H   33    0.07992      0.00000     0.41846    0.00162     0.42008
      H   34    0.09125      0.00000     0.40672    0.00203     0.40875
      H   35    0.08667      0.00000     0.41220    0.00113     0.41333
      H   36    0.24277      0.00000     0.25384    0.00339     0.25723
      H   37    0.24531      0.00000     0.24694    0.00775     0.25469
 =======================================================================
   * Total *    0.00001     18.99272    52.76075    0.24653    71.99999

 Normal termination of Gaussian 16 at Sat Dec 12 11:27:06 2020.
