 Gaussian 16, Revision A.03,

 -----------------------------------------------------------
 # opt freq B3LYP/6-31G(d) empiricaldispersion=gd3bj scf=xqc
 -----------------------------------------------------------

 -------------------------------
 CID_129196218_JID_1869_neutraal
 -------------------------------
 Symbolic Z-matrix:
 Charge =  0 Multiplicity = 1

 SCF Done:  E(RB3LYP) =  -447.236402138     A.U. after   13 cycles
 SCF Done:  E(RB3LYP) =  -447.242562723     A.U. after   12 cycles
 SCF Done:  E(RB3LYP) =  -447.243338173     A.U. after   11 cycles
 SCF Done:  E(RB3LYP) =  -447.243621416     A.U. after   11 cycles
 SCF Done:  E(RB3LYP) =  -447.243632547     A.U. after   11 cycles
 SCF Done:  E(RB3LYP) =  -447.243781052     A.U. after   10 cycles
 SCF Done:  E(RB3LYP) =  -447.243846281     A.U. after   10 cycles
 SCF Done:  E(RB3LYP) =  -447.243869740     A.U. after    9 cycles
 SCF Done:  E(RB3LYP) =  -447.243886257     A.U. after    9 cycles
 SCF Done:  E(RB3LYP) =  -447.243895503     A.U. after    9 cycles
 SCF Done:  E(RB3LYP) =  -447.243896334     A.U. after    7 cycles
 SCF Done:  E(RB3LYP) =  -447.243896511     A.U. after    7 cycles
 SCF Done:  E(RB3LYP) =  -447.243896583     A.U. after    7 cycles
 Optimization completed.
    -- Stationary point found.
 Normal termination of Gaussian 16 at Tue Dec  8 21:30:08 2020.

 --------------------------------------------------------------------
 #N Geom=AllCheck Guess=TCheck SCRF=Check GenChk RB3LYP/6-31G(d) Freq
 --------------------------------------------------------------------

 Structure from the checkpoint file:  "JID_1869.chk"
 -------------------------------
 CID_129196218_JID_1869_neutraal
 -------------------------------
 Charge =  0 Multiplicity = 1

 SCF Done:  E(RB3LYP) =  -447.243896583     A.U. after    1 cycles

  Exact polarizability: 128.440   8.081 115.981   1.220   4.292  94.897
 Approx polarizability: 176.824  14.666 161.236   5.097   7.745 133.291

                      1                      2                      3
                      A                      A                      A
 Frequencies --     52.1230                71.3417                93.6272
 Red. masses --      2.6852                 2.3675                 2.9647
 Frc consts  --      0.0043                 0.0071                 0.0153
 IR Inten    --      0.1515                 0.1289                 0.4528

                      4                      5                      6
                      A                      A                      A
 Frequencies --    116.9507               143.9958               179.6511
 Red. masses --      2.6021                 2.7263                 1.4455
 Frc consts  --      0.0210                 0.0333                 0.0275
 IR Inten    --      0.0396                 0.9167                 0.7271

                      7                      8                      9
                      A                      A                      A
 Frequencies --    185.0987               231.8254               238.5050
 Red. masses --      1.1927                 1.8037                 1.2185
 Frc consts  --      0.0241                 0.0571                 0.0408
 IR Inten    --      1.0200                 0.8933                 0.2961

                     10                     11                     12
                      A                      A                      A
 Frequencies --    257.4308               267.4271               279.9230
 Red. masses --      1.4215                 1.0573                 1.3227
 Frc consts  --      0.0555                 0.0445                 0.0611
 IR Inten    --      0.6049                 0.0183                 0.8717

                     13                     14                     15
                      A                      A                      A
 Frequencies --    302.3443               340.0128               352.5190
 Red. masses --      2.3500                 2.5128                 2.2365
 Frc consts  --      0.1266                 0.1712                 0.1637
 IR Inten    --      0.8191                 0.4154                 3.0741

                     16                     17                     18
                      A                      A                      A
 Frequencies --    372.0831               397.8276               461.6170
 Red. masses --      2.6869                 2.3688                 2.8221
 Frc consts  --      0.2192                 0.2209                 0.3543
 IR Inten    --      2.0946                 1.4074                 0.5801

                     19                     20                     21
                      A                      A                      A
 Frequencies --    498.9399               593.5532               624.8662
 Red. masses --      3.2666                 4.6502                 3.2753
 Frc consts  --      0.4791                 0.9653                 0.7535
 IR Inten    --     14.2036                 4.6583                 9.7786

                     22                     23                     24
                      A                      A                      A
 Frequencies --    678.5133               707.2954               801.2941
 Red. masses --      3.2670                 3.7014                 1.4063
 Frc consts  --      0.8862                 1.0910                 0.5320
 IR Inten    --      2.7859                 3.3231                 9.9088

                     25                     26                     27
                      A                      A                      A
 Frequencies --    810.6394               849.0360               893.8047
 Red. masses --      1.1721                 1.8985                 2.3258
 Frc consts  --      0.4538                 0.8063                 1.0947
 IR Inten    --      1.1836                18.6961                 2.3721

                     28                     29                     30
                      A                      A                      A
 Frequencies --    939.8355               963.1036               977.5810
 Red. masses --      1.1567                 1.8668                 1.5605
 Frc consts  --      0.6020                 1.0202                 0.8787
 IR Inten    --      0.8102                 5.2885                 0.9931

                     31                     32                     33
                      A                      A                      A
 Frequencies --    981.4732              1042.4813              1068.6634
 Red. masses --      1.5238                 2.7474                 1.4342
 Frc consts  --      0.8648                 1.7592                 0.9650
 IR Inten    --      4.0172                12.9228                 0.3685

                     34                     35                     36
                      A                      A                      A
 Frequencies --   1070.8728              1110.4868              1126.1415
 Red. masses --      1.4564                 2.1952                 1.9334
 Frc consts  --      0.9840                 1.5949                 1.4446
 IR Inten    --      1.6646                 7.8001                10.0719

                     37                     38                     39
                      A                      A                      A
 Frequencies --   1130.7278              1137.6785              1166.7130
 Red. masses --      1.8346                 2.2447                 1.7091
 Frc consts  --      1.3820                 1.7118                 1.3707
 IR Inten    --     11.1025                 1.9346                 1.8093

                     40                     41                     42
                      A                      A                      A
 Frequencies --   1195.7398              1218.5394              1259.8448
 Red. masses --      2.1652                 2.4736                 2.1596
 Frc consts  --      1.8240                 2.1640                 2.0195
 IR Inten    --     26.7104                25.8778                30.4576

                     43                     44                     45
                      A                      A                      A
 Frequencies --   1274.0655              1317.8082              1357.5175
 Red. masses --      3.9994                 1.1447                 1.4198
 Frc consts  --      3.8250                 1.1712                 1.5416
 IR Inten    --     67.9748                 0.3071                 2.1781

                     46                     47                     48
                      A                      A                      A
 Frequencies --   1366.5194              1393.5678              1403.6183
 Red. masses --      1.4568                 1.3661                 1.6408
 Frc consts  --      1.6028                 1.5631                 1.9046
 IR Inten    --     14.7270                47.8572                 3.3628

                     49                     50                     51
                      A                      A                      A
 Frequencies --   1431.6687              1437.9589              1440.2926
 Red. masses --      1.2662                 1.2650                 1.2591
 Frc consts  --      1.5291                 1.5411                 1.5390
 IR Inten    --      1.5023                10.3670                 8.8943

                     52                     53                     54
                      A                      A                      A
 Frequencies --   1443.5763              1455.4142              1510.6073
 Red. masses --      1.3247                 1.2238                 1.0464
 Frc consts  --      1.6265                 1.5273                 1.4069
 IR Inten    --      2.6602                 9.8933                 1.7784

                     55                     56                     57
                      A                      A                      A
 Frequencies --   1514.1217              1517.0299              1518.5133
 Red. masses --      1.0495                 1.0475                 1.0424
 Frc consts  --      1.4176                 1.4204                 1.4162
 IR Inten    --      2.0730                 4.8417                 2.6756

                     58                     59                     60
                      A                      A                      A
 Frequencies --   1520.8065              1525.0080              1526.2835
 Red. masses --      1.0554                 1.0468                 1.0507
 Frc consts  --      1.4382                 1.4343                 1.4421
 IR Inten    --      2.3922                 4.8400                 2.9297

                     61                     62                     63
                      A                      A                      A
 Frequencies --   1530.8413              1537.5969              1541.0714
 Red. masses --      1.0574                 1.0566                 1.0605
 Frc consts  --      1.4600                 1.4718                 1.4838
 IR Inten    --      6.7717                 5.9824                 1.5410

                     64                     65                     66
                      A                      A                      A
 Frequencies --   1547.6250              1866.3090              3003.3131
 Red. masses --      1.0528                 9.8434                 1.0823
 Frc consts  --      1.4857                20.2005                 5.7519
 IR Inten    --      6.3464                69.4485                25.6150

                     67                     68                     69
                      A                      A                      A
 Frequencies --   3023.3824              3030.1545              3047.3650
 Red. masses --      1.0383                 1.0629                 1.0385
 Frc consts  --      5.5917                 5.7502                 5.6819
 IR Inten    --     58.1003                39.0436                 5.1552

                     70                     71                     72
                      A                      A                      A
 Frequencies --   3050.4293              3054.2471              3056.4634
 Red. masses --      1.0395                 1.0359                 1.0399
 Frc consts  --      5.6990                 5.6933                 5.7240
 IR Inten    --     43.0737                26.8796                30.0830

                     73                     74                     75
                      A                      A                      A
 Frequencies --   3066.2600              3076.1333              3108.7799
 Red. masses --      1.1005                 1.0980                 1.1013
 Frc consts  --      6.0962                 6.1216                 6.2709
 IR Inten    --     33.6529                21.6460                 3.7924

                     76                     77                     78
                      A                      A                      A
 Frequencies --   3111.4549              3114.3010              3118.6982
 Red. masses --      1.0987                 1.0990                 1.1008
 Frc consts  --      6.2667                 6.2799                 6.3082
 IR Inten    --     31.5821                13.5464                67.3596

                     79                     80                     81
                      A                      A                      A
 Frequencies --   3121.3539              3134.3115              3135.2970
 Red. masses --      1.1021                 1.1031                 1.1006
 Frc consts  --      6.3264                 6.3848                 6.3744
 IR Inten    --     42.2548                27.9161                35.8740

                     82                     83                     84
                      A                      A                      A
 Frequencies --   3150.9475              3152.5196              3156.3201
 Red. masses --      1.1007                 1.0975                 1.0883
 Frc consts  --      6.4387                 6.4266                 6.3880
 IR Inten    --     10.7124                27.3320                31.2019

 - Thermochemistry -
 -------------------
 Temperature   298.150 Kelvin.  Pressure   1.00000 Atm.
 Atom     1 has atomic number  6 and mass  12.00000

 Molecular mass:   153.15175 amu.
 Principal axes and moments of inertia in atomic units:
                           1         2         3
     Eigenvalues --  1600.362071980.232282538.03718
           X            0.99996  -0.00897  -0.00040
           Y            0.00898   0.99975   0.02048
           Z            0.00022  -0.02048   0.99979
 This molecule is an asymmetric top.
 Rotational symmetry number  1.
 Warning -- assumption of classical behavior for rotation
           may cause significant error
 Rotational temperatures (Kelvin)      0.05412     0.04374     0.03413
 Rotational constants (GHZ):           1.12771     0.91138     0.71108
 Zero-point vibrational energy     717051.7 (Joules/Mol)
                                  171.37947 (Kcal/Mol)
 Warning -- explicit consideration of  20 degrees of freedom as
           vibrations may cause significant error
 Vibrational temperatures:     74.99   102.64   134.71   168.27   207.18
          (Kelvin)            258.48   266.32   333.55   343.16   370.39
                              384.77   402.75   435.01   489.20   507.20
                              535.34   572.39   664.16   717.86   853.99
                              899.04   976.23  1017.64  1152.88  1166.33
                             1221.57  1285.99  1352.21  1385.69  1406.52
                             1412.12  1499.90  1537.57  1540.75  1597.74
                             1620.27  1626.87  1636.87  1678.64  1720.40
                             1753.21  1812.64  1833.10  1896.03  1953.16
                             1966.12  2005.03  2019.49  2059.85  2068.90
                             2072.26  2076.98  2094.02  2173.43  2178.48
                             2182.67  2184.80  2188.10  2194.15  2195.98
                             2202.54  2212.26  2217.26  2226.69  2685.20
                             4321.10  4349.97  4359.72  4384.48  4388.89
                             4394.38  4397.57  4411.66  4425.87  4472.84
                             4476.69  4480.78  4487.11  4490.93  4509.58
                             4510.99  4533.51  4535.77  4541.24

 Zero-point correction=                           0.273111 (Hartree/Particle)
 Thermal correction to Energy=                    0.286884
 Thermal correction to Enthalpy=                  0.287829
 Thermal correction to Gibbs Free Energy=         0.233798
 Sum of electronic and zero-point Energies=           -446.970786
 Sum of electronic and thermal Energies=              -446.957012
 Sum of electronic and thermal Enthalpies=            -446.956068
 Sum of electronic and thermal Free Energies=         -447.010099

                     E (Thermal)             CV                S
                      KCal/Mol        Cal/Mol-Kelvin    Cal/Mol-Kelvin
 Total                  180.023             51.134            113.718
 Electronic               0.000              0.000              0.000
 Translational            0.889              2.981             40.989
 Rotational               0.889              2.981             30.465
 Vibrational            178.245             45.172             42.264
 Vibration     1          0.596              1.977              4.735
 Vibration     2          0.598              1.968              4.116
 Vibration     3          0.603              1.954              3.583
 Vibration     4          0.608              1.935              3.150
 Vibration     5          0.616              1.909              2.750
 Vibration     6          0.629              1.867              2.332
 Vibration     7          0.631              1.860              2.276
 Vibration     8          0.653              1.792              1.865
 Vibration     9          0.656              1.782              1.814
 Vibration    10          0.667              1.750              1.679
 Vibration    11          0.673              1.733              1.613
 Vibration    12          0.680              1.711              1.534
 Vibration    13          0.694              1.669              1.404
 Vibration    14          0.720              1.596              1.212
 Vibration    15          0.729              1.570              1.155
 Vibration    16          0.744              1.529              1.071
 Vibration    17          0.764              1.475              0.971
 Vibration    18          0.819              1.335              0.761
 Vibration    19          0.854              1.252              0.661
 Vibration    20          0.951              1.046              0.461

                           ! Non-Optimized Parameters !
 Normal termination of Gaussian 16 at Tue Dec  8 21:38:35 2020.

 ----------------------------------------------------------------------
 # B3LYP/6-311++G(d,p) empiricaldispersion=gd3bj scf=xqc pop=npa geom=c
 heck
 ----------------------------------------------------------------------

 ---------------------------------------
 CID_129196218_JID_1869_Energie_neutraal
 ---------------------------------------
 Structure from the checkpoint file:  "JID_1869.chk"
 Charge =  0 Multiplicity = 1

 SCF Done:  E(RB3LYP) =  -447.366209799     A.U. after   14 cycles
 Normal termination of Gaussian 16 at Tue Dec  8 21:43:32 2020.

 ----------------------------------------------------------------------
 # B3LYP/6-311++G(d,p) empiricaldispersion=gd3bj scf=xqc pop=npa geom=c
 heck
 ----------------------------------------------------------------------

 -------------------------------------
 CID_129196218_JID_1869_Energie_kation
 -------------------------------------
 Structure from the checkpoint file:  "JID_1869.chk"
 Charge =  1 Multiplicity = 2

 SCF Done:  E(UB3LYP) =  -447.088862783     A.U. after   19 cycles
 Normal termination of Gaussian 16 at Tue Dec  8 21:51:07 2020.
 Gaussian 16:  ES64L-G16RevA.03 25-Dec-2016

 ----------------------------------------------------------------------
 # B3LYP/6-311++G(d,p) empiricaldispersion=gd3bj scf=xqc pop=npa geom=c
 heck
 ----------------------------------------------------------------------

 ------------------------------------
 CID_129196218_JID_1869_Energie_anion
 ------------------------------------
 Structure from the checkpoint file:  "JID_1869.chk"
 Charge = -1 Multiplicity = 2

                         Standard orientation:
 ---------------------------------------------------------------------
 Center     Atomic      Atomic             Coordinates (Angstroms)
 Number     Number       Type             X           Y           Z
 ---------------------------------------------------------------------
      1          6           0        3.226786   -0.626901   -0.150049
      2          6           0        1.861565   -1.140709   -0.596683
      3          7           0        0.874196   -0.922367    0.458408
      4          6           0       -0.497291   -1.012679    0.294592
      5          6           0       -1.497016   -1.823307   -0.030733
      6          6           0       -2.938358   -1.396885   -0.036206
      7          6           0        0.028796    0.319369    0.618131
      8          6           0        0.020008    0.798071    2.060599
      9          6           0        0.056954    1.406155   -0.482142
     10          6           0       -0.609482    0.980551   -1.800031
     11          6           0       -0.587850    2.721639   -0.014236
     12          1           0        3.197237    0.454695    0.023369
     13          1           0        3.986786   -0.828023   -0.913155
     14          1           0        3.528993   -1.108999    0.784798
     15          1           0        1.576579   -0.675121   -1.550469
     16          1           0        1.902564   -2.222207   -0.771775
     17          1           0       -1.268656   -2.850186   -0.313668
     18          1           0       -3.374934   -1.448179   -1.043482
     19          1           0       -3.553092   -2.039846    0.608316
     20          1           0       -3.041752   -0.366344    0.320129
     21          1           0        0.870410    1.461855    2.260178
     22          1           0       -0.899335    1.342026    2.300516
     23          1           0        0.096792   -0.064264    2.726256
     24          1           0        1.117305    1.621654   -0.686515
     25          1           0       -1.687273    0.846990   -1.656883
     26          1           0       -0.461340    1.756772   -2.559945
     27          1           0       -0.219913    0.040504   -2.195008
     28          1           0       -0.086336    3.148141    0.858623
     29          1           0       -0.543891    3.463087   -0.819570
     30          1           0       -1.644195    2.572184    0.239974
 ---------------------------------------------------------------------

 SCF Done:  E(UB3LYP) =  -447.348246212     A.U. after   33 cycles
 SCF Done:  E(UB3LYP) =  -447.348246212     a.u. after    1 cycles

 The electronic state is 2-A.
 Alpha  occ. eigenvalues --  -14.21539 -10.11327 -10.09775 -10.09576 -10.07772
 Alpha  occ. eigenvalues --  -10.06517 -10.06071 -10.05853 -10.05797 -10.05412
 Alpha  occ. eigenvalues --  -10.05148  -0.87703  -0.70194  -0.68215  -0.66299
 Alpha  occ. eigenvalues --   -0.62056  -0.57752  -0.56084  -0.54338  -0.50868
 Alpha  occ. eigenvalues --   -0.44833  -0.40155  -0.38969  -0.37106  -0.36394
 Alpha  occ. eigenvalues --   -0.34395  -0.32402  -0.31410  -0.30693  -0.30317
 Alpha  occ. eigenvalues --   -0.29370  -0.28964  -0.28217  -0.27749  -0.27198
 Alpha  occ. eigenvalues --   -0.26363  -0.25479  -0.24393  -0.23458  -0.20853
 Alpha  occ. eigenvalues --   -0.19675  -0.17273  -0.10821   0.04757
 Alpha virt. eigenvalues --    0.06813   0.07058   0.07795   0.09020   0.09422
 Alpha virt. eigenvalues --    0.09844   0.10056   0.10191   0.11284   0.11788
 Alpha virt. eigenvalues --    0.12209   0.12601   0.12892   0.13103   0.13817

  Beta  occ. eigenvalues --  -14.21527 -10.11326 -10.09756 -10.09572 -10.07756
  Beta  occ. eigenvalues --  -10.06492 -10.06062 -10.05833 -10.05765 -10.05374
  Beta  occ. eigenvalues --  -10.05123  -0.87678  -0.70163  -0.68186  -0.66270
  Beta  occ. eigenvalues --   -0.62020  -0.57685  -0.56032  -0.54280  -0.50798
  Beta  occ. eigenvalues --   -0.44783  -0.40115  -0.38940  -0.37072  -0.36356
  Beta  occ. eigenvalues --   -0.34353  -0.32365  -0.31387  -0.30664  -0.30274
  Beta  occ. eigenvalues --   -0.29317  -0.28923  -0.28176  -0.27711  -0.27164
  Beta  occ. eigenvalues --   -0.26326  -0.25443  -0.24343  -0.23421  -0.20823
  Beta  occ. eigenvalues --   -0.19648  -0.17228  -0.10778
  Beta virt. eigenvalues --    0.06873   0.07558   0.07879   0.08387   0.09395
  Beta virt. eigenvalues --    0.10090   0.10229   0.10483   0.10677   0.11687
  Beta virt. eigenvalues --    0.12129   0.12581   0.12945   0.13229   0.13455

 Mulliken charges and spin densities:
               1          2
     1  C    1.395239  -1.860435
     2  C   -0.777428   0.596692
     3  N    0.119683   0.108404
     4  C   -1.251284   0.722036
     5  C    1.295663  -1.070193
     6  C    1.106438  -1.796670
     7  C   -0.594828   0.640375
     8  C    1.489444  -1.803822
     9  C   -3.217025   3.319454
    10  C    0.873428  -1.411890
    11  C    1.310572  -1.967193
    12  H   -0.354297   0.487286
    13  H   -0.345873   0.482248
    14  H    0.042852   0.095514
    15  H   -0.137193   0.237605
    16  H   -0.278971   0.437924
    17  H   -0.188689   0.356994
    18  H   -0.194420   0.340027
    19  H   -0.014033   0.138435
    20  H   -0.011249   0.168793
    21  H   -0.109818   0.267711
    22  H    0.044499   0.109965
    23  H    0.027911   0.126616
    24  H    0.059942   0.105508
    25  H   -0.027119   0.183654
    26  H   -0.354671   0.515954
    27  H    0.019770   0.097914
    28  H   -0.342847   0.490790
    29  H   -0.462419   0.612288
    30  H   -0.123278   0.268016
 Sum of Mulliken charges =  -1.00000   1.00000

 Dipole moment (field-independent basis, Debye):
    X=             -1.3567    Y=             -2.7387    Z=              2.0544  Tot=              3.6826
 Quadrupole moment (field-independent basis, Debye-Ang):
   XX=           -127.0851   YY=           -125.3443   ZZ=           -110.0569
   XY=              0.4271   XZ=              1.3675   YZ=              1.3630

 Summary of Natural Population Analysis:

                                       Natural Population
                Natural  -----------------------------------------------
    Atom  No    Charge         Core      Valence    Rydberg      Total
 -----------------------------------------------------------------------
      C    1   -0.28594      0.99966     2.28080    0.00548     3.28594
      C    2   -0.08765      0.99960     2.07684    0.01121     3.08765
      N    3   -0.25063      0.99965     2.73769    0.01329     3.75063
      C    4    0.09244      0.99941     1.89460    0.01355     2.90756
      C    5   -0.13561      0.99947     2.12738    0.00876     3.13561
      C    6   -0.29038      0.99966     2.28606    0.00466     3.29038
      C    7    0.05696      0.99954     1.92921    0.01429     2.94304
      C    8   -0.28574      0.99962     2.27880    0.00732     3.28574
      C    9   -0.12219      0.99958     2.11152    0.01109     3.12219
      C   10   -0.28361      0.99965     2.27729    0.00668     3.28361
      C   11   -0.28203      0.99965     2.27619    0.00620     3.28203
      H   12    0.09851      0.00000     0.39971    0.00178     0.40149
      H   13    0.09918      0.00000     0.39963    0.00119     0.40082
      H   14    0.09836      0.00000     0.40019    0.00146     0.40164
      H   15    0.08739      0.00000     0.41062    0.00199     0.41261
      H   16    0.09453      0.00000     0.40385    0.00162     0.40547
      H   17    0.09496      0.00000     0.40394    0.00111     0.40504
      H   18    0.09797      0.00000     0.40033    0.00170     0.40203
      H   19    0.09592      0.00000     0.40267    0.00140     0.40408
      H   20    0.10152      0.00000     0.39730    0.00118     0.39848
      H   21    0.10047      0.00000     0.39835    0.00118     0.39953
      H   22    0.10058      0.00000     0.39844    0.00098     0.39942
      H   23    0.10600      0.00000     0.39270    0.00131     0.39400
      H   24    0.09893      0.00000     0.39867    0.00240     0.40107
      H   25    0.09880      0.00000     0.39978    0.00142     0.40120
      H   26    0.10010      0.00000     0.39884    0.00106     0.39990
      H   27    0.10085      0.00000     0.39755    0.00160     0.39915
      H   28    0.10165      0.00000     0.39696    0.00139     0.39835
      H   29    0.10256      0.00000     0.39608    0.00136     0.39744
      H   30    0.09613      0.00000     0.40247    0.00140     0.40387
 =======================================================================
   * Total *   -0.00000     10.99549    31.87447    0.13004    43.00000

 Normal termination of Gaussian 16 at Tue Dec  8 22:02:39 2020.
