 Gaussian 16, Revision A.03,

 -----------------------------------------------------------
 # opt freq B3LYP/6-31G(d) empiricaldispersion=gd3bj scf=xqc
 -----------------------------------------------------------

 -------------------------------
 CID_130152083_JID_2850_neutraal
 -------------------------------
 Symbolic Z-matrix:
 Charge =  0 Multiplicity = 1

 SCF Done:  E(RB3LYP) =  -506.495881257     A.U. after   12 cycles
 SCF Done:  E(RB3LYP) =  -506.498077489     A.U. after   10 cycles
 SCF Done:  E(RB3LYP) =  -506.498278868     A.U. after   10 cycles
 SCF Done:  E(RB3LYP) =  -506.498289035     A.U. after    9 cycles
 SCF Done:  E(RB3LYP) =  -506.498297063     A.U. after    8 cycles
 SCF Done:  E(RB3LYP) =  -506.498298882     A.U. after    7 cycles
 SCF Done:  E(RB3LYP) =  -506.498299558     A.U. after    7 cycles
 SCF Done:  E(RB3LYP) =  -506.498299813     A.U. after    7 cycles
 Optimization completed.
    -- Stationary point found.
 Normal termination of Gaussian 16 at Wed Dec  9 18:07:44 2020.

 --------------------------------------------------------------------
 #N Geom=AllCheck Guess=TCheck SCRF=Check GenChk RB3LYP/6-31G(d) Freq
 --------------------------------------------------------------------

 Structure from the checkpoint file:  "JID_2850.chk"
 -------------------------------
 CID_130152083_JID_2850_neutraal
 -------------------------------
 Charge =  0 Multiplicity = 1

 SCF Done:  E(RB3LYP) =  -506.498299813     A.U. after    1 cycles

  Exact polarizability: 121.719   0.021 111.741  -0.398   0.727 102.138
 Approx polarizability: 157.773  -0.818 156.013  -0.445  -1.896 157.311

                      1                      2                      3
                      A                      A                      A
 Frequencies --     81.2005               131.7856               162.1343
 Red. masses --      2.6108                 2.7462                 2.0767
 Frc consts  --      0.0101                 0.0281                 0.0322
 IR Inten    --      0.5622                 0.1728                 1.1188

                      4                      5                      6
                      A                      A                      A
 Frequencies --    217.6960               239.4449               261.1544
 Red. masses --      3.0908                 1.3633                 1.8147
 Frc consts  --      0.0863                 0.0461                 0.0729
 IR Inten    --      1.2462                 1.1260                 1.4931

                      7                      8                      9
                      A                      A                      A
 Frequencies --    277.5978               285.2141               295.6918
 Red. masses --      1.6760                 1.2586                 2.0504
 Frc consts  --      0.0761                 0.0603                 0.1056
 IR Inten    --     15.0391                71.3199                13.0049

                     10                     11                     12
                      A                      A                      A
 Frequencies --    299.2499               340.1522               381.2165
 Red. masses --      1.6680                 2.1472                 2.5082
 Frc consts  --      0.0880                 0.1464                 0.2148
 IR Inten    --     11.3566                 0.4310                 4.2690

                     13                     14                     15
                      A                      A                      A
 Frequencies --    409.7889               431.7687               457.9806
 Red. masses --      2.2109                 3.2928                 2.4250
 Frc consts  --      0.2188                 0.3617                 0.2997
 IR Inten    --      3.8145                 0.0917                 0.1958

                     16                     17                     18
                      A                      A                      A
 Frequencies --    466.8470               506.6806               556.8637
 Red. masses --      2.7988                 2.0593                 2.5065
 Frc consts  --      0.3594                 0.3115                 0.4580
 IR Inten    --      2.5262                 0.4768                 0.7162

                     19                     20                     21
                      A                      A                      A
 Frequencies --    634.1408               704.1514               747.7047
 Red. masses --      2.6871                 3.2071                 2.7199
 Frc consts  --      0.6367                 0.9369                 0.8959
 IR Inten    --      4.1770                 0.9306                 7.7404

                     22                     23                     24
                      A                      A                      A
 Frequencies --    812.6905               837.6485               852.5652
 Red. masses --      2.0049                 2.2675                 2.2612
 Frc consts  --      0.7802                 0.9374                 0.9684
 IR Inten    --      0.1091                 3.2361                 2.5457

                     25                     26                     27
                      A                      A                      A
 Frequencies --    856.2478               870.0344               918.7391
 Red. masses --      2.0996                 2.3911                 1.4755
 Frc consts  --      0.9070                 1.0664                 0.7338
 IR Inten    --      2.6766                 2.5827                 2.7175

                     28                     29                     30
                      A                      A                      A
 Frequencies --    939.4907               958.3719               973.9054
 Red. masses --      2.3697                 2.0075                 1.7843
 Frc consts  --      1.2323                 1.0864                 0.9971
 IR Inten    --      2.2279                 1.4589                 4.0332

                     31                     32                     33
                      A                      A                      A
 Frequencies --    993.4269              1005.8693              1024.9990
 Red. masses --      1.8659                 1.6452                 2.0081
 Frc consts  --      1.0850                 0.9808                 1.2431
 IR Inten    --      2.3193                 2.2317                 8.6241

                     34                     35                     36
                      A                      A                      A
 Frequencies --   1050.4250              1075.3080              1088.5393
 Red. masses --      1.4282                 2.0559                 2.0562
 Frc consts  --      0.9285                 1.4006                 1.4355
 IR Inten    --      9.9056                 5.4536                 4.4853

                     37                     38                     39
                      A                      A                      A
 Frequencies --   1092.5202              1113.4064              1150.2863
 Red. masses --      1.6409                 1.8050                 1.7620
 Frc consts  --      1.1540                 1.3184                 1.3736
 IR Inten    --      8.2247                 0.6716                 0.9292

                     40                     41                     42
                      A                      A                      A
 Frequencies --   1160.8977              1179.4736              1189.4805
 Red. masses --      2.3908                 1.7873                 1.4987
 Frc consts  --      1.8984                 1.4649                 1.2494
 IR Inten    --     52.7681                 5.0420                 7.5645

                     43                     44                     45
                      A                      A                      A
 Frequencies --   1216.5022              1243.9133              1254.9711
 Red. masses --      1.5950                 1.4410                 1.4194
 Frc consts  --      1.3907                 1.3137                 1.3172
 IR Inten    --      2.7249                20.8271                 5.3146

                     46                     47                     48
                      A                      A                      A
 Frequencies --   1258.9868              1284.6775              1296.0823
 Red. masses --      1.7775                 1.4441                 1.2925
 Frc consts  --      1.6600                 1.4042                 1.2792
 IR Inten    --      2.1266                 1.4623                 0.8838

                     49                     50                     51
                      A                      A                      A
 Frequencies --   1317.8061              1343.4381              1345.1628
 Red. masses --      1.4893                 1.4178                 1.2658
 Frc consts  --      1.5238                 1.5077                 1.3494
 IR Inten    --     20.1475                 1.9237                 5.0368

                     52                     53                     54
                      A                      A                      A
 Frequencies --   1371.4593              1382.1971              1386.7626
 Red. masses --      1.3582                 1.5589                 1.4048
 Frc consts  --      1.5052                 1.7547                 1.5917
 IR Inten    --      8.3645                 0.3969                 0.7974

                     55                     56                     57
                      A                      A                      A
 Frequencies --   1390.7747              1395.7438              1402.0645
 Red. masses --      1.3572                 1.4214                 1.4166
 Frc consts  --      1.5467                 1.6315                 1.6408
 IR Inten    --      2.9887                 1.8957                 2.5942

                     58                     59                     60
                      A                      A                      A
 Frequencies --   1423.1684              1440.1874              1444.6187
 Red. masses --      1.4341                 1.2716                 1.2921
 Frc consts  --      1.7114                 1.5540                 1.5888
 IR Inten    --      6.5137                 4.6479                 2.6842

                     61                     62                     63
                      A                      A                      A
 Frequencies --   1452.5855              1510.1266              1512.1259
 Red. masses --      1.4156                 1.0835                 1.0764
 Frc consts  --      1.7599                 1.4559                 1.4501
 IR Inten    --     10.2881                 0.2332                 2.4062

                     64                     65                     66
                      A                      A                      A
 Frequencies --   1516.9309              1518.6753              1527.5771
 Red. masses --      1.0897                 1.0816                 1.0700
 Frc consts  --      1.4774                 1.4698                 1.4710
 IR Inten    --      3.5915                 4.0484                 6.5231

                     67                     68                     69
                      A                      A                      A
 Frequencies --   1530.6722              1538.5889              1541.4334
 Red. masses --      1.0516                 1.0556                 1.0872
 Frc consts  --      1.4516                 1.4723                 1.5219
 IR Inten    --      2.5588                 3.5372                 2.7781

                     70                     71                     72
                      A                      A                      A
 Frequencies --   1551.0150              2988.1067              3006.9889
 Red. masses --      1.0597                 1.0816                 1.0851
 Frc consts  --      1.5019                 5.6899                 5.7806
 IR Inten    --      3.9532                14.8971                65.0157

                     73                     74                     75
                      A                      A                      A
 Frequencies --   3018.3738              3031.4212              3042.7480
 Red. masses --      1.0676                 1.0605                 1.0664
 Frc consts  --      5.7307                 5.7420                 5.8170
 IR Inten    --     31.1530                22.6500                12.8318

                     76                     77                     78
                      A                      A                      A
 Frequencies --   3044.3127              3045.9195              3050.6807
 Red. masses --      1.0546                 1.0579                 1.0658
 Frc consts  --      5.7587                 5.7830                 5.8444
 IR Inten    --     14.9257                24.7524                66.7611

                     79                     80                     81
                      A                      A                      A
 Frequencies --   3054.6278              3060.2646              3068.2247
 Red. masses --      1.0529                 1.0639                 1.1000
 Frc consts  --      5.7881                 5.8704                 6.1014
 IR Inten    --     34.5460                37.3959                39.7614

                     82                     83                     84
                      A                      A                      A
 Frequencies --   3071.0876              3086.2849              3097.6759
 Red. masses --      1.0945                 1.1025                 1.1051
 Frc consts  --      6.0818                 6.1872                 6.2475
 IR Inten    --     54.5719                53.8123                28.3674

                     85                     86                     87
                      A                      A                      A
 Frequencies --   3103.6272              3105.7340              3119.2749
 Red. masses --      1.0986                 1.1002                 1.1012
 Frc consts  --      6.2346                 6.2525                 6.3131
 IR Inten    --     31.8414                65.5616                35.1766

                     88                     89                     90
                      A                      A                      A
 Frequencies --   3129.9127              3163.0076              3745.2157
 Red. masses --      1.0904                 1.0991                 1.0663
 Frc consts  --      6.2936                 6.4789                 8.8124
 IR Inten    --     36.8242                17.0431                11.4391

 - Thermochemistry -
 -------------------
 Temperature   298.150 Kelvin.  Pressure   1.00000 Atm.
 Atom     1 has atomic number  6 and mass  12.00000

 Molecular mass:   168.15142 amu.
 Principal axes and moments of inertia in atomic units:
                           1         2         3
     Eigenvalues --  1483.767041967.276802625.86953
           X            0.99934   0.03605  -0.00497
           Y           -0.03608   0.99933  -0.00622
           Z            0.00474   0.00640   0.99997
 This molecule is an asymmetric top.
 Rotational symmetry number  1.
 Warning -- assumption of classical behavior for rotation
           may cause significant error
 Rotational temperatures (Kelvin)      0.05837     0.04403     0.03298
 Rotational constants (GHZ):           1.21632     0.91738     0.68729
 Zero-point vibrational energy     780351.2 (Joules/Mol)
                                  186.50840 (Kcal/Mol)
 Warning -- explicit consideration of  18 degrees of freedom as
           vibrations may cause significant error
 Vibrational temperatures:    116.83   189.61   233.28   313.22   344.51
          (Kelvin)            375.74   399.40   410.36   425.43   430.55
                              489.40   548.49   589.59   621.22   658.93
                              671.69   729.00   801.20   912.39  1013.12
                             1075.78  1169.28  1205.19  1226.65  1231.95
                             1251.79  1321.86  1351.72  1378.88  1401.23
                             1429.32  1447.22  1474.74  1511.33  1547.13
                             1566.17  1571.89  1601.94  1655.01  1670.27
                             1697.00  1711.40  1750.28  1789.71  1805.62
                             1811.40  1848.36  1864.77  1896.03  1932.91
                             1935.39  1973.22  1988.67  1995.24  2001.01
                             2008.16  2017.26  2047.62  2072.11  2078.48
                             2089.95  2172.74  2175.61  2182.53  2185.04
                             2197.84  2202.30  2213.69  2217.78  2231.56
                             4299.22  4326.39  4342.77  4361.54  4377.84
                             4380.09  4382.40  4389.25  4394.93  4403.04
                             4414.49  4418.61  4440.48  4456.86  4465.43
                             4468.46  4487.94  4503.25  4550.86  5388.53

 Zero-point correction=                           0.297220 (Hartree/Particle)
 Thermal correction to Energy=                    0.308951
 Thermal correction to Enthalpy=                  0.309895
 Thermal correction to Gibbs Free Energy=         0.261114
 Sum of electronic and zero-point Energies=           -506.201080
 Sum of electronic and thermal Energies=              -506.189349
 Sum of electronic and thermal Enthalpies=            -506.188405
 Sum of electronic and thermal Free Energies=         -506.237186

                     E (Thermal)             CV                S
                      KCal/Mol        Cal/Mol-Kelvin    Cal/Mol-Kelvin
 Total                  193.870             48.538            102.668
 Electronic               0.000              0.000              0.000
 Translational            0.889              2.981             41.267
 Rotational               0.889              2.981             30.417
 Vibrational            192.092             42.577             30.984
 Vibration     1          0.600              1.962              3.862
 Vibration     2          0.612              1.922              2.920
 Vibration     3          0.622              1.889              2.525
 Vibration     4          0.646              1.814              1.978
 Vibration     5          0.657              1.780              1.807
 Vibration     6          0.669              1.744              1.654
 Vibration     7          0.679              1.715              1.548
 Vibration     8          0.683              1.701              1.502
 Vibration     9          0.690              1.682              1.441
 Vibration    10          0.692              1.675              1.421
 Vibration    11          0.720              1.595              1.211
 Vibration    12          0.751              1.510              1.034
 Vibration    13          0.774              1.449              0.927
 Vibration    14          0.793              1.401              0.853
 Vibration    15          0.816              1.343              0.772
 Vibration    16          0.824              1.324              0.746
 Vibration    17          0.862              1.235              0.642
 Vibration    18          0.912              1.125              0.530

                           ! Non-Optimized Parameters !
 Normal termination of Gaussian 16 at Wed Dec  9 18:18:06 2020.

 ----------------------------------------------------------------------
 # B3LYP/6-311++G(d,p) empiricaldispersion=gd3bj scf=xqc pop=npa geom=c
 heck
 ----------------------------------------------------------------------

 ---------------------------------------
 CID_130152083_JID_2850_Energie_neutraal
 ---------------------------------------
 Structure from the checkpoint file:  "JID_2850.chk"
 Charge =  0 Multiplicity = 1

 SCF Done:  E(RB3LYP) =  -506.645043328     A.U. after   13 cycles
 Normal termination of Gaussian 16 at Wed Dec  9 18:22:45 2020.

 ----------------------------------------------------------------------
 # B3LYP/6-311++G(d,p) empiricaldispersion=gd3bj scf=xqc pop=npa geom=c
 heck
 ----------------------------------------------------------------------

 -------------------------------------
 CID_130152083_JID_2850_Energie_kation
 -------------------------------------
 Structure from the checkpoint file:  "JID_2850.chk"
 Charge =  1 Multiplicity = 2

 SCF Done:  E(UB3LYP) =  -506.306034441     A.U. after   27 cycles
 Normal termination of Gaussian 16 at Wed Dec  9 18:35:29 2020.
 Gaussian 16:  ES64L-G16RevA.03 25-Dec-2016

 ----------------------------------------------------------------------
 # B3LYP/6-311++G(d,p) empiricaldispersion=gd3bj scf=xqc pop=npa geom=c
 heck
 ----------------------------------------------------------------------

 ------------------------------------
 CID_130152083_JID_2850_Energie_anion
 ------------------------------------
 Structure from the checkpoint file:  "JID_2850.chk"
 Charge = -1 Multiplicity = 2

                         Standard orientation:
 ---------------------------------------------------------------------
 Center     Atomic      Atomic             Coordinates (Angstroms)
 Number     Number       Type             X           Y           Z
 ---------------------------------------------------------------------
      1          6           0        1.372073    2.302799   -0.846919
      2          6           0        1.344544    1.207928    0.225885
      3          6           0        2.267919    0.006703   -0.162060
      4          6           0        1.352988   -1.185476   -0.569318
      5          6           0       -0.042717   -0.563737   -0.625336
      6          6           0       -0.046468    0.542071    0.459479
      7          6           0       -1.290347    1.420816    0.236572
      8          6           0       -2.580713    0.576993    0.252428
      9          6           0       -2.531194   -0.594764   -0.744678
     10          6           0       -1.271350   -1.466509   -0.584401
     11          6           0       -0.061682   -0.017821    1.897558
     12          8           0        1.357780   -2.250881    0.386264
     13          1           0        1.019781    1.936148   -1.818662
     14          1           0        2.396630    2.666383   -0.987778
     15          1           0        0.751155    3.160469   -0.568113
     16          1           0        1.694437    1.659342    1.162299
     17          1           0        2.899255   -0.297917    0.679708
     18          1           0        2.941650    0.285521   -0.980401
     19          1           0        1.639029   -1.590055   -1.551656
     20          1           0       -0.075830   -0.031629   -1.589611
     21          1           0       -1.217199    1.921616   -0.737081
     22          1           0       -1.349354    2.212452    0.995853
     23          1           0       -3.439260    1.219529    0.020126
     24          1           0       -2.757223    0.187922    1.262655
     25          1           0       -3.435229   -1.207903   -0.643128
     26          1           0       -2.544478   -0.187785   -1.766776
     27          1           0       -1.299942   -2.024604    0.357029
     28          1           0       -1.226161   -2.213594   -1.387063
     29          1           0       -0.078383    0.815498    2.611053
     30          1           0       -0.936224   -0.641614    2.097616
     31          1           0        0.817015   -0.632688    2.098597
     32          1           0        2.259764   -2.604060    0.419972
 ---------------------------------------------------------------------

 SCF Done:  E(UB3LYP) =  -506.628793883     A.U. after   27 cycles

 The electronic state is 2-A.
 Alpha  occ. eigenvalues --  -19.00793 -10.10526 -10.06786 -10.06372 -10.06121
 Alpha  occ. eigenvalues --  -10.06085 -10.05626 -10.05619 -10.05466 -10.05244
 Alpha  occ. eigenvalues --  -10.05013 -10.04425  -0.91005  -0.75174  -0.69191
 Alpha  occ. eigenvalues --   -0.65253  -0.62939  -0.60068  -0.57833  -0.52878
 Alpha  occ. eigenvalues --   -0.50518  -0.47320  -0.45800  -0.41690  -0.39729
 Alpha  occ. eigenvalues --   -0.37518  -0.35115  -0.34317  -0.33225  -0.32542
 Alpha  occ. eigenvalues --   -0.31929  -0.29684  -0.28851  -0.28257  -0.28246
 Alpha  occ. eigenvalues --   -0.27582  -0.25357  -0.24403  -0.24234  -0.23547
 Alpha  occ. eigenvalues --   -0.22405  -0.21778  -0.20934  -0.19660  -0.18962
 Alpha  occ. eigenvalues --   -0.17795  -0.15870   0.04702
 Alpha virt. eigenvalues --    0.06799   0.07433   0.07722   0.08969   0.09355
 Alpha virt. eigenvalues --    0.09604   0.10068   0.10357   0.11894   0.12212
 Alpha virt. eigenvalues --    0.12396   0.12721   0.13073   0.13251   0.13919

  Beta  occ. eigenvalues --  -19.00759 -10.10506 -10.06785 -10.06365 -10.06110
  Beta  occ. eigenvalues --  -10.06070 -10.05612 -10.05610 -10.05458 -10.05218
  Beta  occ. eigenvalues --  -10.04984 -10.04414  -0.90928  -0.75150  -0.69162
  Beta  occ. eigenvalues --   -0.65223  -0.62908  -0.60025  -0.57798  -0.52822
  Beta  occ. eigenvalues --   -0.50473  -0.47277  -0.45740  -0.41644  -0.39664
  Beta  occ. eigenvalues --   -0.37474  -0.35085  -0.34287  -0.33190  -0.32512
  Beta  occ. eigenvalues --   -0.31889  -0.29657  -0.28821  -0.28230  -0.28220
  Beta  occ. eigenvalues --   -0.27551  -0.25329  -0.24377  -0.24206  -0.23516
  Beta  occ. eigenvalues --   -0.22376  -0.21742  -0.20898  -0.19632  -0.18940
  Beta  occ. eigenvalues --   -0.17767  -0.15822
  Beta virt. eigenvalues --    0.06875   0.07804   0.08121   0.08351   0.09537
  Beta virt. eigenvalues --    0.09873   0.10075   0.10527   0.10687   0.12275
  Beta virt. eigenvalues --    0.12680   0.12860   0.13054   0.13272   0.13650

 Mulliken charges and spin densities:
               1          2
     1  C    0.704089  -1.479151
     2  C   -3.142241   3.369739
     3  C    2.547048  -3.011508
     4  C   -0.770993   0.156306
     5  C   -0.437956   0.759251
     6  C    1.987294  -1.325970
     7  C   -0.680326   0.414703
     8  C    0.306270  -0.730346
     9  C   -0.127674  -0.433666
    10  C    0.479774  -0.779088
    11  C    0.215988  -1.101311
    12  O   -0.232488   0.006069
    13  H   -0.431364   0.592098
    14  H   -0.385587   0.526581
    15  H   -0.118535   0.254402
    16  H   -0.144551   0.348215
    17  H   -0.342990   0.503478
    18  H   -0.107016   0.256523
    19  H   -0.592212   0.799579
    20  H    0.255932  -0.046736
    21  H    0.145654  -0.001464
    22  H   -0.133266   0.288295
    23  H   -0.346397   0.528882
    24  H    0.117151  -0.000466
    25  H   -0.021111   0.179889
    26  H   -0.100713   0.222444
    27  H    0.143134   0.038348
    28  H   -0.075946   0.243091
    29  H   -0.001250   0.148927
    30  H    0.097492   0.011628
    31  H    0.318377  -0.110111
    32  H   -0.125587   0.371370
 Sum of Mulliken charges =  -1.00000   1.00000

 Dipole moment (field-independent basis, Debye):
    X=             -3.5161    Y=             -0.0071    Z=              2.6309  Tot=              4.3915
 Quadrupole moment (field-independent basis, Debye-Ang):
   XX=           -134.1006   YY=           -125.4866   ZZ=           -112.6639
   XY=              5.9491   XZ=              1.7877   YZ=              1.7353

 Summary of Natural Population Analysis:

                                       Natural Population
                Natural  -----------------------------------------------
    Atom  No    Charge         Core      Valence    Rydberg      Total
 -----------------------------------------------------------------------
      C    1   -0.28463      0.99965     2.27902    0.00597     3.28463
      C    2   -0.10631      0.99956     2.09493    0.01182     3.10631
      C    3   -0.19965      0.99961     2.19069    0.00935     3.19965
      C    4    0.06765      0.99951     1.91771    0.01514     2.93235
      C    5   -0.11733      0.99952     2.10445    0.01336     3.11733
      C    6   -0.03004      0.99953     2.01677    0.01374     3.03004
      C    7   -0.19002      0.99958     2.18004    0.01040     3.19002
      C    8   -0.18814      0.99963     2.18023    0.00829     3.18814
      C    9   -0.18663      0.99963     2.17936    0.00765     3.18663
      C   10   -0.18825      0.99960     2.17974    0.00891     3.18825
      C   11   -0.28992      0.99962     2.28393    0.00637     3.28992
      O   12   -0.37691      0.99989     3.37017    0.00685     4.37691
      H   13    0.09746      0.00000     0.40114    0.00140     0.40254
      H   14    0.10023      0.00000     0.39879    0.00097     0.39977
      H   15    0.09879      0.00000     0.40011    0.00110     0.40121
      H   16    0.09485      0.00000     0.40360    0.00155     0.40515
      H   17    0.10332      0.00000     0.39499    0.00168     0.39668
      H   18    0.10250      0.00000     0.39561    0.00189     0.39750
      H   19    0.08086      0.00000     0.41697    0.00217     0.41914
      H   20    0.10142      0.00000     0.39619    0.00240     0.39858
      H   21    0.09974      0.00000     0.39876    0.00150     0.40026
      H   22    0.09770      0.00000     0.40134    0.00096     0.40230
      H   23    0.09779      0.00000     0.40120    0.00101     0.40221
      H   24    0.09153      0.00000     0.40732    0.00115     0.40847
      H   25    0.09544      0.00000     0.40373    0.00083     0.40456
      H   26    0.09254      0.00000     0.40620    0.00126     0.40746
      H   27    0.10048      0.00000     0.39806    0.00146     0.39952
      H   28    0.10027      0.00000     0.39884    0.00089     0.39973
      H   29    0.09488      0.00000     0.40417    0.00095     0.40512
      H   30    0.09749      0.00000     0.40157    0.00093     0.40251
      H   31    0.11116      0.00000     0.38759    0.00125     0.38884
      H   32    0.23173      0.00000     0.26283    0.00543     0.26827
 =======================================================================
   * Total *    0.00000     11.99532    34.85603    0.14865    47.00000

 Normal termination of Gaussian 16 at Wed Dec  9 18:47:49 2020.
