 Gaussian 16, Revision A.03,

 -----------------------------------------------------------
 # opt freq B3LYP/6-31G(d) empiricaldispersion=gd3bj scf=xqc
 -----------------------------------------------------------

 ------------------------------
 CID_70320767_JID_9803_neutraal
 ------------------------------
 Symbolic Z-matrix:
 Charge =  0 Multiplicity = 1

 SCF Done:  E(RB3LYP) =  -883.190325442     A.U. after   14 cycles
 SCF Done:  E(RB3LYP) =  -883.197251368     A.U. after   12 cycles
 SCF Done:  E(RB3LYP) =  -883.198537631     A.U. after   12 cycles
 SCF Done:  E(RB3LYP) =  -883.198810682     A.U. after   11 cycles
 SCF Done:  E(RB3LYP) =  -883.199100130     A.U. after   11 cycles
 SCF Done:  E(RB3LYP) =  -883.199156810     A.U. after   11 cycles
 SCF Done:  E(RB3LYP) =  -883.199217346     A.U. after   10 cycles
 SCF Done:  E(RB3LYP) =  -883.199254036     A.U. after   10 cycles
 SCF Done:  E(RB3LYP) =  -883.199354020     A.U. after   11 cycles
 SCF Done:  E(RB3LYP) =  -883.199392684     A.U. after   11 cycles
 SCF Done:  E(RB3LYP) =  -883.199474030     A.U. after    8 cycles
 SCF Done:  E(RB3LYP) =  -883.199474212     A.U. after    8 cycles
 SCF Done:  E(RB3LYP) =  -883.199474298     A.U. after    7 cycles
 SCF Done:  E(RB3LYP) =  -883.199474337     A.U. after    6 cycles
 SCF Done:  E(RB3LYP) =  -883.199474357     A.U. after    7 cycles
 Optimization completed.
    -- Stationary point found.
 Normal termination of Gaussian 16 at Mon Dec 14 13:39:49 2020.

 --------------------------------------------------------------------
 #N Geom=AllCheck Guess=TCheck SCRF=Check GenChk RB3LYP/6-31G(d) Freq
 --------------------------------------------------------------------

 Structure from the checkpoint file:  "JID_9803.chk"
 ------------------------------
 CID_70320767_JID_9803_neutraal
 ------------------------------
 Charge =  0 Multiplicity = 1

 SCF Done:  E(RB3LYP) =  -883.199474357     A.U. after    1 cycles

  Exact polarizability: 188.818  -6.305 155.571  -0.927  -0.698 141.974
 Approx polarizability: 227.313  -6.502 213.406  -4.646   4.631 234.459

                      1                      2                      3
                      A                      A                      A
 Frequencies --     18.6301                42.0252                50.9632
 Red. masses --      4.5968                 3.1695                 3.3275
 Frc consts  --      0.0009                 0.0033                 0.0051
 IR Inten    --      0.1068                 1.1142                 0.6704

                      4                      5                      6
                      A                      A                      A
 Frequencies --     62.7679                74.1653               112.4852
 Red. masses --      4.2749                 3.8375                 3.2015
 Frc consts  --      0.0099                 0.0124                 0.0239
 IR Inten    --      2.4840                 1.9988                 0.8453

                      7                      8                      9
                      A                      A                      A
 Frequencies --    129.8128               151.2432               167.6424
 Red. masses --      3.8288                 5.0261                 2.7381
 Frc consts  --      0.0380                 0.0677                 0.0453
 IR Inten    --      1.1846                 0.8121                 0.9207

                     10                     11                     12
                      A                      A                      A
 Frequencies --    209.2127               229.3116               237.8873
 Red. masses --      3.0427                 2.2129                 3.3316
 Frc consts  --      0.0785                 0.0686                 0.1111
 IR Inten    --      0.5175                 1.3072                 6.2745

                     13                     14                     15
                      A                      A                      A
 Frequencies --    251.9188               264.6288               291.0802
 Red. masses --      2.3823                 2.6908                 1.5957
 Frc consts  --      0.0891                 0.1110                 0.0797
 IR Inten    --      0.9500                 3.6723                37.3159

                     16                     17                     18
                      A                      A                      A
 Frequencies --    311.0265               323.2705               345.6454
 Red. masses --      2.0801                 3.0091                 2.4926
 Frc consts  --      0.1186                 0.1853                 0.1755
 IR Inten    --     19.5058                 3.3385                15.1604

                     19                     20                     21
                      A                      A                      A
 Frequencies --    382.7997               390.9317               434.1275
 Red. masses --      2.1947                 4.2891                 2.0770
 Frc consts  --      0.1895                 0.3862                 0.2306
 IR Inten    --      1.0945                 0.7889                 4.8149

                     22                     23                     24
                      A                      A                      A
 Frequencies --    448.9587               467.7659               490.6322
 Red. masses --      3.0364                 3.7204                 3.4445
 Frc consts  --      0.3606                 0.4796                 0.4885
 IR Inten    --      0.3102                11.5062                 1.4920

                     25                     26                     27
                      A                      A                      A
 Frequencies --    513.3240               523.5247               585.8941
 Red. masses --      3.6419                 2.2017                 2.7584
 Frc consts  --      0.5654                 0.3555                 0.5579
 IR Inten    --     17.4133                 2.6278                 8.4065

                     28                     29                     30
                      A                      A                      A
 Frequencies --    655.7516               707.1467               739.2986
 Red. masses --      2.2338                 2.8688                 5.7492
 Frc consts  --      0.5659                 0.8452                 1.8514
 IR Inten    --      1.8851                 1.4363                13.0343

                     31                     32                     33
                      A                      A                      A
 Frequencies --    758.7301               804.4775               810.4614
 Red. masses --      4.9434                 3.5375                 1.4831
 Frc consts  --      1.6767                 1.3489                 0.5740
 IR Inten    --      1.9549                13.1504                 0.6584

                     34                     35                     36
                      A                      A                      A
 Frequencies --    819.0600               830.7901               860.2866
 Red. masses --      2.5308                 3.4141                 2.1924
 Frc consts  --      1.0003                 1.3884                 0.9560
 IR Inten    --      0.7974                12.0171                 2.6409

                     37                     38                     39
                      A                      A                      A
 Frequencies --    868.8973               908.4673               917.1118
 Red. masses --      1.7867                 1.8014                 1.8836
 Frc consts  --      0.7948                 0.8760                 0.9334
 IR Inten    --      8.6925                 4.1938                 0.1599

                     40                     41                     42
                      A                      A                      A
 Frequencies --    917.4193               929.7230               941.7538
 Red. masses --      1.7953                 2.4917                 1.5834
 Frc consts  --      0.8903                 1.2690                 0.8274
 IR Inten    --     16.0780                40.8661                 9.5436

                     43                     44                     45
                      A                      A                      A
 Frequencies --    956.2643               959.1275               972.1118
 Red. masses --      2.6181                 2.3185                 2.2630
 Frc consts  --      1.4105                 1.2566                 1.2600
 IR Inten    --      3.2921                22.5997               139.9225

                     46                     47                     48
                      A                      A                      A
 Frequencies --    995.1584              1013.7049              1027.0743
 Red. masses --      1.7325                 1.8672                 2.5494
 Frc consts  --      1.0109                 1.1305                 1.5845
 IR Inten    --      6.7434                 5.5382                27.4287

                     49                     50                     51
                      A                      A                      A
 Frequencies --   1048.8434              1051.2754              1058.6368
 Red. masses --      4.3837                 1.7999                 1.9525
 Frc consts  --      2.8413                 1.1720                 1.2893
 IR Inten    --     36.1682                 1.3432                 6.0396

                     52                     53                     54
                      A                      A                      A
 Frequencies --   1076.2977              1082.8814              1104.0680
 Red. masses --      1.3794                 5.6292                 1.2026
 Frc consts  --      0.9415                 3.8892                 0.8637
 IR Inten    --      5.5059                23.4765                 1.7502

                     55                     56                     57
                      A                      A                      A
 Frequencies --   1113.1673              1135.3552              1141.7480
 Red. masses --      2.4928                 2.2858                 1.7160
 Frc consts  --      1.8200                 1.7360                 1.3180
 IR Inten    --      2.8291               145.7480                12.3317

                     58                     59                     60
                      A                      A                      A
 Frequencies --   1146.2795              1155.9876              1163.3311
 Red. masses --      2.2639                 1.9753                 2.1448
 Frc consts  --      1.7526                 1.5552                 1.7102
 IR Inten    --      3.5204                45.3917                54.7421

                     61                     62                     63
                      A                      A                      A
 Frequencies --   1186.3182              1211.5103              1221.6729
 Red. masses --      1.8018                 1.5234                 1.4810
 Frc consts  --      1.4940                 1.3174                 1.3023
 IR Inten    --     20.4960                 3.7990                15.9968

                     64                     65                     66
                      A                      A                      A
 Frequencies --   1229.4524              1234.6284              1246.1108
 Red. masses --      1.6125                 1.4138                 2.2247
 Frc consts  --      1.4361                 1.2698                 2.0354
 IR Inten    --      1.2137                11.2569                20.1769

                     67                     68                     69
                      A                      A                      A
 Frequencies --   1256.2251              1265.9381              1288.9253
 Red. masses --      1.4488                 1.3700                 1.4734
 Frc consts  --      1.3470                 1.2936                 1.4422
 IR Inten    --     13.3375                 3.7975                10.7587

                     70                     71                     72
                      A                      A                      A
 Frequencies --   1295.6802              1300.1575              1308.7418
 Red. masses --      1.6019                 1.2560                 1.2561
 Frc consts  --      1.5845                 1.2509                 1.2676
 IR Inten    --     93.1597                 6.0318                 4.9459

                     73                     74                     75
                      A                      A                      A
 Frequencies --   1313.2333              1333.9656              1352.5845
 Red. masses --      1.3187                 1.4927                 1.3182
 Frc consts  --      1.3399                 1.5650                 1.4209
 IR Inten    --     13.6344                 4.1654                 7.9426

                     76                     77                     78
                      A                      A                      A
 Frequencies --   1372.8584              1374.6004              1385.6450
 Red. masses --      1.4379                 1.3754                 1.4091
 Frc consts  --      1.5967                 1.5311                 1.5941
 IR Inten    --     26.7374                 3.6873                 1.2271

                     79                     80                     81
                      A                      A                      A
 Frequencies --   1390.9847              1396.0772              1400.1532
 Red. masses --      1.4322                 1.3771                 1.5487
 Frc consts  --      1.6327                 1.5814                 1.7888
 IR Inten    --      8.2277                 6.0796                52.0843

                     82                     83                     84
                      A                      A                      A
 Frequencies --   1401.1297              1401.9009              1404.4026
 Red. masses --      1.5297                 1.3947                 1.5334
 Frc consts  --      1.7694                 1.6150                 1.7819
 IR Inten    --      2.5575                 1.5710                 5.8228

                     85                     86                     87
                      A                      A                      A
 Frequencies --   1416.6632              1421.6109              1466.6703
 Red. masses --      1.5789                 1.5190                 2.9901
 Frc consts  --      1.8670                 1.8087                 3.7897
 IR Inten    --     91.4629                 0.1402               179.8941

                     88                     89                     90
                      A                      A                      A
 Frequencies --   1507.5473              1513.6552              1515.7946
 Red. masses --      1.1017                 1.0884                 1.0910
 Frc consts  --      1.4752                 1.4693                 1.4770
 IR Inten    --      7.5056                 0.9664                 2.3049

                     91                     92                     93
                      A                      A                      A
 Frequencies --   1519.6658              1524.2140              1531.6478
 Red. masses --      1.0973                 1.0868                 1.0855
 Frc consts  --      1.4930                 1.4876                 1.5003
 IR Inten    --      6.6990                 7.3221                 2.9248

                     94                     95                     96
                      A                      A                      A
 Frequencies --   1538.4074              1539.8960              1551.2468
 Red. masses --      1.0986                 1.0943                 1.1010
 Frc consts  --      1.5319                 1.5289                 1.5610
 IR Inten    --      1.1123                 1.6342                 1.6459

                     97                     98                     99
                      A                      A                      A
 Frequencies --   1552.8296              1703.7682              1738.9123
 Red. masses --      1.0979                 1.0893                10.0163
 Frc consts  --      1.5597                 1.8631                17.8448
 IR Inten    --      4.8709                35.0267               227.4230

                    100                    101                    102
                      A                      A                      A
 Frequencies --   3005.5517              3008.3309              3019.3577
 Red. masses --      1.0737                 1.0713                 1.0711
 Frc consts  --      5.7144                 5.7125                 5.7533
 IR Inten    --      9.1812                15.7678                15.8823

                    103                    104                    105
                      A                      A                      A
 Frequencies --   3021.2413              3025.9156              3027.2475
 Red. masses --      1.0721                 1.0642                 1.0720
 Frc consts  --      5.7657                 5.7407                 5.7884
 IR Inten    --      7.9982                24.2093                27.8183

                    106                    107                    108
                      A                      A                      A
 Frequencies --   3030.1531              3042.4496              3060.9900
 Red. masses --      1.0638                 1.0655                 1.0672
 Frc consts  --      5.7551                 5.8112                 5.8914
 IR Inten    --     68.8348                75.2768                40.8113

                    109                    110                    111
                      A                      A                      A
 Frequencies --   3066.9419              3069.4681              3070.5101
 Red. masses --      1.0642                 1.0931                 1.0993
 Frc consts  --      5.8975                 6.0676                 6.1063
 IR Inten    --     10.2657                79.1280                48.8375

                    112                    113                    114
                      A                      A                      A
 Frequencies --   3076.1143              3080.1765              3083.9785
 Red. masses --      1.1018                 1.0861                 1.0902
 Frc consts  --      6.1429                 6.0710                 6.1093
 IR Inten    --     48.5516                12.3288                92.3080

                    115                    116                    117
                      A                      A                      A
 Frequencies --   3091.5737              3112.8627              3119.7692
 Red. masses --      1.0655                 1.1031                 1.0990
 Frc consts  --      6.0004                 6.2975                 6.3023
 IR Inten    --     18.0993                16.3299                35.5963

                    118                    119                    120
                      A                      A                      A
 Frequencies --   3121.6179              3138.4490              3141.9547
 Red. masses --      1.0907                 1.0976                 1.0977
 Frc consts  --      6.2618                 6.3695                 6.3848
 IR Inten    --     18.2823                15.0456                22.8220

                    121                    122                    123
                      A                      A                      A
 Frequencies --   3153.2542              3443.7830              3527.2583
 Red. masses --      1.1053                 1.0500                 1.0909
 Frc consts  --      6.4749                 7.3367                 7.9967
 IR Inten    --     17.3324                 2.8380                 2.9382

 - Thermochemistry -
 -------------------
 Temperature   298.150 Kelvin.  Pressure   1.00000 Atm.
 Atom     1 has atomic number  6 and mass  12.00000

 Molecular mass:   268.17869 amu.
 Principal axes and moments of inertia in atomic units:
                           1         2         3
     Eigenvalues --  2693.934078483.585169903.33584
           X            0.99998   0.00493   0.00265
           Y           -0.00487   0.99976  -0.02125
           Z           -0.00275   0.02124   0.99977
 This molecule is an asymmetric top.
 Rotational symmetry number  1.
 Warning -- assumption of classical behavior for rotation
           may cause significant error
 Rotational temperatures (Kelvin)      0.03215     0.01021     0.00875
 Rotational constants (GHZ):           0.66993     0.21273     0.18224
 Zero-point vibrational energy    1006877.3 (Joules/Mol)
                                  240.64945 (Kcal/Mol)
 Warning -- explicit consideration of  27 degrees of freedom as
           vibrations may cause significant error
 Vibrational temperatures:     26.80    60.46    73.32    90.31   106.71
          (Kelvin)            161.84   186.77   217.61   241.20   301.01
                              329.93   342.27   362.46   380.74   418.80
                              447.50   465.11   497.31   550.76   562.46
                              624.61   645.95   673.01   705.91   738.56
                              753.24   842.97   943.48  1017.43  1063.69
                             1091.64  1157.46  1166.07  1178.44  1195.32
                             1237.76  1250.15  1307.08  1319.52  1319.96
                             1337.66  1354.97  1375.85  1379.97  1398.65
                             1431.81  1458.50  1477.73  1509.05  1512.55
                             1523.14  1548.55  1558.02  1588.51  1601.60
                             1633.52  1642.72  1649.24  1663.21  1673.77
                             1706.85  1743.09  1757.71  1768.91  1776.35
                             1792.88  1807.43  1821.40  1854.48  1864.19
                             1870.64  1882.99  1889.45  1919.28  1946.07
                             1975.24  1977.74  1993.63  2001.32  2008.64
                             2014.51  2015.91  2017.02  2020.62  2038.26
                             2045.38  2110.21  2169.02  2177.81  2180.89
                             2186.46  2193.00  2203.70  2213.43  2215.57
                             2231.90  2234.18  2451.34  2501.91  4324.32
                             4328.32  4344.18  4346.89  4353.62  4355.53
                             4359.71  4377.41  4404.08  4412.65  4416.28
                             4417.78  4425.84  4431.69  4437.16  4448.08
                             4478.72  4488.65  4491.31  4515.53  4520.57
                             4536.83  4954.84  5074.94

 Zero-point correction=                           0.383499 (Hartree/Particle)
 Thermal correction to Energy=                    0.401481
 Thermal correction to Enthalpy=                  0.402426
 Thermal correction to Gibbs Free Energy=         0.336336
 Sum of electronic and zero-point Energies=           -882.815975
 Sum of electronic and thermal Energies=              -882.797993
 Sum of electronic and thermal Enthalpies=            -882.797049
 Sum of electronic and thermal Free Energies=         -882.863138

                     E (Thermal)             CV                S
                      KCal/Mol        Cal/Mol-Kelvin    Cal/Mol-Kelvin
 Total                  251.933             70.090            139.097
 Electronic               0.000              0.000              0.000
 Translational            0.889              2.981             42.659
 Rotational               0.889              2.981             33.781
 Vibrational            250.156             64.129             62.657
 Vibration     1          0.593              1.986              6.775
 Vibration     2          0.595              1.980              5.161
 Vibration     3          0.595              1.977              4.780
 Vibration     4          0.597              1.972              4.368
 Vibration     5          0.599              1.966              4.040
 Vibration     6          0.607              1.939              3.226
 Vibration     7          0.612              1.923              2.949
 Vibration     8          0.619              1.901              2.657
 Vibration     9          0.624              1.882              2.462
 Vibration    10          0.642              1.827              2.051
 Vibration    11          0.652              1.796              1.884
 Vibration    12          0.656              1.783              1.819
 Vibration    13          0.664              1.760              1.717
 Vibration    14          0.671              1.738              1.631
 Vibration    15          0.687              1.690              1.468
 Vibration    16          0.700              1.653              1.357
 Vibration    17          0.708              1.629              1.294
 Vibration    18          0.724              1.584              1.186
 Vibration    19          0.752              1.507              1.028
 Vibration    20          0.759              1.490              0.997
 Vibration    21          0.795              1.396              0.845
 Vibration    22          0.808              1.363              0.799
 Vibration    23          0.825              1.322              0.744
 Vibration    24          0.846              1.271              0.682
 Vibration    25          0.868              1.220              0.626
 Vibration    26          0.878              1.198              0.602
 Vibration    27          0.943              1.062              0.475

 Optimization completed.
    -- Stationary point found.
 Normal termination of Gaussian 16 at Mon Dec 14 14:06:06 2020.

 ----------------------------------------------------------------------
 # B3LYP/6-311++G(d,p) empiricaldispersion=gd3bj scf=xqc pop=npa geom=c
 heck
 ----------------------------------------------------------------------

 --------------------------------------
 CID_70320767_JID_9803_Energie_neutraal
 --------------------------------------
 Structure from the checkpoint file:  "JID_9803.chk"
 Charge =  0 Multiplicity = 1

 SCF Done:  E(RB3LYP) =  -883.451811996     A.U. after   14 cycles
 Normal termination of Gaussian 16 at Mon Dec 14 14:17:20 2020.

 ----------------------------------------------------------------------
 # B3LYP/6-311++G(d,p) empiricaldispersion=gd3bj scf=xqc pop=npa geom=c
 heck
 ----------------------------------------------------------------------

 ------------------------------------
 CID_70320767_JID_9803_Energie_kation
 ------------------------------------
 Structure from the checkpoint file:  "JID_9803.chk"
 Charge =  1 Multiplicity = 2

 SCF Done:  E(UB3LYP) =  -883.147817702     A.U. after   26 cycles
 Normal termination of Gaussian 16 at Mon Dec 14 14:47:34 2020.
 Gaussian 16:  ES64L-G16RevA.03 25-Dec-2016

 ----------------------------------------------------------------------
 # B3LYP/6-311++G(d,p) empiricaldispersion=gd3bj scf=xqc pop=npa geom=c
 heck
 ----------------------------------------------------------------------

 -----------------------------------
 CID_70320767_JID_9803_Energie_anion
 -----------------------------------
 Structure from the checkpoint file:  "JID_9803.chk"
 Charge = -1 Multiplicity = 2

                         Standard orientation:
 ---------------------------------------------------------------------
 Center     Atomic      Atomic             Coordinates (Angstroms)
 Number     Number       Type             X           Y           Z
 ---------------------------------------------------------------------
      1          6           0        3.858358    2.343440    0.254335
      2          6           0        4.626537    1.036548    0.017999
      3          6           0        3.817883   -0.184397    0.475012
      4          6           0        2.442312   -0.233526   -0.206375
      5          6           0        1.673491    1.071560    0.065000
      6          6           0        2.472037    2.296478   -0.400825
      7          6           0        1.650873   -1.498416    0.199992
      8          6           0        0.314771   -1.503809   -0.557441
      9          8           0        0.303567   -1.759476   -1.763193
     10          7           0       -0.831772   -1.212893    0.115703
     11          6           0       -0.949740   -0.811883    1.531553
     12          6           0       -2.444172   -0.506206    1.694499
     13          6           0       -2.859701   -0.058742    0.293615
     14          6           0       -2.073691   -1.001967   -0.625413
     15          8           0       -4.254271   -0.121414    0.040237
     16          6           0       -4.697416    1.177314   -0.357409
     17          6           0       -3.402964    1.858794   -0.793944
     18          8           0       -2.458613    1.293554    0.110049
     19          7           0        2.431579   -2.697828   -0.130959
     20          1           0        4.430736    3.199597   -0.124450
     21          1           0        3.738261    2.499350    1.336761
     22          1           0        4.849250    0.938522   -1.054594
     23          1           0        5.593306    1.063800    0.536281
     24          1           0        3.669965   -0.134313    1.565392
     25          1           0        4.357665   -1.113229    0.274115
     26          1           0        2.595535   -0.309416   -1.293768
     27          1           0        1.494216    1.159930    1.147520
     28          1           0        0.689113    1.060441   -0.417648
     29          1           0        1.913174    3.214738   -0.181122
     30          1           0        2.588040    2.252524   -1.493343
     31          1           0        1.498886   -1.487116    1.284663
     32          1           0       -0.613136   -1.611530    2.199067
     33          1           0       -0.350759    0.080968    1.732585
     34          1           0       -3.008732   -1.408793    1.947046
     35          1           0       -2.647171    0.263842    2.441284
     36          1           0       -1.862073   -0.565573   -1.603578
     37          1           0       -2.626824   -1.936945   -0.775220
     38          1           0       -5.158421    1.699103    0.491877
     39          1           0       -5.433315    1.067992   -1.158786
     40          1           0       -3.395158    2.942990   -0.664567
     41          1           0       -3.150177    1.611942   -1.835304
     42          1           0        1.962735   -3.516395    0.257003
     43          1           0        2.369293   -2.809829   -1.144756
 ---------------------------------------------------------------------

 SCF Done:  E(UB3LYP) =  -883.441050576     A.U. after   33 cycles
 SCF Done:  E(UB3LYP) =  -883.441050576     a.u. after    1 cycles

 The electronic state is 2-A.
 Alpha  occ. eigenvalues --  -19.04819 -19.04646 -18.99324 -14.25176 -14.20474
 Alpha  occ. eigenvalues --  -10.19094 -10.17239 -10.13412 -10.13296 -10.11899
 Alpha  occ. eigenvalues --  -10.11464 -10.10987 -10.08437 -10.08372 -10.08123
 Alpha  occ. eigenvalues --  -10.08072 -10.07817 -10.07378 -10.07125  -1.01165
 Alpha  occ. eigenvalues --   -0.94588  -0.91508  -0.85419  -0.80228  -0.74479
 Alpha  occ. eigenvalues --   -0.71800  -0.67047  -0.66414  -0.65432  -0.63404
 Alpha  occ. eigenvalues --   -0.58382  -0.55231  -0.54982  -0.52440  -0.50724
 Alpha  occ. eigenvalues --   -0.49079  -0.47370  -0.46100  -0.43159  -0.42757
 Alpha  occ. eigenvalues --   -0.41225  -0.40987  -0.39126  -0.37971  -0.36633
 Alpha  occ. eigenvalues --   -0.36175  -0.35618  -0.35324  -0.34946  -0.34771
 Alpha  occ. eigenvalues --   -0.33633  -0.32357  -0.31675  -0.31202  -0.29483
 Alpha  occ. eigenvalues --   -0.29367  -0.29298  -0.28842  -0.28011  -0.27750
 Alpha  occ. eigenvalues --   -0.26501  -0.25935  -0.25839  -0.25467  -0.24996
 Alpha  occ. eigenvalues --   -0.23203  -0.21689  -0.21385  -0.19234  -0.18025
 Alpha  occ. eigenvalues --   -0.17462  -0.15358  -0.15072   0.03965
 Alpha virt. eigenvalues --    0.05672   0.06045   0.07030   0.07616   0.07911
 Alpha virt. eigenvalues --    0.08164   0.08706   0.09160   0.09239   0.10146
 Alpha virt. eigenvalues --    0.10512   0.10641   0.10898   0.11132   0.11816

  Beta  occ. eigenvalues --  -19.04811 -19.04646 -18.99320 -14.25176 -14.20460
  Beta  occ. eigenvalues --  -10.19094 -10.17239 -10.13382 -10.13264 -10.11872
  Beta  occ. eigenvalues --  -10.11457 -10.10975 -10.08415 -10.08372 -10.08121
  Beta  occ. eigenvalues --  -10.08066 -10.07812 -10.07370 -10.07119  -1.01155
  Beta  occ. eigenvalues --   -0.94581  -0.91498  -0.85406  -0.80205  -0.74467
  Beta  occ. eigenvalues --   -0.71776  -0.67030  -0.66371  -0.65420  -0.63370
  Beta  occ. eigenvalues --   -0.58355  -0.55167  -0.54940  -0.52423  -0.50703
  Beta  occ. eigenvalues --   -0.49051  -0.47346  -0.46069  -0.43132  -0.42726
  Beta  occ. eigenvalues --   -0.41191  -0.40948  -0.39097  -0.37941  -0.36602
  Beta  occ. eigenvalues --   -0.36150  -0.35605  -0.35308  -0.34916  -0.34755
  Beta  occ. eigenvalues --   -0.33607  -0.32326  -0.31654  -0.31183  -0.29460
  Beta  occ. eigenvalues --   -0.29347  -0.29273  -0.28810  -0.27999  -0.27721
  Beta  occ. eigenvalues --   -0.26487  -0.25922  -0.25802  -0.25451  -0.24979
  Beta  occ. eigenvalues --   -0.23186  -0.21677  -0.21374  -0.19210  -0.18011
  Beta  occ. eigenvalues --   -0.17448  -0.15344  -0.15060
  Beta virt. eigenvalues --    0.05902   0.06533   0.06860   0.07269   0.07846
  Beta virt. eigenvalues --    0.08332   0.08623   0.08935   0.09596   0.09650
  Beta virt. eigenvalues --    0.10176   0.10674   0.10883   0.11008   0.11351

 Mulliken charges and spin densities:
               1          2
     1  C   -0.266697  -0.178059
     2  C   -0.351845   0.007181
     3  C    0.117823  -0.316721
     4  C    0.558720  -0.322681
     5  C   -0.468532   0.264215
     6  C   -0.023376  -0.562169
     7  C    0.033294  -0.347906
     8  C   -1.022602   0.449545
     9  O   -0.280485  -0.000943
    10  N    0.302458   0.021765
    11  C   -0.267698   0.116528
    12  C    1.686963  -1.827317
    13  C   -2.704798   1.242996
    14  C    1.085072  -0.900533
    15  O   -0.025523   0.035281
    16  C    0.806208  -0.962079
    17  C    0.568925  -0.579197
    18  O    0.017049   0.024733
    19  N   -0.230653   0.010883
    20  H    0.080840   0.080018
    21  H    0.038990   0.085330
    22  H    0.117390  -0.004926
    23  H    0.102840   0.065812
    24  H    0.017476   0.106877
    25  H    0.185398  -0.000315
    26  H    0.157913   0.045676
    27  H   -0.004270   0.157083
    28  H    0.158446   0.053390
    29  H   -0.020816   0.198233
    30  H    0.112362   0.025276
    31  H    0.024340   0.228802
    32  H   -0.799995   1.002925
    33  H    0.178009  -0.085894
    34  H    0.102117   0.111039
    35  H   -0.365379   0.586203
    36  H    0.173296   0.043550
    37  H    0.015767   0.202405
    38  H   -0.072193   0.219810
    39  H   -0.483853   0.651871
    40  H   -0.589823   0.770795
    41  H    0.090761   0.036142
    42  H    0.016280   0.222829
    43  H    0.229798   0.021548
 Sum of Mulliken charges =  -1.00000   1.00000

 Dipole moment (field-independent basis, Debye):
    X=              5.6233    Y=             -0.2558    Z=             -1.7856  Tot=              5.9056
 Quadrupole moment (field-independent basis, Debye-Ang):
   XX=           -199.0539   YY=           -170.7797   ZZ=           -159.9599
   XY=             14.6300   XZ=             -3.0682   YZ=              2.8315

 Summary of Natural Population Analysis:

                                       Natural Population
                Natural  -----------------------------------------------
    Atom  No    Charge         Core      Valence    Rydberg      Total
 -----------------------------------------------------------------------
      C    1   -0.18903      0.99963     2.18252    0.00687     3.18903
      C    2   -0.18761      0.99963     2.18095    0.00703     3.18761
      C    3   -0.19247      0.99961     2.18349    0.00937     3.19247
      C    4   -0.10852      0.99957     2.09840    0.01054     3.10852
      C    5   -0.19409      0.99961     2.18542    0.00907     3.19409
      C    6   -0.18850      0.99963     2.17994    0.00893     3.18850
      C    7   -0.04714      0.99954     2.03441    0.01320     3.04714
      C    8    0.34438      0.99961     1.63136    0.02465     2.65562
      O    9   -0.33789      0.99988     3.33313    0.00487     4.33789
      N   10   -0.25345      0.99963     2.74273    0.01109     3.75345
      C   11   -0.08208      0.99961     2.07271    0.00975     3.08208
      C   12   -0.20582      0.99955     2.19623    0.01003     3.20582
      C   13    0.29416      0.99951     1.68311    0.02321     2.70584
      C   14   -0.10161      0.99953     2.09078    0.01130     3.10161
      O   15   -0.30383      0.99987     3.29547    0.00849     4.30383
      C   16   -0.02051      0.99958     2.00947    0.01146     3.02051
      C   17   -0.02547      0.99959     2.01379    0.01208     3.02547
      O   18   -0.30226      0.99987     3.29355    0.00884     4.30226
      N   19   -0.41789      0.99978     2.90854    0.00957     3.91789
      H   20    0.09532      0.00000     0.40377    0.00091     0.40468
      H   21    0.09318      0.00000     0.40564    0.00118     0.40682
      H   22    0.09106      0.00000     0.40776    0.00118     0.40894
      H   23    0.09596      0.00000     0.40315    0.00089     0.40404
      H   24    0.09261      0.00000     0.40619    0.00120     0.40739
      H   25    0.11083      0.00000     0.38802    0.00115     0.38917
      H   26    0.09825      0.00000     0.40012    0.00163     0.40175
      H   27    0.09309      0.00000     0.40524    0.00167     0.40691
      H   28    0.10675      0.00000     0.39168    0.00157     0.39325
      H   29    0.10073      0.00000     0.39840    0.00086     0.39927
      H   30    0.09211      0.00000     0.40681    0.00107     0.40789
      H   31    0.09899      0.00000     0.39879    0.00222     0.40101
      H   32    0.10252      0.00000     0.39455    0.00293     0.39748
      H   33    0.09906      0.00000     0.39886    0.00208     0.40094
      H   34    0.10774      0.00000     0.39071    0.00154     0.39226
      H   35    0.11287      0.00000     0.38571    0.00142     0.38713
      H   36    0.11225      0.00000     0.38650    0.00126     0.38775
      H   37    0.10279      0.00000     0.39588    0.00133     0.39721
      H   38    0.08454      0.00000     0.41365    0.00181     0.41546
      H   39    0.09273      0.00000     0.40537    0.00190     0.40727
      H   40    0.09939      0.00000     0.39839    0.00222     0.40061
      H   41    0.08118      0.00000     0.41738    0.00144     0.41882
      H   42    0.17559      0.00000     0.32296    0.00145     0.32441
      H   43    0.18007      0.00000     0.31811    0.00182     0.31993
 =======================================================================
   * Total *   -0.00000     18.99325    53.75966    0.24709    73.00000

 Normal termination of Gaussian 16 at Mon Dec 14 15:25:35 2020.
