 Gaussian 16, Revision A.03,

 -----------------------------------------------------------
 # opt freq B3LYP/6-31G(d) empiricaldispersion=gd3bj scf=xqc
 -----------------------------------------------------------

 ------------------------------
 CID_82651399_JID_1004_neutraal
 ------------------------------
 Symbolic Z-matrix:
 Charge =  0 Multiplicity = 1

 SCF Done:  E(RB3LYP) =  -508.012474541     A.U. after   15 cycles
 SCF Done:  E(RB3LYP) =  -508.014819577     A.U. after   12 cycles
 SCF Done:  E(RB3LYP) =  -508.014997837     A.U. after   11 cycles
 SCF Done:  E(RB3LYP) =  -508.015009709     A.U. after    9 cycles
 SCF Done:  E(RB3LYP) =  -508.015012578     A.U. after    9 cycles
 Optimization completed.
    -- Stationary point found.
 Normal termination of Gaussian 16 at Tue Dec  8 19:07:24 2020.

 --------------------------------------------------------------------
 #N Geom=AllCheck Guess=TCheck SCRF=Check GenChk RB3LYP/6-31G(d) Freq
 --------------------------------------------------------------------

 Structure from the checkpoint file:  "JID_1004.chk"
 ------------------------------
 CID_82651399_JID_1004_neutraal
 ------------------------------
 Charge =  0 Multiplicity = 1

 SCF Done:  E(RB3LYP) =  -508.015012578     A.U. after    1 cycles

  Exact polarizability: 154.054  -0.048  81.047   0.001  -0.001  33.593
 Approx polarizability: 261.811 -12.596 152.739   0.007  -0.005  52.408

                      1                      2                      3
                      A                      A                      A
 Frequencies --     94.9320               140.4954               254.3389
 Red. masses --     10.4213                10.3806                 5.6188
 Frc consts  --      0.0553                 0.1207                 0.2141
 IR Inten    --      2.6510                 4.0984                 0.6880

                      4                      5                      6
                      A                      A                      A
 Frequencies --    261.1363               393.3504               410.1860
 Red. masses --     10.4630                 7.5170                 3.1313
 Frc consts  --      0.4204                 0.6853                 0.3104
 IR Inten    --      0.0327                 2.3829                 6.5733

                      7                      8                      9
                      A                      A                      A
 Frequencies --    463.3730               492.9213               596.4492
 Red. masses --     10.1708                 8.3531                10.6829
 Frc consts  --      1.2867                 1.1958                 2.2392
 IR Inten    --      0.0965                 2.8027                 2.8960

                     10                     11                     12
                      A                      A                      A
 Frequencies --    615.7076               635.2303               671.7358
 Red. masses --      4.7782                 8.5282                 9.1101
 Frc consts  --      1.0672                 2.0275                 2.4220
 IR Inten    --     11.2297                 0.8630                 1.8695

                     13                     14                     15
                      A                      A                      A
 Frequencies --    714.0198               784.1926               836.0235
 Red. masses --     11.3419                 5.7575                 1.3592
 Frc consts  --      3.4069                 2.0861                 0.5597
 IR Inten    --      4.3131                 1.6033                29.1956

                     16                     17                     18
                      A                      A                      A
 Frequencies --    859.0018               910.6282               942.3080
 Red. masses --      6.0874                 7.9977                 1.3537
 Frc consts  --      2.6465                 3.9075                 0.7082
 IR Inten    --     22.3000                24.4764                 1.4993

                     19                     20                     21
                      A                      A                      A
 Frequencies --    956.7176               978.9661              1052.1589
 Red. masses --     14.1987                 1.4240                 1.8666
 Frc consts  --      7.6571                 0.8041                 1.2175
 IR Inten    --     16.4327                 0.3762                 2.2709

                     22                     23                     24
                      A                      A                      A
 Frequencies --   1182.5340              1222.1599              1251.7455
 Red. masses --      7.2329                 1.6497                 6.7564
 Frc consts  --      5.9592                 1.4518                 6.2373
 IR Inten    --     48.0617                12.7866                 8.5574

                     25                     26                     27
                      A                      A                      A
 Frequencies --   1298.6357              1337.2157              1354.5287
 Red. masses --      5.8279                 2.2627                 2.7725
 Frc consts  --      5.7907                 2.3839                 2.9971
 IR Inten    --     12.0990                21.9961                21.2263

                     28                     29                     30
                      A                      A                      A
 Frequencies --   1470.0198              1501.7406              1583.4765
 Red. masses --      2.7542                 2.3773                10.3112
 Frc consts  --      3.5066                 3.1588                15.2328
 IR Inten    --     12.9917                 9.3517                 9.7622

                     31                     32                     33
                      A                      A                      A
 Frequencies --   1640.2999              1664.4123              2373.5099
 Red. masses --      7.5652                 8.5514                12.6638
 Frc consts  --     11.9927                13.9575                42.0337
 IR Inten    --     40.8055                33.7739                 6.1666

                     34                     35                     36
                      A                      A                      A
 Frequencies --   3195.0716              3202.9742              3242.8923
 Red. masses --      1.0895                 1.0930                 1.0951
 Frc consts  --      6.5530                 6.6068                 6.7850
 IR Inten    --     16.7763                 6.1294                 2.2917

 - Thermochemistry -
 -------------------
 Temperature   298.150 Kelvin.  Pressure   1.00000 Atm.
 Atom     1 has atomic number  6 and mass  12.00000

 Molecular mass:   145.02761 amu.
 Principal axes and moments of inertia in atomic units:
                           1         2         3
     Eigenvalues --   441.684072475.484352917.16840
           X            0.99997   0.00717  -0.00000
           Y           -0.00717   0.99997  -0.00000
           Z            0.00000   0.00000   1.00000
 This molecule is an asymmetric top.
 Rotational symmetry number  1.
 Warning -- assumption of classical behavior for rotation
           may cause significant error
 Rotational temperatures (Kelvin)      0.19610     0.03499     0.02969
 Rotational constants (GHZ):           4.08605     0.72905     0.61866
 Zero-point vibrational energy     242752.7 (Joules/Mol)
                                   58.01930 (Kcal/Mol)
 Warning -- explicit consideration of  10 degrees of freedom as
           vibrations may cause significant error
 Vibrational temperatures:    136.59   202.14   365.94   375.72   565.94
          (Kelvin)            590.17   666.69   709.20   858.16   885.87
                              913.95   966.48  1027.32  1128.28  1202.85
                             1235.91  1310.19  1355.77  1376.50  1408.51
                             1513.82  1701.40  1758.42  1800.98  1868.45
                             1923.96  1948.86  2115.03  2160.67  2278.27
                             2360.03  2394.72  3414.95  4597.00  4608.37
                             4665.80

 Zero-point correction=                           0.092460 (Hartree/Particle)
 Thermal correction to Energy=                    0.099954
 Thermal correction to Enthalpy=                  0.100898
 Thermal correction to Gibbs Free Energy=         0.059720
 Sum of electronic and zero-point Energies=           -507.922553
 Sum of electronic and thermal Energies=              -507.915058
 Sum of electronic and thermal Enthalpies=            -507.914114
 Sum of electronic and thermal Free Energies=         -507.955293

                     E (Thermal)             CV                S
                      KCal/Mol        Cal/Mol-Kelvin    Cal/Mol-Kelvin
 Total                   62.722             28.737             86.668
 Electronic               0.000              0.000              0.000
 Translational            0.889              2.981             40.826
 Rotational               0.889              2.981             29.546
 Vibrational             60.945             22.775             16.296
 Vibration     1          0.603              1.953              3.556
 Vibration     2          0.615              1.913              2.797
 Vibration     3          0.665              1.755              1.700
 Vibration     4          0.669              1.744              1.654
 Vibration     5          0.761              1.484              0.987
 Vibration     6          0.774              1.448              0.926
 Vibration     7          0.821              1.331              0.756
 Vibration     8          0.849              1.266              0.676
 Vibration     9          0.954              1.039              0.456
 Vibration    10          0.975              0.999              0.423

                           ! Non-Optimized Parameters !
 Normal termination of Gaussian 16 at Tue Dec  8 19:09:39 2020.

 ----------------------------------------------------------------------
 # B3LYP/6-311++G(d,p) empiricaldispersion=gd3bj scf=xqc pop=npa geom=c
 heck
 ----------------------------------------------------------------------

 --------------------------------------
 CID_82651399_JID_1004_Energie_neutraal
 --------------------------------------
 Structure from the checkpoint file:  "JID_1004.chk"
 Charge =  0 Multiplicity = 1

 SCF Done:  E(RB3LYP) =  -508.145765094     A.U. after   16 cycles
 Normal termination of Gaussian 16 at Tue Dec  8 19:10:27 2020.

 ----------------------------------------------------------------------
 # B3LYP/6-311++G(d,p) empiricaldispersion=gd3bj scf=xqc pop=npa geom=c
 heck
 ----------------------------------------------------------------------

 ------------------------------------
 CID_82651399_JID_1004_Energie_kation
 ------------------------------------
 Structure from the checkpoint file:  "JID_1004.chk"
 Charge =  1 Multiplicity = 2

 SCF Done:  E(UB3LYP) =  -507.787325095     A.U. after   29 cycles
 Normal termination of Gaussian 16 at Tue Dec  8 19:12:09 2020.
 Gaussian 16:  ES64L-G16RevA.03 25-Dec-2016

 ----------------------------------------------------------------------
 # B3LYP/6-311++G(d,p) empiricaldispersion=gd3bj scf=xqc pop=npa geom=c
 heck
 ----------------------------------------------------------------------

 -----------------------------------
 CID_82651399_JID_1004_Energie_anion
 -----------------------------------
 Structure from the checkpoint file:  "JID_1004.chk"
 Charge = -1 Multiplicity = 2

                         Standard orientation:
 ---------------------------------------------------------------------
 Center     Atomic      Atomic             Coordinates (Angstroms)
 Number     Number       Type             X           Y           Z
 ---------------------------------------------------------------------
      1          6           0       -1.611798   -1.422298   -0.000027
      2          6           0       -2.781107   -0.658233    0.000056
      3          7           0       -2.835017    0.690303    0.000066
      4          6           0       -1.699766    1.386965    0.000027
      5          6           0       -0.463574    0.731246   -0.000013
      6          6           0       -0.448432   -0.670340   -0.000039
      7          8           0        0.857696   -1.073915   -0.000151
      8          6           0        1.560651    0.116930    0.000325
      9          7           0        0.848288    1.199912   -0.000258
     10          6           0        2.979506    0.017755    0.000140
     11          7           0        4.138149   -0.065188   -0.000029
     12          1           0       -1.624015   -2.505661   -0.000070
     13          1           0       -3.744317   -1.162331    0.000064
     14          1           0       -1.766061    2.471968   -0.000057
 ---------------------------------------------------------------------

 SCF Done:  E(UB3LYP) =  -508.185922732     A.U. after   21 cycles

 The electronic state is 2-A.
 Alpha  occ. eigenvalues --  -19.05595 -14.17643 -14.16202 -14.15795 -10.11803
 Alpha  occ. eigenvalues --  -10.11071 -10.06997 -10.06892 -10.06302 -10.05867
 Alpha  occ. eigenvalues --  -10.05266  -0.99429  -0.80996  -0.78569  -0.75851
 Alpha  occ. eigenvalues --   -0.67358  -0.62986  -0.55542  -0.50151  -0.48392
 Alpha  occ. eigenvalues --   -0.42290  -0.39105  -0.35912  -0.35026  -0.33008
 Alpha  occ. eigenvalues --   -0.32273  -0.28543  -0.26167  -0.23845  -0.22635
 Alpha  occ. eigenvalues --   -0.22616  -0.19804  -0.19514  -0.15818  -0.14586
 Alpha  occ. eigenvalues --   -0.13011  -0.11769   0.02646
 Alpha virt. eigenvalues --    0.08936   0.10757   0.11056   0.11314   0.12792
 Alpha virt. eigenvalues --    0.13499   0.14966   0.15865   0.15886   0.16238
 Alpha virt. eigenvalues --    0.17617   0.17921   0.18759   0.18763   0.19532

  Beta  occ. eigenvalues --  -19.05415 -14.17721 -14.15875 -14.15312 -10.11333
  Beta  occ. eigenvalues --  -10.11104 -10.06927 -10.06821 -10.06007 -10.05903
  Beta  occ. eigenvalues --  -10.05161  -0.99063  -0.80777  -0.77966  -0.75157
  Beta  occ. eigenvalues --   -0.67103  -0.62473  -0.54699  -0.49960  -0.48037
  Beta  occ. eigenvalues --   -0.41962  -0.38806  -0.35671  -0.33909  -0.32791
  Beta  occ. eigenvalues --   -0.32057  -0.28410  -0.25233  -0.23703  -0.21844
  Beta  occ. eigenvalues --   -0.20884  -0.19545  -0.17911  -0.15426  -0.13792
  Beta  occ. eigenvalues --   -0.13018  -0.09836
  Beta virt. eigenvalues --    0.08914   0.09147   0.11040   0.11319   0.11327
  Beta virt. eigenvalues --    0.13534   0.14460   0.15113   0.16024   0.16033
  Beta virt. eigenvalues --    0.16237   0.17598   0.18023   0.18763   0.18813

 Mulliken charges and spin densities:
               1          2
     1  C    0.298441   0.067735
     2  C   -0.571857   0.116614
     3  N   -0.103490  -0.047008
     4  C   -0.237034   0.222104
     5  C    0.348141   0.000638
     6  C   -0.223288  -0.015530
     7  O   -0.115626   0.029043
     8  C    0.802785   0.389280
     9  N   -0.159762   0.133799
    10  C   -1.109843  -0.114342
    11  N   -0.352617   0.248818
    12  H    0.147558  -0.006265
    13  H    0.130805  -0.009704
    14  H    0.145785  -0.015183
 Sum of Mulliken charges =  -1.00000   1.00000

 Dipole moment (field-independent basis, Debye):
    X=             -4.7743    Y=             -2.2706    Z=             -0.0001  Tot=              5.2868
 Quadrupole moment (field-independent basis, Debye-Ang):
   XX=           -120.3955   YY=            -69.7619   ZZ=            -67.1055
   XY=              3.8079   XZ=              0.0012   YZ=              0.0006

 Summary of Natural Population Analysis:

                                       Natural Population
                Natural  -----------------------------------------------
    Atom  No    Charge         Core      Valence    Rydberg      Total
 -----------------------------------------------------------------------
      C    1   -0.13821      0.99952     2.13027    0.00843     3.13821
      C    2    0.04421      0.99962     1.94107    0.01510     2.95579
      N    3   -0.26286      0.99972     2.75060    0.01254     3.76286
      C    4    0.07944      0.99956     1.90637    0.01463     2.92056
      C    5    0.01473      0.99944     1.97437    0.01146     2.98527
      C    6    0.14528      0.99935     1.84296    0.01241     2.85472
      O    7   -0.22646      0.99986     3.21797    0.00864     4.22646
      C    8    0.27887      0.99947     1.70095    0.02072     2.72113
      N    9   -0.19386      0.99967     2.68513    0.00906     3.69386
      C   10    0.10955      0.99962     1.87403    0.01680     2.89045
      N   11   -0.11334      0.99979     2.60370    0.00986     3.61334
      H   12    0.10083      0.00000     0.39798    0.00118     0.39917
      H   13    0.07855      0.00000     0.42014    0.00131     0.42145
      H   14    0.08328      0.00000     0.41504    0.00168     0.41672
 =======================================================================
   * Total *    0.00000     10.99562    25.86057    0.14381    37.00000

 Normal termination of Gaussian 16 at Tue Dec  8 19:13:25 2020.
