 Gaussian 16, Revision A.03,

 -----------------------------------------------------------
 # opt freq B3LYP/6-31G(d) empiricaldispersion=gd3bj scf=xqc
 -----------------------------------------------------------

 ------------------------------
 CID_79462230_JID_4772_neutraal
 ------------------------------
 Symbolic Z-matrix:
 Charge =  0 Multiplicity = 1

 SCF Done:  E(RB3LYP) =  -581.291723667     A.U. after   13 cycles
 SCF Done:  E(RB3LYP) =  -581.296326111     A.U. after   10 cycles
 SCF Done:  E(RB3LYP) =  -581.296886251     A.U. after   10 cycles
 SCF Done:  E(RB3LYP) =  -581.297017510     A.U. after   10 cycles
 SCF Done:  E(RB3LYP) =  -581.297104075     A.U. after   10 cycles
 SCF Done:  E(RB3LYP) =  -581.297140828     A.U. after    9 cycles
 SCF Done:  E(RB3LYP) =  -581.297153246     A.U. after    9 cycles
 SCF Done:  E(RB3LYP) =  -581.297157928     A.U. after    8 cycles
 SCF Done:  E(RB3LYP) =  -581.297160494     A.U. after    8 cycles
 SCF Done:  E(RB3LYP) =  -581.297161098     A.U. after    7 cycles
 SCF Done:  E(RB3LYP) =  -581.298407299     A.U. after   10 cycles
 SCF Done:  E(RB3LYP) =  -581.298406439     A.U. after    9 cycles
 SCF Done:  E(RB3LYP) =  -581.298409873     A.U. after    9 cycles
 SCF Done:  E(RB3LYP) =  -581.298409880     A.U. after    7 cycles
 SCF Done:  E(RB3LYP) =  -581.298410181     A.U. after    7 cycles
 SCF Done:  E(RB3LYP) =  -581.298410173     A.U. after    7 cycles
 Optimization completed.
    -- Stationary point found.
 Normal termination of Gaussian 16 at Thu Dec 10 11:04:02 2020.

 --------------------------------------------------------------------
 #N Geom=AllCheck Guess=TCheck SCRF=Check GenChk RB3LYP/6-31G(d) Freq
 --------------------------------------------------------------------

 Structure from the checkpoint file:  "JID_4772.chk"
 ------------------------------
 CID_79462230_JID_4772_neutraal
 ------------------------------
 Charge =  0 Multiplicity = 1

 SCF Done:  E(RB3LYP) =  -581.298410174     A.U. after    1 cycles

  Exact polarizability: 156.379  -0.851 128.424   2.067   1.708 120.071
 Approx polarizability: 191.995   0.032 181.015  -0.508   5.738 182.778

                      1                      2                      3
                      A                      A                      A
 Frequencies --     20.0678                42.3917                59.3747
 Red. masses --      3.1910                 3.1876                 3.3610
 Frc consts  --      0.0008                 0.0034                 0.0070
 IR Inten    --      0.1455                 1.0344                 0.1647

                      4                      5                      6
                      A                      A                      A
 Frequencies --     95.8906               156.7782               171.0883
 Red. masses --      2.8361                 3.0223                 2.7154
 Frc consts  --      0.0154                 0.0438                 0.0468
 IR Inten    --      0.1547                 0.0246                 0.1213

                      7                      8                      9
                      A                      A                      A
 Frequencies --    218.0791               241.1908               275.3474
 Red. masses --      2.5957                 2.1188                 1.0714
 Frc consts  --      0.0727                 0.0726                 0.0479
 IR Inten    --      0.7464                 2.2852                 0.5865

                     10                     11                     12
                      A                      A                      A
 Frequencies --    282.2991               291.3404               321.2863
 Red. masses --      1.4289                 1.6097                 2.2630
 Frc consts  --      0.0671                 0.0805                 0.1376
 IR Inten    --     22.8453                21.9646                 0.1255

                     13                     14                     15
                      A                      A                      A
 Frequencies --    328.0794               380.8317               408.9203
 Red. masses --      2.2854                 2.2062                 2.1267
 Frc consts  --      0.1449                 0.1885                 0.2095
 IR Inten    --     12.6304                 9.2692                 2.1268

                     16                     17                     18
                      A                      A                      A
 Frequencies --    414.7848               453.8065               463.4948
 Red. masses --      3.1461                 2.0965                 2.0295
 Frc consts  --      0.3189                 0.2544                 0.2569
 IR Inten    --      0.7004                 1.2667                 2.0227

                     19                     20                     21
                      A                      A                      A
 Frequencies --    493.8489               555.3997               564.5810
 Red. masses --      2.2004                 3.3287                 2.0702
 Frc consts  --      0.3162                 0.6050                 0.3888
 IR Inten    --      1.3579                 2.0160                 2.0603

                     22                     23                     24
                      A                      A                      A
 Frequencies --    636.6143               641.7183               735.2138
 Red. masses --      2.0892                 2.6756                 2.1487
 Frc consts  --      0.4989                 0.6492                 0.6843
 IR Inten    --     20.6186                 2.1798                17.3976

                     25                     26                     27
                      A                      A                      A
 Frequencies --    782.7380               816.7602               838.1133
 Red. masses --      2.5966                 2.1813                 1.5394
 Frc consts  --      0.9373                 0.8573                 0.6371
 IR Inten    --      2.4929                11.2321                 1.8080

                     28                     29                     30
                      A                      A                      A
 Frequencies --    846.0397               862.9762               880.7954
 Red. masses --      2.5563                 2.3822                 1.8345
 Frc consts  --      1.0781                 1.0452                 0.8385
 IR Inten    --      0.9459                 2.9065                17.1866

                     31                     32                     33
                      A                      A                      A
 Frequencies --    891.3469               898.9121               910.3119
 Red. masses --      2.0377                 1.5482                 1.4142
 Frc consts  --      0.9539                 0.7371                 0.6905
 IR Inten    --     10.5234               122.2751                 3.4542

                     34                     35                     36
                      A                      A                      A
 Frequencies --    934.2312               975.4006               984.2077
 Red. masses --      1.9458                 1.9733                 1.6395
 Frc consts  --      1.0006                 1.1061                 0.9357
 IR Inten    --     16.9675                19.6557                 3.3955

                     37                     38                     39
                      A                      A                      A
 Frequencies --    991.3857              1006.3003              1010.5368
 Red. masses --      2.2396                 1.4813                 1.4612
 Frc consts  --      1.2969                 0.8838                 0.8791
 IR Inten    --      2.3873                 0.8156                 1.5851

                     40                     41                     42
                      A                      A                      A
 Frequencies --   1023.4193              1050.6781              1053.5419
 Red. masses --      1.4474                 1.8415                 1.7903
 Frc consts  --      0.8932                 1.1977                 1.1708
 IR Inten    --      4.9618                13.1833                 4.4217

                     43                     44                     45
                      A                      A                      A
 Frequencies --   1072.3925              1101.3259              1108.3105
 Red. masses --      2.3470                 1.7742                 2.1999
 Frc consts  --      1.5903                 1.2679                 1.5921
 IR Inten    --     38.5684                 0.6150                 3.4766

                     46                     47                     48
                      A                      A                      A
 Frequencies --   1118.0955              1120.5132              1148.5837
 Red. masses --      1.3867                 2.5994                 2.1020
 Frc consts  --      1.0214                 1.9229                 1.6338
 IR Inten    --      1.0591                 1.8028                13.0211

                     49                     50                     51
                      A                      A                      A
 Frequencies --   1165.8261              1167.7735              1184.6847
 Red. masses --      1.4893                 1.4471                 2.0952
 Frc consts  --      1.1926                 1.1627                 1.7325
 IR Inten    --     22.3941                12.4651                 4.5858

                     52                     53                     54
                      A                      A                      A
 Frequencies --   1214.1420              1232.4691              1258.6413
 Red. masses --      1.4504                 1.7856                 1.6718
 Frc consts  --      1.2598                 1.5980                 1.5604
 IR Inten    --      3.1204                19.9614                 4.3458

                     55                     56                     57
                      A                      A                      A
 Frequencies --   1285.4763              1290.1943              1296.5970
 Red. masses --      1.4450                 1.2874                 1.3293
 Frc consts  --      1.4069                 1.2627                 1.3167
 IR Inten    --      4.5988                 0.1243                 1.0445

                     58                     59                     60
                      A                      A                      A
 Frequencies --   1304.9337              1322.0712              1329.5941
 Red. masses --      1.3824                 1.2660                 1.3309
 Frc consts  --      1.3870                 1.3038                 1.3862
 IR Inten    --      3.7536                 3.3314                 0.5946

                     61                     62                     63
                      A                      A                      A
 Frequencies --   1347.5577              1354.1214              1356.9001
 Red. masses --      1.3715                 1.2587                 1.3534
 Frc consts  --      1.4674                 1.3599                 1.4682
 IR Inten    --      0.7204                 0.3472                 0.7242

                     64                     65                     66
                      A                      A                      A
 Frequencies --   1370.0815              1373.3567              1377.0019
 Red. masses --      1.4535                 1.3348                 1.4131
 Frc consts  --      1.6075                 1.4833                 1.5787
 IR Inten    --      1.2285                11.9596                 9.3727

                     67                     68                     69
                      A                      A                      A
 Frequencies --   1388.5715              1399.0275              1402.0202
 Red. masses --      1.4223                 1.4435                 1.4745
 Frc consts  --      1.6157                 1.6647                 1.7077
 IR Inten    --      6.7795                 0.5133                 0.8120

                     70                     71                     72
                      A                      A                      A
 Frequencies --   1417.7140              1427.4087              1437.8140
 Red. masses --      1.4528                 1.3098                 1.3211
 Frc consts  --      1.7204                 1.5723                 1.6092
 IR Inten    --      1.5987                 5.7566                13.2519

                     73                     74                     75
                      A                      A                      A
 Frequencies --   1442.3923              1509.3726              1510.6238
 Red. masses --      1.3958                 1.1288                 1.1055
 Frc consts  --      1.7109                 1.5152                 1.4863
 IR Inten    --     11.2511                 8.1088                 2.5851

                     76                     77                     78
                      A                      A                      A
 Frequencies --   1513.9703              1515.2089              1519.2465
 Red. masses --      1.0903                 1.0916                 1.0842
 Frc consts  --      1.4724                 1.4766                 1.4745
 IR Inten    --      2.7209                 1.1904                 8.3678

                     79                     80                     81
                      A                      A                      A
 Frequencies --   1524.2437              1525.1828              1531.2186
 Red. masses --      1.1122                 1.0632                 1.1065
 Frc consts  --      1.5224                 1.4572                 1.5285
 IR Inten    --     28.2017                 8.2127                 3.7975

                     82                     83                     84
                      A                      A                      A
 Frequencies --   1537.2868              1541.4729              1694.0698
 Red. masses --      1.1091                 1.0640                 1.0926
 Frc consts  --      1.5444                 1.4896                 1.8475
 IR Inten    --     10.1714                 4.2037                26.9228

                     85                     86                     87
                      A                      A                      A
 Frequencies --   2990.4957              2999.7311              3011.0366
 Red. masses --      1.0822                 1.0821                 1.0709
 Frc consts  --      5.7023                 5.7367                 5.7202
 IR Inten    --     22.6577                29.9166                14.6881

                     88                     89                     90
                      A                      A                      A
 Frequencies --   3019.1849              3028.0541              3029.1770
 Red. masses --      1.0682                 1.0632                 1.0820
 Frc consts  --      5.7369                 5.7437                 5.8498
 IR Inten    --     26.3571                24.2781                21.4138

                     91                     92                     93
                      A                      A                      A
 Frequencies --   3031.1092              3037.3320              3041.8145
 Red. masses --      1.0639                 1.0516                 1.0581
 Frc consts  --      5.7591                 5.7160                 5.7684
 IR Inten    --     46.7604                16.0967                60.5777

                     94                     95                     96
                      A                      A                      A
 Frequencies --   3042.0343              3052.1466              3064.4321
 Red. masses --      1.0554                 1.0691                 1.1007
 Frc consts  --      5.7545                 5.8679                 6.0901
 IR Inten    --     17.9621                32.8386                48.5870

                     97                     98                     99
                      A                      A                      A
 Frequencies --   3070.2556              3074.6560              3082.6980
 Red. masses --      1.0926                 1.1026                 1.1038
 Frc consts  --      6.0682                 6.1415                 6.1802
 IR Inten    --     58.6993                43.4932                77.6370

                    100                    101                    102
                      A                      A                      A
 Frequencies --   3089.7460              3092.5912              3100.9410
 Red. masses --      1.0937                 1.0889                 1.1002
 Frc consts  --      6.1519                 6.1362                 6.2334
 IR Inten    --     64.9437                24.4849                38.9781

                    103                    104                    105
                      A                      A                      A
 Frequencies --   3102.7077              3120.1922              3122.4109
 Red. masses --      1.0984                 1.0963                 1.1006
 Frc consts  --      6.2299                 6.2882                 6.3222
 IR Inten    --     42.5892                42.4880                31.2801

                    106                    107                    108
                      A                      A                      A
 Frequencies --   3445.9805              3489.8468              3533.6948
 Red. masses --      1.0495                 1.0742                 1.0918
 Frc consts  --      7.3429                 7.7082                 8.0324
 IR Inten    --      3.1967                 1.4949                 2.1971

 - Thermochemistry -
 -------------------
 Temperature   298.150 Kelvin.  Pressure   1.00000 Atm.
 Atom     1 has atomic number  6 and mass  12.00000

 Molecular mass:   196.19395 amu.
 Principal axes and moments of inertia in atomic units:
                           1         2         3
     Eigenvalues --  1449.372175151.452715510.25705
           X            0.99998  -0.00406   0.00450
           Y            0.00402   0.99997   0.00717
           Z           -0.00452  -0.00715   0.99996
 This molecule is an asymmetric top.
 Rotational symmetry number  1.
 Warning -- assumption of classical behavior for rotation
           may cause significant error
 Rotational temperatures (Kelvin)      0.05976     0.01681     0.01572
 Rotational constants (GHZ):           1.24519     0.35034     0.32752
 Zero-point vibrational energy     935598.7 (Joules/Mol)
                                  223.61345 (Kcal/Mol)
 Warning -- explicit consideration of  21 degrees of freedom as
           vibrations may cause significant error
 Vibrational temperatures:     28.87    60.99    85.43   137.97   225.57
          (Kelvin)            246.16   313.77   347.02   396.16   406.17
                              419.17   462.26   472.03   547.93   588.35
                              596.78   652.93   666.87   710.54   799.10
                              812.31   915.95   923.29  1057.81  1126.19
                             1175.14  1205.86  1217.26  1241.63  1267.27
                             1282.45  1293.33  1309.74  1344.15  1403.38
                             1416.06  1426.38  1447.84  1453.94  1472.47
                             1511.69  1515.81  1542.93  1584.56  1594.61
                             1608.69  1612.17  1652.56  1677.36  1680.17
                             1704.50  1746.88  1773.25  1810.90  1849.51
                             1856.30  1865.51  1877.51  1902.17  1912.99
                             1938.84  1948.28  1952.28  1971.24  1975.95
                             1981.20  1997.84  2012.89  2017.19  2039.77
                             2053.72  2068.69  2075.28  2171.65  2173.45
                             2178.27  2180.05  2185.86  2193.05  2194.40
                             2203.08  2211.81  2217.84  2437.39  4302.66
                             4315.94  4332.21  4343.93  4356.69  4358.31
                             4361.09  4370.04  4376.49  4376.81  4391.36
                             4409.03  4417.41  4423.74  4435.31  4445.46
                             4449.55  4461.56  4464.10  4489.26  4492.45
                             4958.00  5021.11  5084.20

 Zero-point correction=                           0.356351 (Hartree/Particle)
 Thermal correction to Energy=                    0.370641
 Thermal correction to Enthalpy=                  0.371585
 Thermal correction to Gibbs Free Energy=         0.314503
 Sum of electronic and zero-point Energies=           -580.942059
 Sum of electronic and thermal Energies=              -580.927769
 Sum of electronic and thermal Enthalpies=            -580.926825
 Sum of electronic and thermal Free Energies=         -580.983907

                     E (Thermal)             CV                S
                      KCal/Mol        Cal/Mol-Kelvin    Cal/Mol-Kelvin
 Total                  232.581             57.133            120.140
 Electronic               0.000              0.000              0.000
 Translational            0.889              2.981             41.727
 Rotational               0.889              2.981             32.087
 Vibrational            230.803             51.171             46.326
 Vibration     1          0.593              1.986              6.627
 Vibration     2          0.595              1.980              5.144
 Vibration     3          0.597              1.974              4.478
 Vibration     4          0.603              1.952              3.536
 Vibration     5          0.620              1.895              2.588
 Vibration     6          0.626              1.878              2.423
 Vibration     7          0.646              1.814              1.975
 Vibration     8          0.658              1.777              1.794
 Vibration     9          0.677              1.719              1.562
 Vibration    10          0.681              1.706              1.520
 Vibration    11          0.687              1.690              1.466
 Vibration    12          0.707              1.633              1.304
 Vibration    13          0.711              1.619              1.270
 Vibration    14          0.751              1.511              1.036
 Vibration    15          0.773              1.451              0.930
 Vibration    16          0.778              1.438              0.910
 Vibration    17          0.812              1.352              0.784
 Vibration    18          0.821              1.331              0.756
 Vibration    19          0.850              1.264              0.674
 Vibration    20          0.911              1.128              0.533
 Vibration    21          0.920              1.108              0.515

 Optimization completed.
    -- Stationary point found.
 Normal termination of Gaussian 16 at Thu Dec 10 11:15:48 2020.

 ----------------------------------------------------------------------
 # B3LYP/6-311++G(d,p) empiricaldispersion=gd3bj scf=xqc pop=npa geom=c
 heck
 ----------------------------------------------------------------------

 --------------------------------------
 CID_79462230_JID_4772_Energie_neutraal
 --------------------------------------
 Structure from the checkpoint file:  "JID_4772.chk"
 Charge =  0 Multiplicity = 1

 SCF Done:  E(RB3LYP) =  -581.466899187     A.U. after   14 cycles
 Normal termination of Gaussian 16 at Thu Dec 10 11:21:08 2020.

 ----------------------------------------------------------------------
 # B3LYP/6-311++G(d,p) empiricaldispersion=gd3bj scf=xqc pop=npa geom=c
 heck
 ----------------------------------------------------------------------

 ------------------------------------
 CID_79462230_JID_4772_Energie_kation
 ------------------------------------
 Structure from the checkpoint file:  "JID_4772.chk"
 Charge =  1 Multiplicity = 2

 SCF Done:  E(UB3LYP) =  -581.179787426     A.U. after   21 cycles
 Normal termination of Gaussian 16 at Thu Dec 10 11:32:46 2020.
 Gaussian 16:  ES64L-G16RevA.03 25-Dec-2016

 ----------------------------------------------------------------------
 # B3LYP/6-311++G(d,p) empiricaldispersion=gd3bj scf=xqc pop=npa geom=c
 heck
 ----------------------------------------------------------------------

 -----------------------------------
 CID_79462230_JID_4772_Energie_anion
 -----------------------------------
 Structure from the checkpoint file:  "JID_4772.chk"
 Charge = -1 Multiplicity = 2

                         Standard orientation:
 ---------------------------------------------------------------------
 Center     Atomic      Atomic             Coordinates (Angstroms)
 Number     Number       Type             X           Y           Z
 ---------------------------------------------------------------------
      1          6           0       -1.868192    2.429461    0.141760
      2          6           0       -2.345063    0.985747    0.305318
      3          6           0       -2.961110    0.448619   -0.995438
      4          6           0       -3.483766   -0.984474   -0.834136
      5          6           0       -2.380370   -1.924265   -0.331992
      6          6           0       -1.745709   -1.382463    0.957150
      7          6           0       -1.209288    0.049233    0.786798
      8          7           0       -0.072534    0.084367   -0.151031
      9          6           0        1.142195    0.738643    0.343974
     10          6           0        1.865297   -0.015151    1.504218
     11          6           0        2.937113   -0.849618    0.796151
     12          6           0        3.476739    0.129893   -0.266858
     13          6           0        2.196831    0.809032   -0.793761
     14          7           0        4.295763   -0.403994   -1.353240
     15          1           0       -1.458062    2.826231    1.078959
     16          1           0       -1.087909    2.486276   -0.624490
     17          1           0       -2.693508    3.082611   -0.165162
     18          1           0       -3.122572    0.963990    1.085889
     19          1           0       -3.770785    1.112674   -1.324436
     20          1           0       -2.187641    0.473233   -1.774246
     21          1           0       -3.892556   -1.352053   -1.783627
     22          1           0       -4.313750   -0.989159   -0.111972
     23          1           0       -1.614255   -2.028951   -1.113384
     24          1           0       -2.780449   -2.930488   -0.156288
     25          1           0       -0.934706   -2.040388    1.298023
     26          1           0       -2.504703   -1.379384    1.751233
     27          1           0       -0.876717    0.402942    1.774858
     28          1           0        0.164616   -0.860837   -0.444869
     29          1           0        0.848152    1.739609    0.670707
     30          1           0        2.351569    0.706907    2.173714
     31          1           0        1.171295   -0.603198    2.113512
     32          1           0        2.479600   -1.713664    0.289412
     33          1           0        3.715083   -1.236171    1.464316
     34          1           0        4.090205    0.879997    0.251873
     35          1           0        1.818310    0.251890   -1.660714
     36          1           0        2.383335    1.828728   -1.141050
     37          1           0        5.128180   -0.850339   -0.969626
     38          1           0        3.776610   -1.141008   -1.831838
 ---------------------------------------------------------------------

 SCF Done:  E(UB3LYP) =  -581.452625589     A.U. after   28 cycles

 The electronic state is 2-A.
 Alpha  occ. eigenvalues --  -14.19366 -14.19261 -10.09697 -10.09545 -10.09529
 Alpha  occ. eigenvalues --  -10.07025 -10.06727 -10.06690 -10.06641 -10.06218
 Alpha  occ. eigenvalues --  -10.06165 -10.06143 -10.06010 -10.06002  -0.81501
 Alpha  occ. eigenvalues --   -0.78923  -0.73202  -0.69666  -0.66818  -0.63599
 Alpha  occ. eigenvalues --   -0.60721  -0.58277  -0.56538  -0.51303  -0.49008
 Alpha  occ. eigenvalues --   -0.47713  -0.46965  -0.44584  -0.40187  -0.39581
 Alpha  occ. eigenvalues --   -0.38058  -0.36651  -0.35710  -0.34649  -0.34188
 Alpha  occ. eigenvalues --   -0.32141  -0.31597  -0.31517  -0.30145  -0.28830
 Alpha  occ. eigenvalues --   -0.27829  -0.27463  -0.26929  -0.25634  -0.25374
 Alpha  occ. eigenvalues --   -0.24482  -0.24201  -0.23732  -0.23264  -0.22899
 Alpha  occ. eigenvalues --   -0.21745  -0.20522  -0.19980  -0.14269  -0.12174
 Alpha  occ. eigenvalues --    0.04311
 Alpha virt. eigenvalues --    0.06002   0.06596   0.07341   0.07967   0.08132
 Alpha virt. eigenvalues --    0.08771   0.09396   0.09866   0.10225   0.10791
 Alpha virt. eigenvalues --    0.10838   0.11245   0.12185   0.12369   0.13048

  Beta  occ. eigenvalues --  -14.19333 -14.19251 -10.09693 -10.09542 -10.09518
  Beta  occ. eigenvalues --  -10.07017 -10.06709 -10.06673 -10.06626 -10.06203
  Beta  occ. eigenvalues --  -10.06156 -10.06135 -10.05998 -10.05970  -0.81482
  Beta  occ. eigenvalues --   -0.78873  -0.73175  -0.69630  -0.66791  -0.63569
  Beta  occ. eigenvalues --   -0.60683  -0.58239  -0.56493  -0.51267  -0.48962
  Beta  occ. eigenvalues --   -0.47641  -0.46933  -0.44546  -0.40144  -0.39533
  Beta  occ. eigenvalues --   -0.38020  -0.36614  -0.35677  -0.34623  -0.34155
  Beta  occ. eigenvalues --   -0.32121  -0.31563  -0.31483  -0.30124  -0.28799
  Beta  occ. eigenvalues --   -0.27796  -0.27426  -0.26896  -0.25612  -0.25350
  Beta  occ. eigenvalues --   -0.24440  -0.24175  -0.23701  -0.23233  -0.22864
  Beta  occ. eigenvalues --   -0.21718  -0.20493  -0.19957  -0.14231  -0.12160
  Beta virt. eigenvalues --    0.06285   0.06974   0.07114   0.07737   0.08403
  Beta virt. eigenvalues --    0.08594   0.09223   0.09801   0.10106   0.10559
  Beta virt. eigenvalues --    0.11025   0.11250   0.11579   0.12355   0.12590

 Mulliken charges and spin densities:
               1          2
     1  C    0.085882  -0.717039
     2  C    0.172571   0.107653
     3  C   -0.430945   0.080333
     4  C    0.355246  -0.959852
     5  C    0.060695  -0.219775
     6  C    0.270923  -0.776378
     7  C   -0.382091   0.219509
     8  N    0.192592   0.031823
     9  C   -0.200008   0.104622
    10  C    0.554640  -1.036335
    11  C   -0.762685   0.605437
    12  C    1.355717  -1.787525
    13  C   -0.739300   0.196893
    14  N   -0.447950   0.161031
    15  H   -0.052558   0.179382
    16  H    0.088443   0.059343
    17  H   -0.015174   0.159891
    18  H   -0.238732   0.411323
    19  H    0.056232   0.091711
    20  H    0.107127   0.055654
    21  H   -0.199936   0.364418
    22  H    0.095357   0.024006
    23  H   -0.159276   0.260991
    24  H   -0.453355   0.637156
    25  H   -0.025543   0.182534
    26  H   -0.205392   0.347490
    27  H    0.070043   0.119037
    28  H    0.787496  -0.545054
    29  H    0.280470  -0.115530
    30  H   -0.193942   0.337522
    31  H   -0.037700   0.200879
    32  H   -0.316540   0.458176
    33  H   -0.505195   0.679809
    34  H   -0.020383   0.196170
    35  H   -0.057102   0.207368
    36  H    0.003666   0.134384
    37  H   -0.132856   0.370445
    38  H    0.039563   0.172499
 Sum of Mulliken charges =  -1.00000   1.00000

 Dipole moment (field-independent basis, Debye):
    X=             -2.9582    Y=              3.2689    Z=             -0.4750  Tot=              4.4342
 Quadrupole moment (field-independent basis, Debye-Ang):
   XX=           -182.8475   YY=           -133.6068   ZZ=           -129.2482
   XY=              0.7597   XZ=              1.5640   YZ=              1.6104

 Summary of Natural Population Analysis:

                                       Natural Population
                Natural  -----------------------------------------------
    Atom  No    Charge         Core      Valence    Rydberg      Total
 -----------------------------------------------------------------------
      C    1   -0.28506      0.99965     2.28032    0.00509     3.28506
      C    2   -0.10980      0.99958     2.09962    0.01060     3.10980
      C    3   -0.19250      0.99961     2.18330    0.00959     3.19250
      C    4   -0.18781      0.99963     2.18005    0.00814     3.18781
      C    5   -0.19060      0.99963     2.18246    0.00852     3.19060
      C    6   -0.19290      0.99961     2.18399    0.00931     3.19290
      C    7   -0.00675      0.99956     1.99357    0.01361     3.00675
      N    8   -0.35153      0.99972     2.84048    0.01133     3.85153
      C    9   -0.00694      0.99960     1.99550    0.01184     3.00694
      C   10   -0.20081      0.99962     2.19253    0.00867     3.20081
      C   11   -0.19964      0.99961     2.18955    0.01048     3.19964
      C   12   -0.01343      0.99959     2.00155    0.01229     3.01343
      C   13   -0.19223      0.99960     2.18379    0.00884     3.19223
      N   14   -0.41915      0.99976     2.90892    0.01046     3.91915
      H   15    0.09658      0.00000     0.40251    0.00091     0.40342
      H   16    0.10290      0.00000     0.39600    0.00110     0.39710
      H   17    0.09635      0.00000     0.40282    0.00083     0.40365
      H   18    0.09202      0.00000     0.40632    0.00166     0.40798
      H   19    0.09582      0.00000     0.40333    0.00085     0.40418
      H   20    0.10098      0.00000     0.39757    0.00145     0.39902
      H   21    0.09688      0.00000     0.40221    0.00091     0.40312
      H   22    0.09151      0.00000     0.40717    0.00133     0.40849
      H   23    0.09259      0.00000     0.40599    0.00142     0.40741
      H   24    0.10011      0.00000     0.39856    0.00134     0.39989
      H   25    0.10040      0.00000     0.39835    0.00125     0.39960
      H   26    0.09827      0.00000     0.40036    0.00137     0.40173
      H   27    0.09067      0.00000     0.40737    0.00196     0.40933
      H   28    0.17279      0.00000     0.32350    0.00371     0.32721
      H   29    0.09326      0.00000     0.40504    0.00170     0.40674
      H   30    0.09589      0.00000     0.40280    0.00131     0.40411
      H   31    0.10208      0.00000     0.39686    0.00106     0.39792
      H   32    0.09156      0.00000     0.40611    0.00233     0.40844
      H   33    0.10257      0.00000     0.39526    0.00217     0.39743
      H   34    0.08650      0.00000     0.41176    0.00174     0.41350
      H   35    0.10024      0.00000     0.39846    0.00130     0.39976
      H   36    0.10308      0.00000     0.39605    0.00087     0.39692
      H   37    0.17555      0.00000     0.32231    0.00213     0.32445
      H   38    0.17054      0.00000     0.32746    0.00199     0.32946
 =======================================================================
   * Total *    0.00000     13.99477    40.82982    0.17542    55.00000

 Normal termination of Gaussian 16 at Thu Dec 10 11:46:27 2020.
