 Gaussian 16, Revision A.03,

 -----------------------------------------------------------
 # opt freq B3LYP/6-31G(d) empiricaldispersion=gd3bj scf=xqc
 -----------------------------------------------------------

 ----------------------------
 CID_148448_JID_2705_neutraal
 ----------------------------
 Symbolic Z-matrix:
 Charge =  0 Multiplicity = 1

 SCF Done:  E(RB3LYP) =  -965.476382558     A.U. after   16 cycles
 SCF Done:  E(RB3LYP) =  -965.479850883     A.U. after   14 cycles
 SCF Done:  E(RB3LYP) =  -965.479826151     A.U. after   14 cycles
 SCF Done:  E(RB3LYP) =  -965.477677979     A.U. after   15 cycles
 SCF Done:  E(RB3LYP) =  -965.477306035     A.U. after   14 cycles
 SCF Done:  E(RB3LYP) =  -965.480028071     A.U. after   10 cycles
 SCF Done:  E(RB3LYP) =  -965.480464108     A.U. after   13 cycles
 SCF Done:  E(RB3LYP) =  -965.480508576     A.U. after   12 cycles
 SCF Done:  E(RB3LYP) =  -965.480530005     A.U. after   12 cycles
 SCF Done:  E(RB3LYP) =  -965.480535758     A.U. after   11 cycles
 SCF Done:  E(RB3LYP) =  -965.480707637     A.U. after   11 cycles
 SCF Done:  E(RB3LYP) =  -965.480705929     A.U. after   10 cycles
 SCF Done:  E(RB3LYP) =  -965.480708110     A.U. after   10 cycles
 SCF Done:  E(RB3LYP) =  -965.480707916     A.U. after    9 cycles
 SCF Done:  E(RB3LYP) =  -965.480708034     A.U. after    7 cycles
 SCF Done:  E(RB3LYP) =  -965.480708184     A.U. after    8 cycles
 Optimization completed.
    -- Stationary point found.
 Normal termination of Gaussian 16 at Wed Dec  9 17:52:20 2020.

 --------------------------------------------------------------------
 #N Geom=AllCheck Guess=TCheck SCRF=Check GenChk RB3LYP/6-31G(d) Freq
 --------------------------------------------------------------------

 Structure from the checkpoint file:  "JID_2705.chk"
 ----------------------------
 CID_148448_JID_2705_neutraal
 ----------------------------
 Charge =  0 Multiplicity = 1

 SCF Done:  E(RB3LYP) =  -965.480708184     A.U. after    1 cycles

  Exact polarizability: 177.502 -10.223 117.239  -0.001  -0.002  45.660
 Approx polarizability: 286.844 -33.118 243.230  -0.002  -0.002  72.281

                      1                      2                      3
                      A                      A                      A
 Frequencies --     50.2715                72.8717                76.6409
 Red. masses --      3.7708                 1.5209                 2.9979
 Frc consts  --      0.0056                 0.0048                 0.0104
 IR Inten    --      0.0087                 0.3165                 0.2556

                      4                      5                      6
                      A                      A                      A
 Frequencies --     99.0530               109.7768               200.0135
 Red. masses --      7.2362                 8.2195                 7.9816
 Frc consts  --      0.0418                 0.0584                 0.1881
 IR Inten    --      0.0700                 0.3574                 1.9577

                      7                      8                      9
                      A                      A                      A
 Frequencies --    215.3577               285.4115               315.1779
 Red. masses --      8.9937                 4.7031                 6.6593
 Frc consts  --      0.2458                 0.2257                 0.3898
 IR Inten    --      4.2762                 0.2238                10.6908

                     10                     11                     12
                      A                      A                      A
 Frequencies --    354.4617               406.7022               409.7809
 Red. masses --      4.9258                 6.6059                 1.5692
 Frc consts  --      0.3646                 0.6438                 0.1553
 IR Inten    --      0.3544                 2.7493                79.4603

                     13                     14                     15
                      A                      A                      A
 Frequencies --    470.6725               486.8487               519.2922
 Red. masses --     12.1932                 2.6090                 7.6049
 Frc consts  --      1.5915                 0.3643                 1.2083
 IR Inten    --     13.1284                21.2264                 5.2300

                     16                     17                     18
                      A                      A                      A
 Frequencies --    543.9406               613.0218               680.5111
 Red. masses --      2.8952                 3.5725                 9.7461
 Frc consts  --      0.5047                 0.7910                 2.6592
 IR Inten    --     16.5287                 4.4163                 5.3521

                     19                     20                     21
                      A                      A                      A
 Frequencies --    730.6273               742.0514               768.4376
 Red. masses --      3.9150                 7.5872                 5.6224
 Frc consts  --      1.2313                 2.4615                 1.9561
 IR Inten    --      6.8049                24.3841                10.1400

                     22                     23                     24
                      A                      A                      A
 Frequencies --    823.1096               827.5231               924.4861
 Red. masses --     11.0464                 1.3516                 1.4139
 Frc consts  --      4.4095                 0.5453                 0.7120
 IR Inten    --     30.4929                26.5296                 0.4030

                     25                     26                     27
                      A                      A                      A
 Frequencies --    928.3051              1044.4180              1060.4057
 Red. masses --      3.8434                 3.9073                 1.5422
 Frc consts  --      1.9514                 2.5112                 1.0217
 IR Inten    --     23.5484               210.9880                70.9289

                     28                     29                     30
                      A                      A                      A
 Frequencies --   1073.1558              1089.4835              1165.8427
 Red. masses --      1.5511                 2.4714                 4.8932
 Frc consts  --      1.0525                 1.7284                 3.9185
 IR Inten    --      0.5680                36.6783                 4.6233

                     31                     32                     33
                      A                      A                      A
 Frequencies --   1253.0919              1320.3730              1373.0564
 Red. masses --      1.5219                 3.3651                 3.0971
 Frc consts  --      1.4080                 3.4565                 3.4402
 IR Inten    --      4.6321               206.7502               124.7236

                     34                     35                     36
                      A                      A                      A
 Frequencies --   1394.9373              1424.6361              1430.0766
 Red. masses --      5.1762                 1.8950                 1.2825
 Frc consts  --      5.9344                 2.2661                 1.5454
 IR Inten    --    366.5001                74.8801                12.2962

                     37                     38                     39
                      A                      A                      A
 Frequencies --   1498.4600              1518.5581              1519.0065
 Red. masses --      3.2680                 1.0446                 1.2945
 Frc consts  --      4.3233                 1.4193                 1.7598
 IR Inten    --     37.4132                12.1790                52.0791

                     40                     41                     42
                      A                      A                      A
 Frequencies --   1588.6409              1620.8323              1698.9326
 Red. masses --      5.8669                12.3064                 6.2324
 Frc consts  --      8.7240                19.0484                10.5988
 IR Inten    --     19.7429               171.2539                 5.8070

                     43                     44                     45
                      A                      A                      A
 Frequencies --   3063.5405              3117.0669              3193.2131
 Red. masses --      1.0405                 1.1010                 1.0976
 Frc consts  --      5.7534                 6.3025                 6.5937
 IR Inten    --      6.9103                 8.9634                 1.7956

                     46                     47                     48
                      A                      A                      A
 Frequencies --   3240.2962              3268.4731              3753.7707
 Red. masses --      1.0915                 1.0962                 1.0677
 Frc consts  --      6.7524                 6.8998                 8.8637
 IR Inten    --      3.9508                 0.9023               127.2631

 - Thermochemistry -
 -------------------
 Temperature   298.150 Kelvin.  Pressure   1.00000 Atm.
 Atom     1 has atomic number  6 and mass  12.00000

 Molecular mass:   186.00991 amu.
 Principal axes and moments of inertia in atomic units:
                           1         2         3
     Eigenvalues --   790.562154204.110694983.41421
           X            0.99998   0.00565   0.00000
           Y           -0.00565   0.99998  -0.00000
           Z           -0.00000   0.00000   1.00000
 This molecule is an asymmetric top.
 Rotational symmetry number  1.
 Warning -- assumption of classical behavior for rotation
           may cause significant error
 Rotational temperatures (Kelvin)      0.10956     0.02060     0.01738
 Rotational constants (GHZ):           2.28286     0.42928     0.36215
 Zero-point vibrational energy     325172.6 (Joules/Mol)
                                   77.71812 (Kcal/Mol)
 Warning -- explicit consideration of  17 degrees of freedom as
           vibrations may cause significant error
 Vibrational temperatures:     72.33   104.85   110.27   142.52   157.94
          (Kelvin)            287.77   309.85   410.64   453.47   509.99
                              585.15   589.58   677.19   700.47   747.15
                              782.61   882.00   979.10  1051.21  1067.65
                             1105.61  1184.27  1190.62  1330.13  1335.62
                             1502.68  1525.69  1544.03  1567.52  1677.39
                             1802.92  1899.72  1975.52  2007.00  2049.73
                             2057.56  2155.95  2184.87  2185.51  2285.70
                             2332.02  2444.39  4407.75  4484.76  4594.32
                             4662.06  4702.60  5400.84

 Zero-point correction=                           0.123852 (Hartree/Particle)
 Thermal correction to Energy=                    0.135330
 Thermal correction to Enthalpy=                  0.136274
 Thermal correction to Gibbs Free Energy=         0.085152
 Sum of electronic and zero-point Energies=           -965.356856
 Sum of electronic and thermal Energies=              -965.345379
 Sum of electronic and thermal Enthalpies=            -965.344434
 Sum of electronic and thermal Free Energies=         -965.395556

                     E (Thermal)             CV                S
                      KCal/Mol        Cal/Mol-Kelvin    Cal/Mol-Kelvin
 Total                   84.921             40.990            107.594
 Electronic               0.000              0.000              0.000
 Translational            0.889              2.981             41.568
 Rotational               0.889              2.981             31.183
 Vibrational             83.143             35.028             34.844
 Vibration     1          0.595              1.977              4.807
 Vibration     2          0.599              1.967              4.074
 Vibration     3          0.599              1.965              3.975
 Vibration     4          0.604              1.950              3.473
 Vibration     5          0.606              1.941              3.273
 Vibration     6          0.638              1.840              2.133
 Vibration     7          0.645              1.818              1.998
 Vibration     8          0.683              1.701              1.501
 Vibration     9          0.703              1.645              1.335
 Vibration    10          0.730              1.566              1.146
 Vibration    11          0.771              1.456              0.938
 Vibration    12          0.774              1.449              0.927
 Vibration    13          0.828              1.315              0.736
 Vibration    14          0.843              1.279              0.692
 Vibration    15          0.874              1.207              0.612
 Vibration    16          0.899              1.153              0.557
 Vibration    17          0.972              1.004              0.428

 Optimization completed.
    -- Stationary point found.
 Normal termination of Gaussian 16 at Wed Dec  9 17:55:54 2020.

 ----------------------------------------------------------------------
 # B3LYP/6-311++G(d,p) empiricaldispersion=gd3bj scf=xqc pop=npa geom=c
 heck
 ----------------------------------------------------------------------

 ------------------------------------
 CID_148448_JID_2705_Energie_neutraal
 ------------------------------------
 Structure from the checkpoint file:  "JID_2705.chk"
 Charge =  0 Multiplicity = 1

 SCF Done:  E(RB3LYP) =  -965.677661054     A.U. after   16 cycles
 Normal termination of Gaussian 16 at Wed Dec  9 17:57:24 2020.

 ----------------------------------------------------------------------
 # B3LYP/6-311++G(d,p) empiricaldispersion=gd3bj scf=xqc pop=npa geom=c
 heck
 ----------------------------------------------------------------------

 ----------------------------------
 CID_148448_JID_2705_Energie_kation
 ----------------------------------
 Structure from the checkpoint file:  "JID_2705.chk"
 Charge =  1 Multiplicity = 2

 SCF Done:  E(UB3LYP) =  -965.355112571     A.U. after   28 cycles
 Normal termination of Gaussian 16 at Wed Dec  9 18:00:39 2020.
 Gaussian 16:  ES64L-G16RevA.03 25-Dec-2016

 ----------------------------------------------------------------------
 # B3LYP/6-311++G(d,p) empiricaldispersion=gd3bj scf=xqc pop=npa geom=c
 heck
 ----------------------------------------------------------------------

 ---------------------------------
 CID_148448_JID_2705_Energie_anion
 ---------------------------------
 Structure from the checkpoint file:  "JID_2705.chk"
 Charge = -1 Multiplicity = 2

                         Standard orientation:
 ---------------------------------------------------------------------
 Center     Atomic      Atomic             Coordinates (Angstroms)
 Number     Number       Type             X           Y           Z
 ---------------------------------------------------------------------
      1          6           0        3.146240    1.411873    0.000010
      2          6           0        2.226918    0.220641    0.000038
      3          7           0        2.594865   -1.015349    0.000022
      4          8           0        3.977173   -1.174499   -0.000110
      5          6           0        0.782923    0.440386    0.000029
      6          6           0        0.124102    1.657511    0.000042
      7          6           0       -1.284785    1.527474   -0.000086
      8          6           0       -1.659729    0.207896    0.000012
      9         16           0       -0.328323   -0.907735    0.000077
     10          7           0       -3.003750   -0.285493   -0.000019
     11          8           0       -3.153025   -1.512187   -0.000055
     12          8           0       -3.915312    0.544748   -0.000003
     13          1           0        4.187379    1.092920    0.000905
     14          1           0        2.963870    2.033206    0.883877
     15          1           0        2.965094    2.032227   -0.884809
     16          1           0        4.073157   -2.140030   -0.000009
     17          1           0        0.638536    2.610620    0.000026
     18          1           0       -1.997376    2.341529   -0.000158
 ---------------------------------------------------------------------

 SCF Done:  E(UB3LYP) =  -965.732413261     A.U. after   21 cycles

 The electronic state is 2-A.
 Alpha  occ. eigenvalues --  -88.73135 -19.05376 -18.96107 -18.96059 -14.34773
 Alpha  occ. eigenvalues --  -14.22562 -10.09300 -10.08004 -10.06936 -10.06393
 Alpha  occ. eigenvalues --  -10.04761 -10.03842  -7.81732  -5.78040  -5.77676
 Alpha  occ. eigenvalues --   -5.77313  -1.04065  -0.97619  -0.86925  -0.76947
 Alpha  occ. eigenvalues --   -0.73609  -0.63947  -0.61902  -0.60217  -0.53918
 Alpha  occ. eigenvalues --   -0.47670  -0.41087  -0.39691  -0.38704  -0.37949
 Alpha  occ. eigenvalues --   -0.36233  -0.35723  -0.33543  -0.33206  -0.31065
 Alpha  occ. eigenvalues --   -0.28836  -0.28510  -0.26618  -0.25253  -0.24699
 Alpha  occ. eigenvalues --   -0.21519  -0.16700  -0.16108  -0.14877  -0.13647
 Alpha  occ. eigenvalues --   -0.12313  -0.11658  -0.09762   0.00929
 Alpha virt. eigenvalues --    0.07393   0.08740   0.09223   0.10501   0.12015
 Alpha virt. eigenvalues --    0.12462   0.13641   0.15346   0.15777   0.15861
 Alpha virt. eigenvalues --    0.16501   0.17744   0.17924   0.18533   0.19004

  Beta  occ. eigenvalues --  -88.73083 -19.05303 -18.95719 -18.95659 -14.34342
  Beta  occ. eigenvalues --  -14.22175 -10.09335 -10.07903 -10.06937 -10.06116
  Beta  occ. eigenvalues --  -10.04831 -10.03703  -7.81686  -5.78018  -5.77655
  Beta  occ. eigenvalues --   -5.77139  -1.03268  -0.97329  -0.86188  -0.76631
  Beta  occ. eigenvalues --   -0.73336  -0.63450  -0.61587  -0.59906  -0.53271
  Beta  occ. eigenvalues --   -0.47485  -0.40837  -0.39236  -0.38393  -0.37755
  Beta  occ. eigenvalues --   -0.35499  -0.33956  -0.33176  -0.32632  -0.30983
  Beta  occ. eigenvalues --   -0.28431  -0.28114  -0.26470  -0.25117  -0.23873
  Beta  occ. eigenvalues --   -0.21258  -0.15710  -0.15708  -0.13251  -0.12437
  Beta  occ. eigenvalues --   -0.11267  -0.11230  -0.08173
  Beta virt. eigenvalues --    0.06845   0.07385   0.08720   0.10479   0.11028
  Beta virt. eigenvalues --    0.12441   0.12570   0.13623   0.15329   0.15783
  Beta virt. eigenvalues --    0.16578   0.16650   0.17787   0.18579   0.18770

 Mulliken charges and spin densities:
               1          2
     1  C   -0.630885   0.001969
     2  C   -0.770664  -0.063428
     3  N   -0.448380   0.179448
     4  O   -0.013991   0.015708
     5  C    1.117518   0.161755
     6  C    0.110640  -0.019879
     7  C    0.121784   0.178134
     8  C   -0.464511  -0.002652
     9  S   -0.445790   0.107329
    10  N   -0.260081   0.147942
    11  O   -0.210774   0.146114
    12  O   -0.129158   0.151505
    13  H    0.159257  -0.000825
    14  H    0.137079   0.001128
    15  H    0.137148   0.001142
    16  H    0.272398  -0.000662
    17  H    0.119019   0.003674
    18  H    0.199391  -0.008402
 Sum of Mulliken charges =  -1.00000   1.00000

 Dipole moment (field-independent basis, Debye):
    X=              8.6387    Y=              2.3791    Z=              0.0002  Tot=              8.9604
 Quadrupole moment (field-independent basis, Debye-Ang):
   XX=           -131.2646   YY=            -83.3990   ZZ=            -82.2853
   XY=             -5.3798   XZ=              0.0008   YZ=             -0.0005

 Summary of Natural Population Analysis:

                                       Natural Population
                Natural  -----------------------------------------------
    Atom  No    Charge         Core      Valence    Rydberg      Total
 -----------------------------------------------------------------------
      C    1   -0.31332      0.99963     2.30880    0.00489     3.31332
      C    2    0.07583      0.99955     1.90849    0.01613     2.92417
      N    3   -0.03108      0.99959     2.51683    0.01466     3.53108
      O    4   -0.29037      0.99989     3.28248    0.00801     4.29037
      C    5   -0.06541      0.99945     2.05337    0.01258     3.06541
      C    6   -0.14768      0.99951     2.13911    0.00907     3.14768
      C    7   -0.09728      0.99949     2.08644    0.01135     3.09728
      C    8   -0.02349      0.99942     2.00924    0.01483     3.02349
      S    9    0.25377      4.99940     2.72395    0.02288     7.74623
      N   10    0.27289      0.99966     2.19934    0.02811     3.22711
      O   11   -0.19632      0.99990     3.18871    0.00771     4.19632
      O   12   -0.19594      0.99990     3.18836    0.00768     4.19594
      H   13    0.11156      0.00000     0.38751    0.00092     0.38844
      H   14    0.10390      0.00000     0.39485    0.00125     0.39610
      H   15    0.10391      0.00000     0.39484    0.00125     0.39609
      H   16    0.23013      0.00000     0.26730    0.00257     0.26987
      H   17    0.09828      0.00000     0.40067    0.00105     0.40172
      H   18    0.11062      0.00000     0.38806    0.00132     0.38938
 =======================================================================
   * Total *    0.00000     15.99540    31.83833    0.16627    48.00000

 Normal termination of Gaussian 16 at Wed Dec  9 18:02:49 2020.
