 Gaussian 16, Revision A.03,

 -----------------------------------------------------------
 # opt freq B3LYP/6-31G(d) empiricaldispersion=gd3bj scf=xqc
 -----------------------------------------------------------

 ------------------------------
 CID_91802449_JID_1470_neutraal
 ------------------------------
 Symbolic Z-matrix:
 Charge =  0 Multiplicity = 1

 SCF Done:  E(RB3LYP) =  -875.581299971     A.U. after   15 cycles
 SCF Done:  E(RB3LYP) =  -875.584485755     A.U. after   12 cycles
 SCF Done:  E(RB3LYP) =  -875.585031655     A.U. after   12 cycles
 SCF Done:  E(RB3LYP) =  -875.585485767     A.U. after   13 cycles
 SCF Done:  E(RB3LYP) =  -875.585340516     A.U. after   15 cycles
 SCF Done:  E(RB3LYP) =  -875.586108336     A.U. after   12 cycles
 SCF Done:  E(RB3LYP) =  -875.586429512     A.U. after   12 cycles
 SCF Done:  E(RB3LYP) =  -875.586570985     A.U. after   12 cycles
 SCF Done:  E(RB3LYP) =  -875.586624428     A.U. after   11 cycles
 SCF Done:  E(RB3LYP) =  -875.586696959     A.U. after   12 cycles
 SCF Done:  E(RB3LYP) =  -875.586746271     A.U. after    9 cycles
 SCF Done:  E(RB3LYP) =  -875.586746812     A.U. after    9 cycles
 SCF Done:  E(RB3LYP) =  -875.586747720     A.U. after   10 cycles
 SCF Done:  E(RB3LYP) =  -875.586747978     A.U. after    9 cycles
 SCF Done:  E(RB3LYP) =  -875.586748040     A.U. after    7 cycles
 Optimization completed.
    -- Stationary point found.
 Normal termination of Gaussian 16 at Tue Dec  8 20:08:30 2020.

 --------------------------------------------------------------------
 #N Geom=AllCheck Guess=TCheck SCRF=Check GenChk RB3LYP/6-31G(d) Freq
 --------------------------------------------------------------------

 Structure from the checkpoint file:  "JID_1470.chk"
 ------------------------------
 CID_91802449_JID_1470_neutraal
 ------------------------------
 Charge =  0 Multiplicity = 1

 SCF Done:  E(RB3LYP) =  -875.586748040     A.U. after    1 cycles

  Exact polarizability: 122.395   5.424  91.766  -1.080   9.302  75.792
 Approx polarizability: 164.819   4.950 163.631  -5.356  24.834 125.803

                      1                      2                      3
                      A                      A                      A
 Frequencies --     19.7417                24.2570                41.8451
 Red. masses --      2.9876                 3.9012                12.3869
 Frc consts  --      0.0007                 0.0014                 0.0128
 IR Inten    --      0.2899                 0.5367                 1.4531

                      4                      5                      6
                      A                      A                      A
 Frequencies --    127.9132               145.5791               203.0042
 Red. masses --      4.2738                 3.4410                 5.2280
 Frc consts  --      0.0412                 0.0430                 0.1269
 IR Inten    --      1.8141                 2.1461                 0.6950

                      7                      8                      9
                      A                      A                      A
 Frequencies --    213.0529               277.1012               326.9344
 Red. masses --      1.4190                 1.9423                 2.8881
 Frc consts  --      0.0379                 0.0879                 0.1819
 IR Inten    --      0.3080                 2.7136                21.1212

                     10                     11                     12
                      A                      A                      A
 Frequencies --    331.9959               348.7835               440.0200
 Red. masses --      3.7005                 3.1216                 5.7023
 Frc consts  --      0.2403                 0.2237                 0.6505
 IR Inten    --      4.4398                11.4784                 4.4799

                     13                     14                     15
                      A                      A                      A
 Frequencies --    547.6045               595.0688               634.0775
 Red. masses --      6.2119                 4.3516                 4.9527
 Frc consts  --      1.0975                 0.9079                 1.1732
 IR Inten    --      2.1721                 0.3999                12.2984

                     16                     17                     18
                      A                      A                      A
 Frequencies --    660.0560               683.7678               752.6634
 Red. masses --      5.2650                 5.0913                 1.3997
 Frc consts  --      1.3515                 1.4025                 0.4672
 IR Inten    --      4.7235                12.6465                14.4115

                     19                     20                     21
                      A                      A                      A
 Frequencies --    772.6477               809.3325               869.6151
 Red. masses --      3.1919                 1.2801                 3.9362
 Frc consts  --      1.1227                 0.4940                 1.7538
 IR Inten    --     17.8498                 0.8286                 2.6503

                     22                     23                     24
                      A                      A                      A
 Frequencies --    950.0744               969.1388              1001.0501
 Red. masses --      3.3743                 3.1686                 3.7152
 Frc consts  --      1.7945                 1.7534                 2.1936
 IR Inten    --     20.9375                 4.9393                19.4439

                     25                     26                     27
                      A                      A                      A
 Frequencies --   1034.9338              1056.9847              1071.2353
 Red. masses --      1.6529                 2.0012                 2.3393
 Frc consts  --      1.0431                 1.3173                 1.5817
 IR Inten    --      1.3850                 6.4385                19.1121

                     28                     29                     30
                      A                      A                      A
 Frequencies --   1099.9387              1160.8284              1197.1092
 Red. masses --      1.7137                 1.5435                 3.9911
 Frc consts  --      1.2216                 1.2254                 3.3698
 IR Inten    --     12.7200                34.6490               255.7408

                     31                     32                     33
                      A                      A                      A
 Frequencies --   1205.0600              1295.3099              1307.9277
 Red. masses --      2.6358                 1.4383                 1.2771
 Frc consts  --      2.2552                 1.4218                 1.2871
 IR Inten    --    120.4330                29.1024                21.5612

                     34                     35                     36
                      A                      A                      A
 Frequencies --   1327.8019              1369.7679              1418.1479
 Red. masses --      1.9633                 1.4996                 1.1722
 Frc consts  --      2.0394                 1.6578                 1.3890
 IR Inten    --     15.3702                 3.5944                 1.5897

                     37                     38                     39
                      A                      A                      A
 Frequencies --   1430.8156              1434.6556              1504.0041
 Red. masses --      1.5984                 1.2530                 1.1229
 Frc consts  --      1.9280                 1.5194                 1.4965
 IR Inten    --      2.9213                 3.6123                 8.4438

                     40                     41                     42
                      A                      A                      A
 Frequencies --   1507.4271              1525.1314              1533.7850
 Red. masses --      1.0777                 1.0398                 1.1436
 Frc consts  --      1.4428                 1.4251                 1.5851
 IR Inten    --      2.7619                 8.4864                 5.7351

                     43                     44                     45
                      A                      A                      A
 Frequencies --   1556.3260              1594.4714              1837.6946
 Red. masses --      5.2808                 6.9749                 9.0265
 Frc consts  --      7.5362                10.4477                17.9604
 IR Inten    --     21.3064                31.4718               249.9112

                     46                     47                     48
                      A                      A                      A
 Frequencies --   3057.4331              3064.6140              3070.7006
 Red. masses --      1.0347                 1.0613                 1.0916
 Frc consts  --      5.6986                 5.8725                 6.0643
 IR Inten    --     26.4782                18.4121                70.4549

                     49                     50                     51
                      A                      A                      A
 Frequencies --   3091.4518              3108.4066              3129.2046
 Red. masses --      1.0585                 1.1027                 1.1028
 Frc consts  --      5.9605                 6.2775                 6.3621
 IR Inten    --     16.4801                 1.9141                34.7694

                     52                     53                     54
                      A                      A                      A
 Frequencies --   3140.2533              3143.5988              3291.9284
 Red. masses --      1.1041                 1.1074                 1.0944
 Frc consts  --      6.4147                 6.4478                 6.9878
 IR Inten    --     23.9426                 3.9900                 1.4987

 - Thermochemistry -
 -------------------
 Temperature   298.150 Kelvin.  Pressure   1.00000 Atm.
 Atom     1 has atomic number  6 and mass  12.00000

 Molecular mass:   171.03540 amu.
 Principal axes and moments of inertia in atomic units:
                           1         2         3
     Eigenvalues --   922.142503614.123233872.15843
           X            0.99963   0.02617  -0.00768
           Y           -0.02617   0.99966   0.00012
           Z            0.00768   0.00008   0.99997
 This molecule is an asymmetric top.
 Rotational symmetry number  1.
 Warning -- assumption of classical behavior for rotation
           may cause significant error
 Rotational temperatures (Kelvin)      0.09393     0.02397     0.02237
 Rotational constants (GHZ):           1.95712     0.49936     0.46608
 Zero-point vibrational energy     408598.1 (Joules/Mol)
                                   97.65730 (Kcal/Mol)
 Warning -- explicit consideration of  14 degrees of freedom as
           vibrations may cause significant error
 Vibrational temperatures:     28.40    34.90    60.21   184.04   209.46
          (Kelvin)            292.08   306.54   398.69   470.39   477.67
                              501.82   633.09   787.88   856.17   912.30
                              949.67   983.79  1082.91  1111.67  1164.45
                             1251.18  1366.95  1394.37  1440.29  1489.04
                             1520.77  1541.27  1582.57  1670.17  1722.37
                             1733.81  1863.66  1881.82  1910.41  1970.79
                             2040.40  2058.62  2064.15  2163.93  2168.85
                             2194.32  2206.77  2239.21  2294.09  2644.03
                             4398.96  4409.30  4418.05  4447.91  4472.30
                             4502.23  4518.12  4522.94  4736.35

 Zero-point correction=                           0.155627 (Hartree/Particle)
 Thermal correction to Energy=                    0.166824
 Thermal correction to Enthalpy=                  0.167769
 Thermal correction to Gibbs Free Energy=         0.115455
 Sum of electronic and zero-point Energies=           -875.431121
 Sum of electronic and thermal Energies=              -875.419924
 Sum of electronic and thermal Enthalpies=            -875.418980
 Sum of electronic and thermal Free Energies=         -875.471293

                     E (Thermal)             CV                S
                      KCal/Mol        Cal/Mol-Kelvin    Cal/Mol-Kelvin
 Total                  104.684             39.199            110.104
 Electronic               0.000              0.000              0.000
 Translational            0.889              2.981             41.318
 Rotational               0.889              2.981             30.935
 Vibrational            102.906             33.237             37.851
 Vibration     1          0.593              1.986              6.660
 Vibration     2          0.593              1.985              6.251
 Vibration     3          0.594              1.980              5.170
 Vibration     4          0.611              1.925              2.977
 Vibration     5          0.617              1.907              2.729
 Vibration     6          0.639              1.836              2.106
 Vibration     7          0.644              1.821              2.017
 Vibration     8          0.678              1.716              1.551
 Vibration     9          0.711              1.622              1.275
 Vibration    10          0.714              1.612              1.250
 Vibration    11          0.726              1.578              1.172
 Vibration    12          0.800              1.383              0.827
 Vibration    13          0.903              1.145              0.549
 Vibration    14          0.953              1.042              0.458

                           ! Non-Optimized Parameters !
 Normal termination of Gaussian 16 at Tue Dec  8 20:12:03 2020.

 ----------------------------------------------------------------------
 # B3LYP/6-311++G(d,p) empiricaldispersion=gd3bj scf=xqc pop=npa geom=c
 heck
 ----------------------------------------------------------------------

 --------------------------------------
 CID_91802449_JID_1470_Energie_neutraal
 --------------------------------------
 Structure from the checkpoint file:  "JID_1470.chk"
 Charge =  0 Multiplicity = 1

 SCF Done:  E(RB3LYP) =  -875.750859610     A.U. after   15 cycles
 Normal termination of Gaussian 16 at Tue Dec  8 20:13:58 2020.

 ----------------------------------------------------------------------
 # B3LYP/6-311++G(d,p) empiricaldispersion=gd3bj scf=xqc pop=npa geom=c
 heck
 ----------------------------------------------------------------------

 ------------------------------------
 CID_91802449_JID_1470_Energie_kation
 ------------------------------------
 Structure from the checkpoint file:  "JID_1470.chk"
 Charge =  1 Multiplicity = 2

 SCF Done:  E(UB3LYP) =  -875.428133087     A.U. after   23 cycles
 Normal termination of Gaussian 16 at Tue Dec  8 20:18:35 2020.
 Gaussian 16:  ES64L-G16RevA.03 25-Dec-2016

 ----------------------------------------------------------------------
 # B3LYP/6-311++G(d,p) empiricaldispersion=gd3bj scf=xqc pop=npa geom=c
 heck
 ----------------------------------------------------------------------

 -----------------------------------
 CID_91802449_JID_1470_Energie_anion
 -----------------------------------
 Structure from the checkpoint file:  "JID_1470.chk"
 Charge = -1 Multiplicity = 2

                         Standard orientation:
 ---------------------------------------------------------------------
 Center     Atomic      Atomic             Coordinates (Angstroms)
 Number     Number       Type             X           Y           Z
 ---------------------------------------------------------------------
      1          6           0        3.457176    1.381284   -0.790389
      2          6           0        3.109131    0.532945    0.444731
      3          6           0        1.710714   -0.005025    0.383370
      4          7           0        0.663807    0.615475    0.847629
      5          6           0       -0.497731   -0.079387    0.582366
      6          6           0       -0.344847   -1.253669   -0.094749
      7         16           0        1.335329   -1.520667   -0.435447
      8          6           0       -1.787940    0.507593    1.077272
      9          8           0       -2.924556   -0.228843    0.582765
     10          6           0       -3.437300    0.191839   -0.591131
     11          8           0       -3.049358    1.122737   -1.249102
     12          1           0        3.400484    0.783255   -1.706079
     13          1           0        4.471976    1.784322   -0.705961
     14          1           0        2.757810    2.217305   -0.886994
     15          1           0        3.823416   -0.292175    0.545970
     16          1           0        3.181668    1.144644    1.349746
     17          1           0       -1.106291   -1.959253   -0.391279
     18          1           0       -1.855187    0.441659    2.166663
     19          1           0       -1.863249    1.555094    0.776512
     20          1           0       -4.286443   -0.457136   -0.852954
 ---------------------------------------------------------------------

 SCF Done:  E(UB3LYP) =  -875.736875667     A.U. after   33 cycles
 SCF Done:  E(UB3LYP) =  -875.737605510     a.u. after    6 cycles

 The electronic state is 2-A.
 Alpha  occ. eigenvalues --  -88.75631 -19.08185 -19.02771 -14.18922 -10.20767
 Alpha  occ. eigenvalues --  -10.13689 -10.10754 -10.09391 -10.07624 -10.06666
 Alpha  occ. eigenvalues --  -10.05135  -7.84289  -5.80563  -5.80217  -5.79902
 Alpha  occ. eigenvalues --   -1.01852  -0.93740  -0.84548  -0.69048  -0.67735
 Alpha  occ. eigenvalues --   -0.65587  -0.59215  -0.52519  -0.51415  -0.45497
 Alpha  occ. eigenvalues --   -0.43815  -0.42544  -0.39279  -0.38515  -0.35149
 Alpha  occ. eigenvalues --   -0.34341  -0.33814  -0.31987  -0.29709  -0.29107
 Alpha  occ. eigenvalues --   -0.27423  -0.25690  -0.25075  -0.24930  -0.23665
 Alpha  occ. eigenvalues --   -0.21908  -0.19863  -0.16664  -0.16023  -0.12569
 Alpha  occ. eigenvalues --    0.04945
 Alpha virt. eigenvalues --    0.06424   0.07733   0.08334   0.08902   0.09467
 Alpha virt. eigenvalues --    0.09805   0.10450   0.11083   0.11867   0.13143
 Alpha virt. eigenvalues --    0.13655   0.14129   0.14285   0.14600   0.15209

  Beta  occ. eigenvalues --  -88.75603 -19.08179 -19.02751 -14.18865 -10.20724
  Beta  occ. eigenvalues --  -10.13686 -10.10511 -10.09396 -10.07488 -10.06667
  Beta  occ. eigenvalues --  -10.05075  -7.84262  -5.80553  -5.80206  -5.79807
  Beta  occ. eigenvalues --   -1.01821  -0.93709  -0.84343  -0.68882  -0.67547
  Beta  occ. eigenvalues --   -0.65517  -0.59041  -0.52389  -0.51282  -0.45351
  Beta  occ. eigenvalues --   -0.43757  -0.42361  -0.39197  -0.38453  -0.35042
  Beta  occ. eigenvalues --   -0.34237  -0.33695  -0.31798  -0.29543  -0.28842
  Beta  occ. eigenvalues --   -0.27352  -0.25509  -0.24904  -0.24773  -0.23608
  Beta  occ. eigenvalues --   -0.21839  -0.19829  -0.16133  -0.15885  -0.11815
  Beta virt. eigenvalues --    0.07500   0.08014   0.08166   0.09005   0.09557
  Beta virt. eigenvalues --    0.09851   0.10318   0.10860   0.11158   0.12272
  Beta virt. eigenvalues --    0.13291   0.13621   0.14234   0.14455   0.14717

 Mulliken charges and spin densities:
               1          2
     1  C    0.594743  -1.014096
     2  C   -0.426082   0.549520
     3  C    0.442304  -0.140685
     4  N    0.057797   0.060801
     5  C   -0.589161  -0.589476
     6  C    0.087206   0.792394
     7  S    0.035734  -0.545412
     8  C    0.090957  -0.702455
     9  O   -0.040916   0.023352
    10  C    0.661956  -0.604678
    11  O   -0.289425   0.018570
    12  H   -0.021224   0.142674
    13  H   -0.784841   0.942052
    14  H    0.130379   0.005634
    15  H   -0.368040   0.516992
    16  H   -0.128190   0.291296
    17  H   -0.163898   0.430174
    18  H    0.162985   0.025000
    19  H    0.227335  -0.013890
    20  H   -0.679617   0.812234
 Sum of Mulliken charges =  -1.00000   1.00000

 Dipole moment (field-independent basis, Debye):
    X=             -4.3237    Y=             -0.9015    Z=              2.1202  Tot=              4.8992
 Quadrupole moment (field-independent basis, Debye-Ang):
   XX=           -161.3947   YY=           -100.5890   ZZ=            -93.2309
   XY=            -14.4223   XZ=             -9.4921   YZ=              1.2508

 Summary of Natural Population Analysis:

                                       Natural Population
                Natural  -----------------------------------------------
    Atom  No    Charge         Core      Valence    Rydberg      Total
 -----------------------------------------------------------------------
      C    1   -0.27695      0.99966     2.27187    0.00542     3.27695
      C    2   -0.21769      0.99958     2.20668    0.01142     3.21769
      C    3    0.08836      0.99961     1.89362    0.01841     2.91164
      N    4   -0.25195      0.99962     2.74151    0.01082     3.75195
      C    5    0.04156      0.99947     1.94672    0.01224     2.95844
      C    6   -0.19098      0.99946     2.18159    0.00994     3.19098
      S    7    0.18374      4.99943     2.79705    0.01978     7.81626
      C    8   -0.02186      0.99951     2.01049    0.01186     3.02186
      O    9   -0.27678      0.99988     3.26802    0.00888     4.27678
      C   10    0.33693      0.99977     1.63696    0.02634     2.66307
      O   11   -0.29221      0.99988     3.28582    0.00651     4.29221
      H   12    0.09573      0.00000     0.40326    0.00100     0.40427
      H   13    0.10135      0.00000     0.39483    0.00382     0.39865
      H   14    0.09837      0.00000     0.40056    0.00107     0.40163
      H   15    0.10483      0.00000     0.39257    0.00260     0.39517
      H   16    0.10912      0.00000     0.38904    0.00184     0.39088
      H   17    0.11153      0.00000     0.38693    0.00154     0.38847
      H   18    0.09564      0.00000     0.40297    0.00139     0.40436
      H   19    0.10331      0.00000     0.39501    0.00167     0.39669
      H   20    0.05795      0.00000     0.43806    0.00399     0.44205
 =======================================================================
   * Total *    0.00000     14.99586    29.84358    0.16056    45.00000

 Normal termination of Gaussian 16 at Tue Dec  8 20:53:09 2020.
