 Gaussian 16, Revision A.03,

 -----------------------------------------------------------
 # opt freq B3LYP/6-31G(d) empiricaldispersion=gd3bj scf=xqc
 -----------------------------------------------------------

 -------------------------------
 CID_143069351_JID_7205_neutraal
 -------------------------------
 Symbolic Z-matrix:
 Charge =  0 Multiplicity = 1

 SCF Done:  E(RB3LYP) =  -770.069234011     A.U. after   15 cycles
 SCF Done:  E(RB3LYP) =  -770.073750676     A.U. after   13 cycles
 SCF Done:  E(RB3LYP) =  -770.072165544     A.U. after   15 cycles
 SCF Done:  E(RB3LYP) =  -770.074290334     A.U. after   12 cycles
 SCF Done:  E(RB3LYP) =  -770.074745508     A.U. after   12 cycles
 SCF Done:  E(RB3LYP) =  -770.075062823     A.U. after   12 cycles
 SCF Done:  E(RB3LYP) =  -770.075700629     A.U. after   12 cycles
 SCF Done:  E(RB3LYP) =  -770.075898421     A.U. after   13 cycles
 SCF Done:  E(RB3LYP) =  -770.076805104     A.U. after   13 cycles
 SCF Done:  E(RB3LYP) =  -770.077072868     A.U. after   12 cycles
 SCF Done:  E(RB3LYP) =  -770.078432390     A.U. after   10 cycles
 SCF Done:  E(RB3LYP) =  -770.078436264     A.U. after    9 cycles
 SCF Done:  E(RB3LYP) =  -770.078436990     A.U. after    8 cycles
 SCF Done:  E(RB3LYP) =  -770.078437051     A.U. after    7 cycles
 SCF Done:  E(RB3LYP) =  -770.078437070     A.U. after    7 cycles
 Optimization completed.
    -- Stationary point found.
 Normal termination of Gaussian 16 at Fri Dec 11 12:19:36 2020.

 --------------------------------------------------------------------
 #N Geom=AllCheck Guess=TCheck SCRF=Check GenChk RB3LYP/6-31G(d) Freq
 --------------------------------------------------------------------

 Structure from the checkpoint file:  "JID_7205.chk"
 -------------------------------
 CID_143069351_JID_7205_neutraal
 -------------------------------
 Charge =  0 Multiplicity = 1

 SCF Done:  E(RB3LYP) =  -770.078437070     A.U. after    1 cycles

  Exact polarizability: 184.445   8.774 146.015  -8.386   8.828 123.331
 Approx polarizability: 251.132   9.754 229.122  -2.782  24.690 194.385

                      1                      2                      3
                      A                      A                      A
 Frequencies --     32.1731                34.2765                49.4050
 Red. masses --      1.3911                 2.1316                 4.3657
 Frc consts  --      0.0008                 0.0015                 0.0063
 IR Inten    --      0.2087                 0.2150                 0.7152

                      4                      5                      6
                      A                      A                      A
 Frequencies --     51.6694                69.9391                75.3035
 Red. masses --      4.7835                 5.0362                 4.8191
 Frc consts  --      0.0075                 0.0145                 0.0161
 IR Inten    --      0.2521                 1.5228                 0.8064

                      7                      8                      9
                      A                      A                      A
 Frequencies --     85.9103               130.9468               161.6406
 Red. masses --      5.2683                 1.0358                 3.2183
 Frc consts  --      0.0229                 0.0105                 0.0495
 IR Inten    --      0.1839                 0.2395                 2.1257

                     10                     11                     12
                      A                      A                      A
 Frequencies --    171.5986               193.7653               199.7321
 Red. masses --      1.0518                 3.5263                 3.2312
 Frc consts  --      0.0182                 0.0780                 0.0759
 IR Inten    --      0.0990                 0.9721                 0.3704

                     13                     14                     15
                      A                      A                      A
 Frequencies --    218.2606               237.7812               274.7754
 Red. masses --      3.5951                 2.9358                 2.5338
 Frc consts  --      0.1009                 0.0978                 0.1127
 IR Inten    --      1.1283                 0.0509                 0.9919

                     16                     17                     18
                      A                      A                      A
 Frequencies --    285.0658               325.8273               368.5486
 Red. masses --      2.6827                 4.0134                 2.9155
 Frc consts  --      0.1284                 0.2510                 0.2333
 IR Inten    --      2.2906                 4.7020                 1.5055

                     19                     20                     21
                      A                      A                      A
 Frequencies --    387.7479               427.4117               466.9467
 Red. masses --      3.7129                 3.7725                 2.2498
 Frc consts  --      0.3289                 0.4060                 0.2890
 IR Inten    --      0.3933                 4.1556                 3.1384

                     22                     23                     24
                      A                      A                      A
 Frequencies --    506.4113               523.5624               531.8316
 Red. masses --      3.6302                 3.2463                 3.3022
 Frc consts  --      0.5485                 0.5243                 0.5503
 IR Inten    --      1.4948                 0.0562                 2.0432

                     25                     26                     27
                      A                      A                      A
 Frequencies --    548.8942               583.5712               587.2630
 Red. masses --      2.7190                 4.0872                 4.1614
 Frc consts  --      0.4827                 0.8201                 0.8456
 IR Inten    --     32.8713                 1.0544                 1.0558

                     28                     29                     30
                      A                      A                      A
 Frequencies --    599.8552               615.0415               659.2866
 Red. masses --      3.1618                 2.6028                 2.2451
 Frc consts  --      0.6703                 0.5801                 0.5750
 IR Inten    --      2.4085                22.7858                34.3398

                     31                     32                     33
                      A                      A                      A
 Frequencies --    718.3636               727.8979               741.2934
 Red. masses --      1.9524                 4.0693                 1.1473
 Frc consts  --      0.5936                 1.2703                 0.3715
 IR Inten    --    102.7693                 4.9044                 0.5010

                     34                     35                     36
                      A                      A                      A
 Frequencies --    798.0526               832.3227               839.8798
 Red. masses --      3.6110                 3.4946                 1.4064
 Frc consts  --      1.3550                 1.4264                 0.5845
 IR Inten    --      4.0006                 3.7666                44.2058

                     37                     38                     39
                      A                      A                      A
 Frequencies --    854.5574               875.9856               894.8452
 Red. masses --      2.4438                 1.3258                 1.3007
 Frc consts  --      1.0515                 0.5994                 0.6137
 IR Inten    --      4.1183                17.4114                 0.0139

                     40                     41                     42
                      A                      A                      A
 Frequencies --    963.1093               971.9752               985.8300
 Red. masses --      2.4502                 3.0514                 2.1177
 Frc consts  --      1.3391                 1.6985                 1.2126
 IR Inten    --      1.8908                17.6523                13.5615

                     43                     44                     45
                      A                      A                      A
 Frequencies --    991.6897              1013.9806              1045.8322
 Red. masses --      3.8068                 1.8829                 1.6006
 Frc consts  --      2.2058                 1.1406                 1.0315
 IR Inten    --     23.1415                 5.1813                 8.8708

                     46                     47                     48
                      A                      A                      A
 Frequencies --   1046.6016              1056.7957              1074.2035
 Red. masses --      1.5226                 2.7190                 1.7455
 Frc consts  --      0.9826                 1.7891                 1.1867
 IR Inten    --      1.2064                14.2355                 1.5626

                     49                     50                     51
                      A                      A                      A
 Frequencies --   1074.9015              1079.7228              1082.6454
 Red. masses --      1.5419                 1.5022                 1.4795
 Frc consts  --      1.0496                 1.0318                 1.0218
 IR Inten    --      8.9882                 0.9927                 0.4054

                     52                     53                     54
                      A                      A                      A
 Frequencies --   1162.3731              1182.7376              1232.9752
 Red. masses --      1.8605                 2.2349                 1.4213
 Frc consts  --      1.4811                 1.8420                 1.2730
 IR Inten    --    153.2132                34.1247                60.2592

                     55                     56                     57
                      A                      A                      A
 Frequencies --   1234.5415              1251.4896              1292.2019
 Red. masses --      1.3864                 2.4087                 1.3837
 Frc consts  --      1.2449                 2.2227                 1.3613
 IR Inten    --      7.8169               210.9664                 0.0808

                     58                     59                     60
                      A                      A                      A
 Frequencies --   1319.0443              1332.3976              1349.7568
 Red. masses --      1.9723                 1.5369                 6.1482
 Frc consts  --      2.0219                 1.6075                 6.5995
 IR Inten    --     89.6166                18.6614                13.7688

                     61                     62                     63
                      A                      A                      A
 Frequencies --   1351.5470              1382.2766              1424.1756
 Red. masses --      6.6256                 1.5602                 1.9467
 Frc consts  --      7.1308                 1.7564                 2.3264
 IR Inten    --      7.6424                15.6264                51.8084

                     64                     65                     66
                      A                      A                      A
 Frequencies --   1442.0447              1443.3953              1448.3005
 Red. masses --      1.2390                 1.2372                 1.2904
 Frc consts  --      1.5181                 1.5186                 1.5947
 IR Inten    --      0.8801                 1.0767                 0.9418

                     67                     68                     69
                      A                      A                      A
 Frequencies --   1456.5696              1465.7833              1494.9353
 Red. masses --      1.1940                 2.7878                 1.8395
 Frc consts  --      1.4925                 3.5289                 2.4221
 IR Inten    --      2.5258                 0.0685                 8.3008

                     70                     71                     72
                      A                      A                      A
 Frequencies --   1502.4602              1506.7451              1510.1584
 Red. masses --      1.1395                 1.1083                 1.0505
 Frc consts  --      1.5156                 1.4824                 1.4115
 IR Inten    --     22.2964                19.3005                 6.4701

                     73                     74                     75
                      A                      A                      A
 Frequencies --   1514.3508              1518.6821              1526.0619
 Red. masses --      1.0481                 1.0501                 1.0831
 Frc consts  --      1.4161                 1.4269                 1.4861
 IR Inten    --      3.8166                 4.6932                 0.9553

                     76                     77                     78
                      A                      A                      A
 Frequencies --   1536.9036              1549.5376              1656.3689
 Red. masses --      1.1996                 1.4279                 7.5784
 Frc consts  --      1.6695                 2.0201                12.2501
 IR Inten    --     21.5979                57.6917                 1.3443

                     79                     80                     81
                      A                      A                      A
 Frequencies --   1664.8812              1730.2395              1851.2568
 Red. masses --      5.5121                 5.8265                 9.5204
 Frc consts  --      9.0019                10.2771                19.2239
 IR Inten    --      4.8541                80.6093               224.4246

                     82                     83                     84
                      A                      A                      A
 Frequencies --   3041.1770              3051.5044              3052.4986
 Red. masses --      1.0405                 1.0379                 1.0369
 Frc consts  --      5.6700                 5.6944                 5.6924
 IR Inten    --     39.0103                27.6367                13.4368

                     85                     86                     87
                      A                      A                      A
 Frequencies --   3064.4313              3068.2222              3098.1566
 Red. masses --      1.0656                 1.0650                 1.0956
 Frc consts  --      5.8957                 5.9072                 6.1958
 IR Inten    --     11.2800                10.7198                21.5497

                     88                     89                     90
                      A                      A                      A
 Frequencies --   3108.7052              3110.9257              3124.7880
 Red. masses --      1.0996                 1.0977                 1.1027
 Frc consts  --      6.2611                 6.2588                 6.3439
 IR Inten    --     10.4407                11.9806                16.1729

                     91                     92                     93
                      A                      A                      A
 Frequencies --   3125.8724              3134.9933              3135.6141
 Red. masses --      1.0988                 1.0991                 1.1028
 Frc consts  --      6.3258                 6.3647                 6.3884
 IR Inten    --     15.0172                20.9392                14.8289

                     94                     95                     96
                      A                      A                      A
 Frequencies --   3136.8533              3173.5019              3175.3586
 Red. masses --      1.1026                 1.0898                 1.0901
 Frc consts  --      6.3926                 6.4666                 6.4761
 IR Inten    --      5.8969                27.8776                13.4900

                     97                     98                     99
                      A                      A                      A
 Frequencies --   3197.1320              3280.7629              3680.2517
 Red. masses --      1.0594                 1.1173                 1.0638
 Frc consts  --      6.3801                 7.0857                 8.4890
 IR Inten    --      0.1709                 7.7556                43.1611

 - Thermochemistry -
 -------------------
 Temperature   298.150 Kelvin.  Pressure   1.00000 Atm.
 Atom     1 has atomic number  6 and mass  12.00000

 Molecular mass:   234.12559 amu.
 Principal axes and moments of inertia in atomic units:
                           1         2         3
     Eigenvalues --  2207.145666226.952576673.81564
           X            0.99986   0.00762  -0.01481
           Y           -0.00686   0.99870   0.05050
           Z            0.01518  -0.05040   0.99861
 This molecule is an asymmetric top.
 Rotational symmetry number  1.
 Warning -- assumption of classical behavior for rotation
           may cause significant error
 Rotational temperatures (Kelvin)      0.03924     0.01391     0.01298
 Rotational constants (GHZ):           0.81768     0.28983     0.27042
 Zero-point vibrational energy     772607.4 (Joules/Mol)
                                  184.65760 (Kcal/Mol)
 Warning -- explicit consideration of  29 degrees of freedom as
           vibrations may cause significant error
 Vibrational temperatures:     46.29    49.32    71.08    74.34   100.63
          (Kelvin)            108.34   123.61   188.40   232.56   246.89
                              278.79   287.37   314.03   342.11   395.34
                              410.15   468.79   530.26   557.88   614.95
                              671.83   728.61   753.29   765.19   789.74
                              839.63   844.94   863.06   884.91   948.57
                             1033.57  1047.28  1066.56  1148.22  1197.53
                             1208.40  1229.52  1260.35  1287.48  1385.70
                             1398.46  1418.39  1426.82  1458.89  1504.72
                             1505.83  1520.49  1545.54  1546.54  1553.48
                             1557.69  1672.40  1701.70  1773.98  1776.23
                             1800.61  1859.19  1897.81  1917.02  1942.00
                             1944.57  1988.79  2049.07  2074.78  2076.72
                             2083.78  2095.68  2108.94  2150.88  2161.71
                             2167.87  2172.78  2178.81  2185.04  2195.66
                             2211.26  2229.44  2383.15  2395.39  2489.43
                             2663.55  4375.58  4390.43  4391.86  4409.03
                             4414.49  4457.56  4472.73  4475.93  4495.87
                             4497.43  4510.56  4511.45  4513.23  4565.96
                             4568.63  4599.96  4720.29  5295.06

 Zero-point correction=                           0.294271 (Hartree/Particle)
 Thermal correction to Energy=                    0.312318
 Thermal correction to Enthalpy=                  0.313262
 Thermal correction to Gibbs Free Energy=         0.246784
 Sum of electronic and zero-point Energies=           -769.784166
 Sum of electronic and thermal Energies=              -769.766119
 Sum of electronic and thermal Enthalpies=            -769.765175
 Sum of electronic and thermal Free Energies=         -769.831653

                     E (Thermal)             CV                S
                      KCal/Mol        Cal/Mol-Kelvin    Cal/Mol-Kelvin
 Total                  195.982             66.390            139.915
 Electronic               0.000              0.000              0.000
 Translational            0.889              2.981             42.254
 Rotational               0.889              2.981             32.883
 Vibrational            194.205             60.428             64.778
 Vibration     1          0.594              1.983              5.691
 Vibration     2          0.594              1.983              5.565
 Vibration     3          0.595              1.978              4.841
 Vibration     4          0.596              1.977              4.752
 Vibration     5          0.598              1.968              4.155
 Vibration     6          0.599              1.965              4.010
 Vibration     7          0.601              1.959              3.751
 Vibration     8          0.612              1.922              2.932
 Vibration     9          0.622              1.889              2.531
 Vibration    10          0.626              1.877              2.418
 Vibration    11          0.635              1.849              2.192
 Vibration    12          0.638              1.840              2.136
 Vibration    13          0.646              1.813              1.973
 Vibration    14          0.656              1.783              1.819
 Vibration    15          0.677              1.720              1.566
 Vibration    16          0.683              1.701              1.503
 Vibration    17          0.710              1.624              1.281
 Vibration    18          0.741              1.537              1.086
 Vibration    19          0.756              1.496              1.009
 Vibration    20          0.789              1.411              0.867
 Vibration    21          0.824              1.323              0.746
 Vibration    22          0.862              1.236              0.642
 Vibration    23          0.879              1.198              0.602
 Vibration    24          0.887              1.180              0.583
 Vibration    25          0.904              1.142              0.546
 Vibration    26          0.940              1.067              0.479
 Vibration    27          0.944              1.059              0.472
 Vibration    28          0.958              1.032              0.450
 Vibration    29          0.975              1.000              0.424

                           ! Non-Optimized Parameters !
 Normal termination of Gaussian 16 at Fri Dec 11 12:33:34 2020.

 ----------------------------------------------------------------------
 # B3LYP/6-311++G(d,p) empiricaldispersion=gd3bj scf=xqc pop=npa geom=c
 heck
 ----------------------------------------------------------------------

 ---------------------------------------
 CID_143069351_JID_7205_Energie_neutraal
 ---------------------------------------
 Structure from the checkpoint file:  "JID_7205.chk"
 Charge =  0 Multiplicity = 1

 SCF Done:  E(RB3LYP) =  -770.298521017     A.U. after   15 cycles
 Normal termination of Gaussian 16 at Fri Dec 11 12:40:46 2020.

 ----------------------------------------------------------------------
 # B3LYP/6-311++G(d,p) empiricaldispersion=gd3bj scf=xqc pop=npa geom=c
 heck
 ----------------------------------------------------------------------

 -------------------------------------
 CID_143069351_JID_7205_Energie_kation
 -------------------------------------
 Structure from the checkpoint file:  "JID_7205.chk"
 Charge =  1 Multiplicity = 2

 SCF Done:  E(UB3LYP) =  -770.000806030     A.U. after   29 cycles
 Normal termination of Gaussian 16 at Fri Dec 11 12:59:50 2020.
 Gaussian 16:  ES64L-G16RevA.03 25-Dec-2016

 ----------------------------------------------------------------------
 # B3LYP/6-311++G(d,p) empiricaldispersion=gd3bj scf=xqc pop=npa geom=c
 heck
 ----------------------------------------------------------------------

 ------------------------------------
 CID_143069351_JID_7205_Energie_anion
 ------------------------------------
 Structure from the checkpoint file:  "JID_7205.chk"
 Charge = -1 Multiplicity = 2

                         Standard orientation:
 ---------------------------------------------------------------------
 Center     Atomic      Atomic             Coordinates (Angstroms)
 Number     Number       Type             X           Y           Z
 ---------------------------------------------------------------------
      1          6           0        4.913346    0.652314   -0.303905
      2          6           0        3.436588    0.360286   -0.187415
      3          6           0        2.906106   -0.842530   -0.664976
      4          6           0        1.538561   -1.121583   -0.596998
      5          6           0        0.707982   -0.152183   -0.028581
      6          6           0        1.188533    1.064191    0.463558
      7          6           0        2.563867    1.297831    0.373772
      8          6           0        0.243303    2.069099    1.069005
      9          8           0       -0.665081   -0.387785   -0.009640
     10          6           0       -1.225557   -0.988130    1.096005
     11          6           0       -0.545847   -1.394031    2.171962
     12          6           0       -2.711274   -1.101021    0.908169
     13          6           0       -3.359249    0.250778    0.555280
     14          6           0       -3.100806    0.637578   -0.885413
     15          8           0       -3.218705   -0.100588   -1.837109
     16          8           0       -2.760560    1.945096   -1.014486
     17          6           0        0.955045   -2.413753   -1.105861
     18          1           0        5.508891   -0.264220   -0.236222
     19          1           0        5.151155    1.124111   -1.266526
     20          1           0        5.249518    1.334170    0.484143
     21          1           0        3.571120   -1.583815   -1.102812
     22          1           0        2.960707    2.237428    0.752091
     23          1           0       -0.569051    2.316517    0.377731
     24          1           0       -0.222087    1.668937    1.977945
     25          1           0        0.771410    2.989691    1.333770
     26          1           0       -1.074312   -1.849422    3.000483
     27          1           0        0.530042   -1.290278    2.247230
     28          1           0       -2.928260   -1.801815    0.092885
     29          1           0       -3.155931   -1.500796    1.823072
     30          1           0       -4.447568    0.165405    0.664354
     31          1           0       -3.019200    1.043343    1.226110
     32          1           0       -2.626020    2.091200   -1.970122
     33          1           0        0.151372   -2.225798   -1.825998
     34          1           0        1.722116   -3.025278   -1.589408
     35          1           0        0.517268   -2.996227   -0.286456
 ---------------------------------------------------------------------

 SCF Done:  E(UB3LYP) =  -770.284808751     A.U. after   33 cycles
 SCF Done:  E(UB3LYP) =  -770.284808750     a.u. after    1 cycles

 The electronic state is 2-A.
 Alpha  occ. eigenvalues --  -19.07674 -19.06864 -19.01818 -10.21105 -10.14681
 Alpha  occ. eigenvalues --  -10.13263 -10.09446 -10.09370 -10.09346 -10.09189
 Alpha  occ. eigenvalues --  -10.09023 -10.07925 -10.07842 -10.07794 -10.07791
 Alpha  occ. eigenvalues --  -10.07163 -10.06261  -1.01531  -0.98891  -0.92567
 Alpha  occ. eigenvalues --   -0.77580  -0.72474  -0.69677  -0.68875  -0.66220
 Alpha  occ. eigenvalues --   -0.61360  -0.59957  -0.59261  -0.58222  -0.52015
 Alpha  occ. eigenvalues --   -0.49702  -0.49668  -0.46233  -0.41689  -0.41046
 Alpha  occ. eigenvalues --   -0.40249  -0.39763  -0.39093  -0.37504  -0.35990
 Alpha  occ. eigenvalues --   -0.34045  -0.33585  -0.32955  -0.32500  -0.32391
 Alpha  occ. eigenvalues --   -0.31859  -0.31591  -0.31323  -0.31118  -0.30127
 Alpha  occ. eigenvalues --   -0.29233  -0.28409  -0.28107  -0.26992  -0.26833
 Alpha  occ. eigenvalues --   -0.25330  -0.24242  -0.24121  -0.22887  -0.18989
 Alpha  occ. eigenvalues --   -0.15421  -0.14709  -0.14434   0.04127
 Alpha virt. eigenvalues --    0.05494   0.06504   0.06993   0.07444   0.07628
 Alpha virt. eigenvalues --    0.07707   0.08452   0.08585   0.09197   0.09571
 Alpha virt. eigenvalues --    0.10211   0.10352   0.10488   0.11119   0.11921

  Beta  occ. eigenvalues --  -19.07642 -19.06856 -19.01806 -10.21086 -10.14682
  Beta  occ. eigenvalues --  -10.13260 -10.09446 -10.09346 -10.09338 -10.09189
  Beta  occ. eigenvalues --  -10.09002 -10.07915 -10.07831 -10.07783 -10.07758
  Beta  occ. eigenvalues --  -10.07145 -10.06244  -1.01478  -0.98880  -0.92527
  Beta  occ. eigenvalues --   -0.77571  -0.72445  -0.69666  -0.68849  -0.66183
  Beta  occ. eigenvalues --   -0.61329  -0.59922  -0.59236  -0.58161  -0.51969
  Beta  occ. eigenvalues --   -0.49670  -0.49609  -0.46205  -0.41654  -0.41021
  Beta  occ. eigenvalues --   -0.40221  -0.39729  -0.39067  -0.37453  -0.35946
  Beta  occ. eigenvalues --   -0.34016  -0.33560  -0.32920  -0.32480  -0.32363
  Beta  occ. eigenvalues --   -0.31841  -0.31564  -0.31291  -0.31090  -0.30097
  Beta  occ. eigenvalues --   -0.29214  -0.28365  -0.28079  -0.26963  -0.26808
  Beta  occ. eigenvalues --   -0.25307  -0.24224  -0.24105  -0.22840  -0.18963
  Beta  occ. eigenvalues --   -0.15411  -0.14689  -0.14422
  Beta virt. eigenvalues --    0.06042   0.06663   0.07183   0.07490   0.07606
  Beta virt. eigenvalues --    0.07702   0.08066   0.08735   0.08986   0.09495
  Beta virt. eigenvalues --    0.09879   0.10378   0.10630   0.10842   0.11211

 Mulliken charges and spin densities:
               1          2
     1  C    1.979719  -2.408007
     2  C    0.608331   0.056642
     3  C   -0.638936  -0.071081
     4  C   -0.213545   0.519349
     5  C   -0.693331   0.409741
     6  C   -0.152395   0.511262
     7  C   -0.890467   0.282050
     8  C    0.363987  -0.915586
     9  O    0.109000   0.009957
    10  C   -0.980816   1.459675
    11  C    1.052286  -1.938747
    12  C   -0.560734   0.155826
    13  C    1.276652  -1.375103
    14  C   -0.160887  -0.087621
    15  O   -0.269589   0.035564
    16  O   -0.138193   0.033764
    17  C   -0.235725  -0.260863
    18  H   -0.229222   0.373899
    19  H   -0.067429   0.238003
    20  H   -0.254158   0.400699
    21  H   -0.229266   0.356138
    22  H   -0.277357   0.415264
    23  H    0.208319   0.004434
    24  H   -0.037851   0.211157
    25  H   -0.093023   0.237874
    26  H   -0.187476   0.325206
    27  H    0.332560  -0.184084
    28  H    0.336702  -0.126686
    29  H   -0.530801   0.717435
    30  H   -0.718824   0.943382
    31  H    0.279127  -0.099667
    32  H   -0.134211   0.421435
    33  H    0.093388   0.090033
    34  H   -0.003814   0.153019
    35  H    0.057979   0.105639
 Sum of Mulliken charges =  -1.00000   1.00000

 Dipole moment (field-independent basis, Debye):
    X=              1.4212    Y=             -1.1648    Z=             -0.2423  Tot=              1.8534
 Quadrupole moment (field-independent basis, Debye-Ang):
   XX=           -202.9510   YY=           -139.0551   ZZ=           -142.2082
   XY=             -5.1609   XZ=              3.7877   YZ=              2.6534

 Summary of Natural Population Analysis:

                                       Natural Population
                Natural  -----------------------------------------------
    Atom  No    Charge         Core      Valence    Rydberg      Total
 -----------------------------------------------------------------------
      C    1   -0.29046      0.99964     2.28557    0.00525     3.29046
      C    2   -0.01355      0.99952     2.00445    0.00958     3.01355
      C    3   -0.10201      0.99948     2.09365    0.00888     3.10201
      C    4   -0.02227      0.99946     2.01344    0.00937     3.02227
      C    5    0.14534      0.99924     1.84222    0.01319     2.85466
      C    6   -0.02004      0.99946     2.01090    0.00968     3.02004
      C    7   -0.10080      0.99947     2.09221    0.00912     3.10080
      C    8   -0.29713      0.99963     2.29227    0.00523     3.29713
      O    9   -0.28519      0.99984     3.27247    0.01288     4.28519
      C   10    0.17500      0.99940     1.81074    0.01486     2.82500
      C   11   -0.25671      0.99949     2.24965    0.00756     3.25671
      C   12   -0.21082      0.99957     2.20037    0.01087     3.21082
      C   13   -0.23523      0.99957     2.22620    0.00946     3.23523
      C   14    0.41264      0.99971     1.56138    0.02626     2.58736
      O   15   -0.30989      0.99986     3.30386    0.00617     4.30989
      O   16   -0.34546      0.99988     3.33880    0.00679     4.34546
      C   17   -0.29419      0.99963     2.28970    0.00486     3.29419
      H   18    0.10262      0.00000     0.39612    0.00127     0.39738
      H   19    0.10475      0.00000     0.39390    0.00135     0.39525
      H   20    0.10306      0.00000     0.39564    0.00130     0.39694
      H   21    0.09763      0.00000     0.40106    0.00131     0.40237
      H   22    0.09896      0.00000     0.40003    0.00101     0.40104
      H   23    0.11496      0.00000     0.38338    0.00166     0.38504
      H   24    0.10777      0.00000     0.39074    0.00149     0.39223
      H   25    0.10075      0.00000     0.39833    0.00092     0.39925
      H   26    0.10364      0.00000     0.39545    0.00091     0.39636
      H   27    0.10420      0.00000     0.39479    0.00101     0.39580
      H   28    0.11335      0.00000     0.38515    0.00150     0.38665
      H   29    0.10921      0.00000     0.38920    0.00159     0.39079
      H   30    0.11946      0.00000     0.37789    0.00265     0.38054
      H   31    0.10998      0.00000     0.38832    0.00170     0.39002
      H   32    0.24088      0.00000     0.25404    0.00508     0.25912
      H   33    0.11088      0.00000     0.38800    0.00113     0.38912
      H   34    0.10019      0.00000     0.39904    0.00077     0.39981
      H   35    0.10846      0.00000     0.39042    0.00112     0.39154
 =======================================================================
   * Total *   -0.00000     16.99286    45.80938    0.19776    63.00000

 Normal termination of Gaussian 16 at Fri Dec 11 13:20:50 2020.
