 Gaussian 16, Revision A.03,

 -----------------------------------------------------------
 # opt freq B3LYP/6-31G(d) empiricaldispersion=gd3bj scf=xqc
 -----------------------------------------------------------

 -------------------------------
 CID_137221900_JID_4026_neutraal
 -------------------------------
 Symbolic Z-matrix:
 Charge =  0 Multiplicity = 1

 SCF Done:  E(RB3LYP) =  -988.455532611     A.U. after   15 cycles
 SCF Done:  E(RB3LYP) =  -988.462500460     A.U. after   14 cycles
 SCF Done:  E(RB3LYP) =  -988.463816931     A.U. after   15 cycles
 SCF Done:  E(RB3LYP) =  -988.464043384     A.U. after   13 cycles
 SCF Done:  E(RB3LYP) =  -988.464183872     A.U. after   12 cycles
 SCF Done:  E(RB3LYP) =  -988.464217743     A.U. after   11 cycles
 SCF Done:  E(RB3LYP) =  -988.464231925     A.U. after   10 cycles
 SCF Done:  E(RB3LYP) =  -988.464239978     A.U. after   10 cycles
 SCF Done:  E(RB3LYP) =  -988.464245519     A.U. after    9 cycles
 SCF Done:  E(RB3LYP) =  -988.464247326     A.U. after    9 cycles
 SCF Done:  E(RB3LYP) =  -988.464683144     A.U. after   12 cycles
 SCF Done:  E(RB3LYP) =  -988.464734061     A.U. after   11 cycles
 SCF Done:  E(RB3LYP) =  -988.464734582     A.U. after    8 cycles
 SCF Done:  E(RB3LYP) =  -988.464735032     A.U. after    8 cycles
 SCF Done:  E(RB3LYP) =  -988.464735056     A.U. after    7 cycles
 Optimization completed.
    -- Stationary point found.
 Normal termination of Gaussian 16 at Thu Dec 10 09:20:33 2020.

 --------------------------------------------------------------------
 #N Geom=AllCheck Guess=TCheck SCRF=Check GenChk RB3LYP/6-31G(d) Freq
 --------------------------------------------------------------------

 Structure from the checkpoint file:  "JID_4026.chk"
 -------------------------------
 CID_137221900_JID_4026_neutraal
 -------------------------------
 Charge =  0 Multiplicity = 1

 SCF Done:  E(RB3LYP) =  -988.464735056     A.U. after    1 cycles

  Exact polarizability: 229.483 -11.828 121.813 -10.684  -8.232  89.871
 Approx polarizability: 304.491 -29.861 192.434 -19.704 -14.082 133.465

                      1                      2                      3
                      A                      A                      A
 Frequencies --     16.6282                39.7163                59.2658
 Red. masses --      4.8811                 5.2698                 3.0662
 Frc consts  --      0.0008                 0.0049                 0.0063
 IR Inten    --      0.0240                 0.1224                 2.1223

                      4                      5                      6
                      A                      A                      A
 Frequencies --     78.7600                85.6214               106.8615
 Red. masses --      3.5628                 4.1134                 3.6368
 Frc consts  --      0.0130                 0.0178                 0.0245
 IR Inten    --      2.9218                 0.0921                 3.9901

                      7                      8                      9
                      A                      A                      A
 Frequencies --    123.0892               132.3998               150.3901
 Red. masses --      1.7819                 6.3330                 1.5736
 Frc consts  --      0.0159                 0.0654                 0.0210
 IR Inten    --      0.4616                 4.0450                 0.4235

                     10                     11                     12
                      A                      A                      A
 Frequencies --    188.3845               256.8071               302.9549
 Red. masses --      2.6518                 4.0658                 3.6809
 Frc consts  --      0.0554                 0.1580                 0.1990
 IR Inten    --      0.0344                 1.5883                 2.7306

                     13                     14                     15
                      A                      A                      A
 Frequencies --    317.2877               386.2548               434.6296
 Red. masses --      2.4966                 3.4827                 2.6388
 Frc consts  --      0.1481                 0.3061                 0.2937
 IR Inten    --      0.3318                 1.9387                 1.9459

                     16                     17                     18
                      A                      A                      A
 Frequencies --    446.2180               448.8337               512.9244
 Red. masses --      2.9073                 5.3738                10.3316
 Frc consts  --      0.3411                 0.6378                 1.6015
 IR Inten    --      1.7984                15.3926                32.6547

                     19                     20                     21
                      A                      A                      A
 Frequencies --    534.5952               562.2097               588.0712
 Red. masses --      3.4887                 2.3820                 3.1149
 Frc consts  --      0.5874                 0.4436                 0.6347
 IR Inten    --      5.6077                 0.2209                 3.0625

                     22                     23                     24
                      A                      A                      A
 Frequencies --    628.4369               666.0823               687.8203
 Red. masses --      6.6465                 4.2992                 1.9163
 Frc consts  --      1.5466                 1.1238                 0.5341
 IR Inten    --      0.4761                10.6293                14.7006

                     25                     26                     27
                      A                      A                      A
 Frequencies --    697.7435               766.4642               781.5515
 Red. masses --      1.2681                 4.5872                 4.8725
 Frc consts  --      0.3637                 1.5877                 1.7536
 IR Inten    --     95.7967                17.2845                 7.4955

                     28                     29                     30
                      A                      A                      A
 Frequencies --    828.9614               851.4359               892.3089
 Red. masses --      1.9540                 3.2514                 2.4220
 Frc consts  --      0.7911                 1.3887                 1.1362
 IR Inten    --      4.7540                 2.0687                 0.0197

                     31                     32                     33
                      A                      A                      A
 Frequencies --    916.8956               932.3940               943.2872
 Red. masses --      2.0983                 1.6636                 1.3518
 Frc consts  --      1.0393                 0.8521                 0.7087
 IR Inten    --      0.5982                 5.7248                35.0926

                     34                     35                     36
                      A                      A                      A
 Frequencies --    982.4466               996.3271              1032.6147
 Red. masses --      1.6135                 2.9535                 2.4156
 Frc consts  --      0.9175                 1.7274                 1.5176
 IR Inten    --     21.8934                13.3361                 0.2633

                     37                     38                     39
                      A                      A                      A
 Frequencies --   1046.2866              1058.2859              1090.3106
 Red. masses --      1.1196                 1.6038                 2.0889
 Frc consts  --      0.7221                 1.0583                 1.4631
 IR Inten    --     11.9624                 4.2666                13.1253

                     40                     41                     42
                      A                      A                      A
 Frequencies --   1149.4806              1155.9440              1199.9761
 Red. masses --      1.9556                 1.1588                 2.1416
 Frc consts  --      1.5224                 0.9123                 1.8169
 IR Inten    --      1.0446                 0.0091                46.7738

                     43                     44                     45
                      A                      A                      A
 Frequencies --   1223.1984              1262.9569              1268.5493
 Red. masses --      1.4713                 1.4898                 1.5556
 Frc consts  --      1.2970                 1.4001                 1.4749
 IR Inten    --     14.2280                75.4027                25.0377

                     46                     47                     48
                      A                      A                      A
 Frequencies --   1284.6600              1332.2238              1334.1955
 Red. masses --      1.7832                 3.3441                 1.3570
 Frc consts  --      1.7339                 3.4969                 1.4232
 IR Inten    --      4.3421               106.1960                20.9044

                     49                     50                     51
                      A                      A                      A
 Frequencies --   1361.8993              1380.4202              1393.9011
 Red. masses --      1.3244                 1.8423                 2.1494
 Frc consts  --      1.4473                 2.0684                 2.4606
 IR Inten    --      6.7889                23.0071               119.4995

                     52                     53                     54
                      A                      A                      A
 Frequencies --   1420.8151              1476.0612              1489.4904
 Red. masses --      1.3317                 1.1777                 1.0834
 Frc consts  --      1.5839                 1.5119                 1.4162
 IR Inten    --     31.8691                 4.2193                 6.1240

                     55                     56                     57
                      A                      A                      A
 Frequencies --   1498.1229              1510.9640              1516.2405
 Red. masses --      1.0711                 1.1069                 1.0630
 Frc consts  --      1.4163                 1.4889                 1.4398
 IR Inten    --      4.7547                 8.9086                 4.8027

                     58                     59                     60
                      A                      A                      A
 Frequencies --   1519.8788              1677.4214              1715.6933
 Red. masses --      1.1101                 8.5506                 8.4171
 Frc consts  --      1.5109                14.1752                14.5979
 IR Inten    --      8.3825               448.7870               508.6239

                     61                     62                     63
                      A                      A                      A
 Frequencies --   1734.6208              1844.4090              3043.5920
 Red. masses --      4.4703                11.7236                 1.0596
 Frc consts  --      7.9250                23.4978                 5.7833
 IR Inten    --      7.2179               469.4330                20.9924

                     64                     65                     66
                      A                      A                      A
 Frequencies --   3046.7598              3061.9707              3089.5836
 Red. masses --      1.0441                 1.0605                 1.1009
 Frc consts  --      5.7102                 5.8581                 6.1914
 IR Inten    --     11.9479                22.9353                28.0180

                     67                     68                     69
                      A                      A                      A
 Frequencies --   3100.0911              3103.1295              3112.3430
 Red. masses --      1.0954                 1.0576                 1.1061
 Frc consts  --      6.2027                 6.0001                 6.3129
 IR Inten    --     10.2354                 9.7759                27.0496

                     70                     71                     72
                      A                      A                      A
 Frequencies --   3148.9728              3153.3619              3157.8568
 Red. masses --      1.0732                 1.1082                 1.0767
 Frc consts  --      6.2703                 6.4923                 6.3258
 IR Inten    --     27.1913                 0.1396                 3.4925

                     73                     74                     75
                      A                      A                      A
 Frequencies --   3188.5062              3236.1154              3589.8442
 Red. masses --      1.0982                 1.1155                 1.0768
 Frc consts  --      6.5782                 6.8827                 8.1759
 IR Inten    --      2.4566                18.2900                83.2927

 - Thermochemistry -
 -------------------
 Temperature   298.150 Kelvin.  Pressure   1.00000 Atm.
 Atom     1 has atomic number  6 and mass  12.00000

 Molecular mass:   211.07793 amu.
 Principal axes and moments of inertia in atomic units:
                           1         2         3
     Eigenvalues --  1482.949957087.563927805.46421
           X            1.00000   0.00126   0.00075
           Y           -0.00127   0.99995   0.00946
           Z           -0.00074  -0.00946   0.99996
 This molecule is an asymmetric top.
 Rotational symmetry number  1.
 Warning -- assumption of classical behavior for rotation
           may cause significant error
 Rotational temperatures (Kelvin)      0.05841     0.01222     0.01110
 Rotational constants (GHZ):           1.21699     0.25463     0.23122
 Zero-point vibrational energy     570348.4 (Joules/Mol)
                                  136.31654 (Kcal/Mol)
 Warning -- explicit consideration of  21 degrees of freedom as
           vibrations may cause significant error
 Vibrational temperatures:     23.92    57.14    85.27   113.32   123.19
          (Kelvin)            153.75   177.10   190.49   216.38   271.04
                              369.49   435.88   456.51   555.73   625.34
                              642.01   645.77   737.98   769.16   808.89
                              846.10   904.18   958.34   989.62  1003.90
                             1102.77  1124.48  1192.69  1225.03  1283.83
                             1319.21  1341.51  1357.18  1413.52  1433.49
                             1485.70  1505.37  1522.64  1568.71  1653.85
                             1663.15  1726.50  1759.91  1817.11  1825.16
                             1848.34  1916.77  1919.61  1959.47  1986.12
                             2005.51  2044.24  2123.72  2143.04  2155.46
                             2173.94  2181.53  2186.77  2413.44  2468.50
                             2495.73  2653.69  4379.05  4383.61  4405.49
                             4445.22  4460.34  4464.71  4477.97  4530.67
                             4536.98  4543.45  4587.55  4656.05  5164.99

 Zero-point correction=                           0.217234 (Hartree/Particle)
 Thermal correction to Energy=                    0.232085
 Thermal correction to Enthalpy=                  0.233029
 Thermal correction to Gibbs Free Energy=         0.172638
 Sum of electronic and zero-point Energies=           -988.247501
 Sum of electronic and thermal Energies=              -988.232650
 Sum of electronic and thermal Enthalpies=            -988.231706
 Sum of electronic and thermal Free Energies=         -988.292097

                     E (Thermal)             CV                S
                      KCal/Mol        Cal/Mol-Kelvin    Cal/Mol-Kelvin
 Total                  145.635             53.332            127.103
 Electronic               0.000              0.000              0.000
 Translational            0.889              2.981             41.945
 Rotational               0.889              2.981             32.773
 Vibrational            143.858             47.370             52.385
 Vibration     1          0.593              1.986              7.001
 Vibration     2          0.594              1.981              5.273
 Vibration     3          0.597              1.974              4.481
 Vibration     4          0.600              1.963              3.922
 Vibration     5          0.601              1.959              3.758
 Vibration     6          0.606              1.944              3.325
 Vibration     7          0.610              1.930              3.051
 Vibration     8          0.613              1.921              2.911
 Vibration     9          0.618              1.902              2.667
 Vibration    10          0.633              1.856              2.244
 Vibration    11          0.666              1.751              1.683
 Vibration    12          0.694              1.668              1.401
 Vibration    13          0.704              1.641              1.324
 Vibration    14          0.755              1.500              1.015
 Vibration    15          0.795              1.395              0.844
 Vibration    16          0.805              1.369              0.807
 Vibration    17          0.808              1.363              0.799
 Vibration    18          0.868              1.221              0.627
 Vibration    19          0.890              1.173              0.577
 Vibration    20          0.918              1.113              0.519
 Vibration    21          0.945              1.057              0.471

 Optimization completed.
    -- Stationary point found.
 Normal termination of Gaussian 16 at Thu Dec 10 09:26:41 2020.

 ----------------------------------------------------------------------
 # B3LYP/6-311++G(d,p) empiricaldispersion=gd3bj scf=xqc pop=npa geom=c
 heck
 ----------------------------------------------------------------------

 ---------------------------------------
 CID_137221900_JID_4026_Energie_neutraal
 ---------------------------------------
 Structure from the checkpoint file:  "JID_4026.chk"
 Charge =  0 Multiplicity = 1

 SCF Done:  E(RB3LYP) =  -988.661214667     A.U. after   15 cycles
 Normal termination of Gaussian 16 at Thu Dec 10 09:29:25 2020.

 ----------------------------------------------------------------------
 # B3LYP/6-311++G(d,p) empiricaldispersion=gd3bj scf=xqc pop=npa geom=c
 heck
 ----------------------------------------------------------------------

 -------------------------------------
 CID_137221900_JID_4026_Energie_kation
 -------------------------------------
 Structure from the checkpoint file:  "JID_4026.chk"
 Charge =  1 Multiplicity = 2

 SCF Done:  E(UB3LYP) =  -988.363430008     A.U. after   25 cycles
 Normal termination of Gaussian 16 at Thu Dec 10 09:36:11 2020.
 Gaussian 16:  ES64L-G16RevA.03 25-Dec-2016

 ----------------------------------------------------------------------
 # B3LYP/6-311++G(d,p) empiricaldispersion=gd3bj scf=xqc pop=npa geom=c
 heck
 ----------------------------------------------------------------------

 ------------------------------------
 CID_137221900_JID_4026_Energie_anion
 ------------------------------------
 Structure from the checkpoint file:  "JID_4026.chk"
 Charge = -1 Multiplicity = 2

                         Standard orientation:
 ---------------------------------------------------------------------
 Center     Atomic      Atomic             Coordinates (Angstroms)
 Number     Number       Type             X           Y           Z
 ---------------------------------------------------------------------
      1          6           0        2.195929   -1.969767   -0.657158
      2          6           0        1.757650   -0.541824   -0.824008
      3          7           0        0.573259   -0.083539   -0.615093
      4          7           0       -0.365407   -1.035711   -0.178428
      5          6           0       -1.519070   -0.499768   -0.019818
      6          7           0       -1.856827    0.824139   -0.237042
      7          6           0       -3.151570    1.233984   -0.014216
      8          8           0       -3.568486    2.362176   -0.165276
      9          6           0       -4.002751    0.049963    0.456951
     10         16           0       -2.922971   -1.434335    0.532275
     11          6           0        2.796477    0.472715   -1.246296
     12          6           0        3.323376    1.310926   -0.052728
     13          6           0        3.903246    0.479385    1.056971
     14          6           0        5.197587    0.423623    1.371851
     15          1           0        2.432415   -2.396904   -1.640965
     16          1           0        1.419662   -2.571948   -0.186516
     17          1           0        3.119056   -2.008650   -0.067463
     18          1           0       -1.120406    1.446560   -0.553164
     19          1           0       -4.421190    0.277951    1.440159
     20          1           0       -4.825898   -0.102019   -0.245331
     21          1           0        3.638152   -0.041261   -1.723732
     22          1           0        2.354314    1.155479   -1.979489
     23          1           0        4.077638    2.014431   -0.424860
     24          1           0        2.481635    1.901188    0.331954
     25          1           0        3.192059   -0.120496    1.625617
     26          1           0        5.565347   -0.201246    2.181064
     27          1           0        5.940218    1.009216    0.833176
 ---------------------------------------------------------------------

 SCF Done:  E(UB3LYP) =  -988.656797368     A.U. after   33 cycles
 SCF Done:  E(UB3LYP) =  -988.656797368     a.u. after    1 cycles

 The electronic state is 2-A.
 Alpha  occ. eigenvalues --  -88.75158 -18.98574 -14.24244 -14.18933 -14.18654
 Alpha  occ. eigenvalues --  -10.16569 -10.12734 -10.11192 -10.07563 -10.06517
 Alpha  occ. eigenvalues --  -10.06493 -10.06225 -10.05340 -10.04451  -7.83797
 Alpha  occ. eigenvalues --   -5.80173  -5.79831  -5.79180  -0.94136  -0.87656
 Alpha  occ. eigenvalues --   -0.82342  -0.72519  -0.69808  -0.68937  -0.63037
 Alpha  occ. eigenvalues --   -0.60120  -0.57724  -0.52965  -0.50446  -0.48230
 Alpha  occ. eigenvalues --   -0.45745  -0.42489  -0.37544  -0.37471  -0.36534
 Alpha  occ. eigenvalues --   -0.35631  -0.33349  -0.32463  -0.31864  -0.31076
 Alpha  occ. eigenvalues --   -0.30523  -0.29862  -0.28676  -0.27573  -0.26735
 Alpha  occ. eigenvalues --   -0.25440  -0.25223  -0.23351  -0.22929  -0.21633
 Alpha  occ. eigenvalues --   -0.20274  -0.16337  -0.15810  -0.15210  -0.10899
 Alpha  occ. eigenvalues --   -0.10320   0.04830
 Alpha virt. eigenvalues --    0.07172   0.07530   0.08407   0.08729   0.09312
 Alpha virt. eigenvalues --    0.09860   0.10248   0.10768   0.11460   0.11633
 Alpha virt. eigenvalues --    0.11942   0.12210   0.12366   0.13157   0.13467

  Beta  occ. eigenvalues --  -88.75155 -18.98394 -14.24333 -14.18885 -14.18625
  Beta  occ. eigenvalues --  -10.16352 -10.12336 -10.11211 -10.07560 -10.06482
  Beta  occ. eigenvalues --  -10.06172 -10.06140 -10.05360 -10.04474  -7.83794
  Beta  occ. eigenvalues --   -5.80178  -5.79838  -5.79154  -0.93800  -0.87369
  Beta  occ. eigenvalues --   -0.82150  -0.72209  -0.69762  -0.68849  -0.62858
  Beta  occ. eigenvalues --   -0.59959  -0.57560  -0.52867  -0.50223  -0.47981
  Beta  occ. eigenvalues --   -0.45624  -0.42263  -0.37446  -0.37042  -0.36299
  Beta  occ. eigenvalues --   -0.35426  -0.33189  -0.32159  -0.31653  -0.30739
  Beta  occ. eigenvalues --   -0.30403  -0.29372  -0.28553  -0.27482  -0.25776
  Beta  occ. eigenvalues --   -0.25334  -0.25141  -0.23245  -0.22815  -0.21453
  Beta  occ. eigenvalues --   -0.19605  -0.16283  -0.15671  -0.14945  -0.10824
  Beta  occ. eigenvalues --   -0.09386
  Beta virt. eigenvalues --    0.07355   0.07553   0.08591   0.08931   0.09389
  Beta virt. eigenvalues --    0.09775   0.10385   0.10644   0.10927   0.11634
  Beta virt. eigenvalues --    0.11706   0.12278   0.12502   0.13008   0.13322

 Mulliken charges and spin densities:
               1          2
     1  C   -0.202833  -0.481586
     2  C   -0.243289   0.327380
     3  N   -0.033635   0.052864
     4  N    0.053827   0.002764
     5  C   -0.153774   0.196756
     6  N   -0.122519  -0.049973
     7  C    0.128118   0.112142
     8  O   -0.396700   0.064508
     9  C   -0.597296  -0.046575
    10  S    0.025523   0.021048
    11  C   -0.147431  -0.009080
    12  C    0.619392  -1.011199
    13  C   -0.565942   0.851653
    14  C    0.130177  -0.742565
    15  H   -0.058620   0.204131
    16  H    0.172577  -0.021902
    17  H    0.148039  -0.009566
    18  H    0.365487   0.019912
    19  H    0.141864   0.067578
    20  H    0.203593   0.003447
    21  H   -0.037783   0.160887
    22  H   -0.165141   0.346162
    23  H   -0.535515   0.688434
    24  H    0.165231  -0.039511
    25  H    0.127652   0.057005
    26  H    0.097822  -0.006154
    27  H   -0.118826   0.241439
 Sum of Mulliken charges =  -1.00000   1.00000

 Dipole moment (field-independent basis, Debye):
    X=             -2.8795    Y=             -3.3117    Z=              2.4697  Tot=              5.0357
 Quadrupole moment (field-independent basis, Debye-Ang):
   XX=           -157.3648   YY=           -127.0102   ZZ=           -108.4237
   XY=             -0.6058   XZ=              5.8602   YZ=              1.6093

 Summary of Natural Population Analysis:

                                       Natural Population
                Natural  -----------------------------------------------
    Atom  No    Charge         Core      Valence    Rydberg      Total
 -----------------------------------------------------------------------
      C    1   -0.32507      0.99962     2.31982    0.00563     3.32507
      C    2    0.20371      0.99963     1.78003    0.01663     2.79629
      N    3   -0.19699      0.99960     2.68270    0.01469     3.69699
      N    4   -0.20904      0.99959     2.69543    0.01402     3.70904
      C    5    0.21183      0.99962     1.76821    0.02033     2.78817
      N    6   -0.33303      0.99960     2.82475    0.00868     3.83303
      C    7    0.36708      0.99970     1.61063    0.02259     2.63292
      O    8   -0.29638      0.99987     3.29039    0.00612     4.29638
      C    9   -0.29176      0.99957     2.28365    0.00854     3.29176
      S   10    0.11001      4.99957     2.87059    0.01983     7.88999
      C   11   -0.20465      0.99958     2.19464    0.01043     3.20465
      C   12   -0.20216      0.99960     2.19172    0.01084     3.20216
      C   13   -0.07544      0.99957     2.06628    0.00960     3.07544
      C   14   -0.20484      0.99956     2.19805    0.00723     3.20484
      H   15    0.10585      0.00000     0.39311    0.00103     0.39415
      H   16    0.11531      0.00000     0.38361    0.00108     0.38469
      H   17    0.10291      0.00000     0.39630    0.00079     0.39709
      H   18    0.21823      0.00000     0.27909    0.00268     0.28177
      H   19    0.11071      0.00000     0.38705    0.00224     0.38929
      H   20    0.11112      0.00000     0.38738    0.00150     0.38888
      H   21    0.09594      0.00000     0.40268    0.00138     0.40406
      H   22    0.10986      0.00000     0.38812    0.00202     0.39014
      H   23    0.09826      0.00000     0.39910    0.00264     0.40174
      H   24    0.10455      0.00000     0.39405    0.00140     0.39545
      H   25    0.09462      0.00000     0.40424    0.00114     0.40538
      H   26    0.08902      0.00000     0.41019    0.00079     0.41098
      H   27    0.09037      0.00000     0.40855    0.00108     0.40963
 =======================================================================
   * Total *    0.00000     17.99469    37.81037    0.19494    56.00000

 Normal termination of Gaussian 16 at Thu Dec 10 09:44:12 2020.
