 Gaussian 16, Revision A.03,

 -----------------------------------------------------------
 # opt freq B3LYP/6-31G(d) empiricaldispersion=gd3bj scf=xqc
 -----------------------------------------------------------

 --------------------------------
 CID_130354634_JID_10917_neutraal
 --------------------------------
 Symbolic Z-matrix:
 Charge =  0 Multiplicity = 1

 SCF Done:  E(RB3LYP) =  -916.260935104     A.U. after   14 cycles
 SCF Done:  E(RB3LYP) =  -916.246774463     A.U. after   13 cycles
 SCF Done:  E(RB3LYP) =  -916.272051667     A.U. after   12 cycles
 SCF Done:  E(RB3LYP) =  -916.266610436     A.U. after   14 cycles
 SCF Done:  E(RB3LYP) =  -916.274394721     A.U. after   12 cycles
 SCF Done:  E(RB3LYP) =  -916.275673733     A.U. after   12 cycles
 SCF Done:  E(RB3LYP) =  -916.276213854     A.U. after   13 cycles
 SCF Done:  E(RB3LYP) =  -916.277165931     A.U. after   12 cycles
 SCF Done:  E(RB3LYP) =  -916.277063078     A.U. after   13 cycles
 SCF Done:  E(RB3LYP) =  -916.277900315     A.U. after   12 cycles
 SCF Done:  E(RB3LYP) =  -916.282821184     A.U. after   11 cycles
 SCF Done:  E(RB3LYP) =  -916.282827607     A.U. after    9 cycles
 SCF Done:  E(RB3LYP) =  -916.282828003     A.U. after    8 cycles
 SCF Done:  E(RB3LYP) =  -916.282828198     A.U. after    7 cycles
 SCF Done:  E(RB3LYP) =  -916.282828269     A.U. after    7 cycles
 Optimization completed.
    -- Stationary point found.
 Normal termination of Gaussian 16 at Sat Dec 12 17:00:36 2020.

 --------------------------------------------------------------------
 #N Geom=AllCheck Guess=TCheck SCRF=Check GenChk RB3LYP/6-31G(d) Freq
 --------------------------------------------------------------------

 Structure from the checkpoint file:  "JID_10917.chk"
 --------------------------------
 CID_130354634_JID_10917_neutraal
 --------------------------------
 Charge =  0 Multiplicity = 1

 SCF Done:  E(RB3LYP) =  -916.282828269     A.U. after    1 cycles

  Exact polarizability: 196.248  -1.421 181.002  10.803   3.760 136.129
 Approx polarizability: 280.641   4.733 258.779  25.727  17.583 218.689

                      1                      2                      3
                      A                      A                      A
 Frequencies --     31.3357                37.2886                49.1367
 Red. masses --      4.1823                 4.1512                 4.3436
 Frc consts  --      0.0024                 0.0034                 0.0062
 IR Inten    --      0.1849                 0.1637                 0.1620

                      4                      5                      6
                      A                      A                      A
 Frequencies --     50.3542                64.2488                87.4583
 Red. masses --      5.2010                 3.9582                 3.8077
 Frc consts  --      0.0078                 0.0096                 0.0172
 IR Inten    --      0.6293                 0.9259                 0.9838

                      7                      8                      9
                      A                      A                      A
 Frequencies --     90.7823               102.2709               119.3587
 Red. masses --      6.1447                 4.0099                 2.8842
 Frc consts  --      0.0298                 0.0247                 0.0242
 IR Inten    --      4.3268                 3.0135                 0.2699

                     10                     11                     12
                      A                      A                      A
 Frequencies --    149.3252               180.5957               185.5841
 Red. masses --      5.4489                 1.4351                 4.6627
 Frc consts  --      0.0716                 0.0276                 0.0946
 IR Inten    --      1.4551                 0.3626                 2.2006

                     13                     14                     15
                      A                      A                      A
 Frequencies --    217.1941               241.0321               264.6320
 Red. masses --      5.6040                 2.1714                 3.0073
 Frc consts  --      0.1558                 0.0743                 0.1241
 IR Inten    --      0.8215                 0.0449                 0.5395

                     16                     17                     18
                      A                      A                      A
 Frequencies --    279.0022               284.0381               327.9051
 Red. masses --      2.4527                 1.6509                 3.9882
 Frc consts  --      0.1125                 0.0785                 0.2527
 IR Inten    --      0.7613                 0.9532                 1.6126

                     19                     20                     21
                      A                      A                      A
 Frequencies --    341.4535               348.6690               388.3478
 Red. masses --      2.3259                 3.9060                 4.7666
 Frc consts  --      0.1598                 0.2798                 0.4235
 IR Inten    --      1.5341                 0.7081                 4.1020

                     22                     23                     24
                      A                      A                      A
 Frequencies --    433.7819               466.5680               471.3867
 Red. masses --      2.5638                 6.9917                 3.9902
 Frc consts  --      0.2842                 0.8967                 0.5224
 IR Inten    --      0.1170                 0.5113                17.3182

                     25                     26                     27
                      A                      A                      A
 Frequencies --    512.0953               533.7479               541.2755
 Red. masses --      3.4917                 2.3233                 3.2524
 Frc consts  --      0.5395                 0.3900                 0.5614
 IR Inten    --      3.5623                 2.9608                11.6730

                     28                     29                     30
                      A                      A                      A
 Frequencies --    563.6470               616.3523               648.2240
 Red. masses --      2.4009                 1.4622                 3.9296
 Frc consts  --      0.4494                 0.3273                 0.9729
 IR Inten    --     57.4895                20.7867                 4.0683

                     31                     32                     33
                      A                      A                      A
 Frequencies --    669.0957               686.4665               718.3534
 Red. masses --      1.5503                 1.4462                 3.8271
 Frc consts  --      0.4089                 0.4015                 1.1636
 IR Inten    --    277.7083               106.6551                39.5984

                     34                     35                     36
                      A                      A                      A
 Frequencies --    729.4447               731.6505               768.2039
 Red. masses --      1.3509                 2.8779                 2.2622
 Frc consts  --      0.4235                 0.9077                 0.7866
 IR Inten    --      5.2123                14.9890                73.0404

                     37                     38                     39
                      A                      A                      A
 Frequencies --    776.7063               787.2214               801.1872
 Red. masses --      4.0802                 1.4226                 1.8785
 Frc consts  --      1.4503                 0.5194                 0.7105
 IR Inten    --     23.0099                10.9525                 2.8514

                     40                     41                     42
                      A                      A                      A
 Frequencies --    839.9393               853.4592               855.8817
 Red. masses --      4.0135                 1.9621                 1.9257
 Frc consts  --      1.6683                 0.8421                 0.8311
 IR Inten    --     27.1945                 1.3827                 8.0380

                     43                     44                     45
                      A                      A                      A
 Frequencies --    857.7539               887.0382               917.5971
 Red. masses --      2.6034                 3.0750                 1.4448
 Frc consts  --      1.1285                 1.4256                 0.7167
 IR Inten    --     17.3367                 5.9697                10.7416

                     46                     47                     48
                      A                      A                      A
 Frequencies --    931.2505               936.4997               944.9878
 Red. masses --      1.6453                 2.9830                 2.1015
 Frc consts  --      0.8407                 1.5414                 1.1057
 IR Inten    --      0.3623                14.4436                 0.5503

                     49                     50                     51
                      A                      A                      A
 Frequencies --    978.0473               989.5631               997.6556
 Red. masses --      3.0067                 3.5695                 1.8480
 Frc consts  --      1.6946                 2.0594                 1.0837
 IR Inten    --     20.6225                31.2465                 5.1666

                     52                     53                     54
                      A                      A                      A
 Frequencies --   1024.7847              1032.1655              1053.6001
 Red. masses --      1.8615                 2.2377                 1.5938
 Frc consts  --      1.1518                 1.4046                 1.0424
 IR Inten    --      1.8357                19.1062                 8.5108

                     55                     56                     57
                      A                      A                      A
 Frequencies --   1074.2144              1078.1490              1100.6424
 Red. masses --      2.4737                 2.2578                 2.4333
 Frc consts  --      1.6818                 1.5463                 1.7368
 IR Inten    --      4.1666                 6.7339                 9.5926

                     58                     59                     60
                      A                      A                      A
 Frequencies --   1110.4979              1119.7916              1144.2370
 Red. masses --      2.1006                 2.0515                 2.1458
 Frc consts  --      1.5263                 1.5156                 1.6552
 IR Inten    --      1.3074                57.0300                 1.9603

                     61                     62                     63
                      A                      A                      A
 Frequencies --   1147.0244              1157.3813              1191.8811
 Red. masses --      2.0098                 1.3101                 1.5737
 Frc consts  --      1.5579                 1.0340                 1.3172
 IR Inten    --      2.0301                13.9838                19.2752

                     64                     65                     66
                      A                      A                      A
 Frequencies --   1238.5905              1249.1298              1264.1927
 Red. masses --      1.4888                 1.5760                 1.5714
 Frc consts  --      1.3457                 1.4488                 1.4797
 IR Inten    --     30.7433                 6.5913               142.2866

                     67                     68                     69
                      A                      A                      A
 Frequencies --   1278.4401              1286.6187              1294.0298
 Red. masses --      1.2923                 1.7021                 1.3990
 Frc consts  --      1.2444                 1.6601                 1.3802
 IR Inten    --      5.0197                93.9832                13.7705

                     70                     71                     72
                      A                      A                      A
 Frequencies --   1307.4944              1317.8361              1320.3524
 Red. masses --      1.8658                 1.2873                 1.6722
 Frc consts  --      1.8793                 1.3172                 1.7176
 IR Inten    --     43.0328                36.7558                26.9252

                     73                     74                     75
                      A                      A                      A
 Frequencies --   1326.6907              1340.7810              1359.5987
 Red. masses --      1.5608                 1.2219                 1.6340
 Frc consts  --      1.6186                 1.2942                 1.7797
 IR Inten    --     23.0426                 7.3028               103.7305

                     76                     77                     78
                      A                      A                      A
 Frequencies --   1369.4559              1378.8937              1389.6216
 Red. masses --      1.4772                 1.2545                 1.6294
 Frc consts  --      1.6322                 1.4053                 1.8539
 IR Inten    --      5.6389                14.5357                48.3732

                     79                     80                     81
                      A                      A                      A
 Frequencies --   1398.7830              1403.0487              1408.2692
 Red. masses --      1.4598                 1.2903                 1.4534
 Frc consts  --      1.6828                 1.4965                 1.6983
 IR Inten    --     27.3794                 6.6622                 3.8002

                     82                     83                     84
                      A                      A                      A
 Frequencies --   1440.3863              1442.3325              1447.2690
 Red. masses --      1.3619                 1.3678                 1.6117
 Frc consts  --      1.6647                 1.6765                 1.9890
 IR Inten    --      3.4326                 3.2073                16.4510

                     85                     86                     87
                      A                      A                      A
 Frequencies --   1456.4893              1500.6156              1510.8962
 Red. masses --      1.6815                 2.3091                 1.0814
 Frc consts  --      2.1017                 3.0637                 1.4544
 IR Inten    --     60.6836               242.3200                 1.7440

                     88                     89                     90
                      A                      A                      A
 Frequencies --   1522.1280              1524.3940              1526.6108
 Red. masses --      1.0939                 1.0463                 1.0882
 Frc consts  --      1.4932                 1.4325                 1.4942
 IR Inten    --      0.6985                 1.6772                18.8528

                     91                     92                     93
                      A                      A                      A
 Frequencies --   1531.1344              1535.9407              1540.8008
 Red. masses --      1.0790                 1.0788                 1.0968
 Frc consts  --      1.4904                 1.4994                 1.5341
 IR Inten    --      5.2531                 9.9631                 6.2886

                     94                     95                     96
                      A                      A                      A
 Frequencies --   1544.9409              1685.1755              1764.5813
 Red. masses --      1.0844                 5.2815                 8.3296
 Frc consts  --      1.5250                 8.8369                15.2813
 IR Inten    --      3.4728                29.0516               482.1634

                     97                     98                     99
                      A                      A                      A
 Frequencies --   1806.3339              1816.7070              3015.7877
 Red. masses --      9.6672                 9.3759                 1.0717
 Frc consts  --     18.5844                18.2319                 5.7426
 IR Inten    --    519.2722                96.3684                33.7473

                    100                    101                    102
                      A                      A                      A
 Frequencies --   3022.6873              3033.9055              3041.9640
 Red. masses --      1.0616                 1.0610                 1.0662
 Frc consts  --      5.7149                 5.7542                 5.8131
 IR Inten    --     25.6300                28.6564                23.7114

                    103                    104                    105
                      A                      A                      A
 Frequencies --   3043.1700              3045.8656              3047.5809
 Red. masses --      1.0407                 1.0838                 1.0653
 Frc consts  --      5.6786                 5.9241                 5.8295
 IR Inten    --     30.3166                10.0116                33.0562

                    106                    107                    108
                      A                      A                      A
 Frequencies --   3055.7946              3067.6799              3078.8771
 Red. masses --      1.1004                 1.0947                 1.0864
 Frc consts  --      6.0539                 6.0698                 6.0678
 IR Inten    --     19.3202                24.4765                44.0923

                    109                    110                    111
                      A                      A                      A
 Frequencies --   3081.0826              3086.4632              3094.0166
 Red. masses --      1.0963                 1.0959                 1.0733
 Frc consts  --      6.1319                 6.1512                 6.0534
 IR Inten    --     15.5350                24.5175                 8.6838

                    112                    113                    114
                      A                      A                      A
 Frequencies --   3098.1099              3110.6830              3115.7988
 Red. masses --      1.0850                 1.1008                 1.1014
 Frc consts  --      6.1356                 6.2759                 6.2997
 IR Inten    --     57.2011                81.7402                47.5679

                    115                    116                    117
                      A                      A                      A
 Frequencies --   3144.8717              3234.2911              3281.6183
 Red. masses --      1.1039                 1.0922                 1.0998
 Frc consts  --      6.4328                 6.7314                 6.9783
 IR Inten    --     14.8703                 6.8055                 4.8306

                    118                    119                    120
                      A                      A                      A
 Frequencies --   3537.1305              3583.6227              3622.0541
 Red. masses --      1.0756                 1.0756                 1.0774
 Frc consts  --      7.9284                 8.1383                 8.3277
 IR Inten    --     10.4577                48.4683                62.1297

 - Thermochemistry -
 -------------------
 Temperature   298.150 Kelvin.  Pressure   1.00000 Atm.
 Atom     1 has atomic number  6 and mass  12.00000

 Molecular mass:   278.17428 amu.
 Principal axes and moments of inertia in atomic units:
                           1         2         3
     Eigenvalues --  4534.402326470.813449439.44099
           X            0.99976   0.02194  -0.00163
           Y           -0.02196   0.99960  -0.01756
           Z            0.00124   0.01759   0.99984
 This molecule is an asymmetric top.
 Rotational symmetry number  1.
 Warning -- assumption of classical behavior for rotation
           may cause significant error
 Rotational temperatures (Kelvin)      0.01910     0.01339     0.00918
 Rotational constants (GHZ):           0.39801     0.27890     0.19119
 Zero-point vibrational energy     953968.5 (Joules/Mol)
                                  228.00395 (Kcal/Mol)
 Warning -- explicit consideration of  29 degrees of freedom as
           vibrations may cause significant error
 Vibrational temperatures:     45.09    53.65    70.70    72.45    92.44
          (Kelvin)            125.83   130.62   147.15   171.73   214.85
                              259.84   267.01   312.49   346.79   380.75
                              401.42   408.67   471.78   491.28   501.66
                              558.75   624.12   671.29   678.22   736.79
                              767.94   778.77   810.96   886.79   932.65
                              962.68   987.67  1033.55  1049.51  1052.68
                             1105.27  1117.51  1132.64  1152.73  1208.49
                             1227.94  1231.42  1234.12  1276.25  1320.22
                             1339.86  1347.41  1359.63  1407.19  1423.76
                             1435.40  1474.44  1485.06  1515.90  1545.55
                             1551.22  1583.58  1597.76  1611.13  1646.30
                             1650.31  1665.21  1714.85  1782.06  1797.22
                             1818.89  1839.39  1851.16  1861.82  1881.19
                             1896.07  1899.69  1908.81  1929.08  1956.16
                             1970.34  1983.92  1999.36  2012.54  2018.67
                             2026.19  2072.39  2075.19  2082.30  2095.56
                             2159.05  2173.84  2190.00  2193.26  2196.45
                             2202.96  2209.88  2216.87  2222.83  2424.59
                             2538.84  2598.91  2613.84  4339.05  4348.97
                             4365.11  4376.71  4378.44  4382.32  4384.79
                             4396.61  4413.71  4429.82  4432.99  4440.73
                             4451.60  4457.49  4475.58  4482.94  4524.77
                             4653.42  4721.52  5089.14  5156.03  5211.33

 Zero-point correction=                           0.363347 (Hartree/Particle)
 Thermal correction to Energy=                    0.382895
 Thermal correction to Enthalpy=                  0.383839
 Thermal correction to Gibbs Free Energy=         0.314040
 Sum of electronic and zero-point Energies=           -915.919481
 Sum of electronic and thermal Energies=              -915.899933
 Sum of electronic and thermal Enthalpies=            -915.898989
 Sum of electronic and thermal Free Energies=         -915.968788

                     E (Thermal)             CV                S
                      KCal/Mol        Cal/Mol-Kelvin    Cal/Mol-Kelvin
 Total                  240.270             74.440            146.905
 Electronic               0.000              0.000              0.000
 Translational            0.889              2.981             42.768
 Rotational               0.889              2.981             33.981
 Vibrational            238.493             68.478             70.156
 Vibration     1          0.594              1.983              5.743
 Vibration     2          0.594              1.982              5.398
 Vibration     3          0.595              1.978              4.852
 Vibration     4          0.595              1.977              4.803
 Vibration     5          0.597              1.971              4.322
 Vibration     6          0.601              1.958              3.716
 Vibration     7          0.602              1.956              3.643
 Vibration     8          0.604              1.947              3.411
 Vibration     9          0.609              1.933              3.111
 Vibration    10          0.618              1.903              2.681
 Vibration    11          0.630              1.866              2.322
 Vibration    12          0.632              1.860              2.271
 Vibration    13          0.646              1.815              1.982
 Vibration    14          0.658              1.778              1.795
 Vibration    15          0.671              1.738              1.631
 Vibration    16          0.679              1.712              1.540
 Vibration    17          0.682              1.703              1.509
 Vibration    18          0.711              1.620              1.270
 Vibration    19          0.721              1.593              1.205
 Vibration    20          0.726              1.578              1.172
 Vibration    21          0.757              1.495              1.006
 Vibration    22          0.795              1.397              0.846
 Vibration    23          0.824              1.324              0.747
 Vibration    24          0.828              1.314              0.734
 Vibration    25          0.867              1.223              0.629
 Vibration    26          0.889              1.175              0.579
 Vibration    27          0.896              1.159              0.563
 Vibration    28          0.919              1.110              0.517
 Vibration    29          0.976              0.997              0.422

                           ! Non-Optimized Parameters !
 Normal termination of Gaussian 16 at Sat Dec 12 17:24:31 2020.

 ----------------------------------------------------------------------
 # B3LYP/6-311++G(d,p) empiricaldispersion=gd3bj scf=xqc pop=npa geom=c
 heck
 ----------------------------------------------------------------------

 ----------------------------------------
 CID_130354634_JID_10917_Energie_neutraal
 ----------------------------------------
 Structure from the checkpoint file:  "JID_10917.chk"
 Charge =  0 Multiplicity = 1

 SCF Done:  E(RB3LYP) =  -916.548246943     A.U. after   15 cycles
 Normal termination of Gaussian 16 at Sat Dec 12 17:34:21 2020.

 ----------------------------------------------------------------------
 # B3LYP/6-311++G(d,p) empiricaldispersion=gd3bj scf=xqc pop=npa geom=c
 heck
 ----------------------------------------------------------------------

 --------------------------------------
 CID_130354634_JID_10917_Energie_kation
 --------------------------------------
 Structure from the checkpoint file:  "JID_10917.chk"
 Charge =  1 Multiplicity = 2

 SCF Done:  E(UB3LYP) =  -916.251169572     A.U. after   25 cycles
 Normal termination of Gaussian 16 at Sat Dec 12 17:56:11 2020.
 Gaussian 16:  ES64L-G16RevA.03 25-Dec-2016

 ----------------------------------------------------------------------
 # B3LYP/6-311++G(d,p) empiricaldispersion=gd3bj scf=xqc pop=npa geom=c
 heck
 ----------------------------------------------------------------------

 -------------------------------------
 CID_130354634_JID_10917_Energie_anion
 -------------------------------------
 Structure from the checkpoint file:  "JID_10917.chk"
 Charge = -1 Multiplicity = 2

                         Standard orientation:
 ---------------------------------------------------------------------
 Center     Atomic      Atomic             Coordinates (Angstroms)
 Number     Number       Type             X           Y           Z
 ---------------------------------------------------------------------
      1          6           0       -2.046171   -2.597921    0.968195
      2          6           0       -3.182358   -2.383232   -0.035679
      3          6           0       -4.161759   -1.262263    0.353228
      4          6           0       -3.519313    0.117575    0.563605
      5          6           0       -2.791996    0.642437   -0.677864
      6          6           0       -2.077215    1.984721   -0.471047
      7          6           0       -1.046891    1.952859    0.689380
      8          6           0        0.077152    2.944998    0.469665
      9          8           0        0.007401    4.110642    0.811203
     10          7           0        1.237197    2.499420   -0.189181
     11          6           0        1.656884    1.181313   -0.429820
     12          7           0        2.816272    0.803747   -0.065891
     13          6           0        3.242110   -0.553884   -0.392439
     14          6           0        2.092575   -1.572299   -0.666746
     15          6           0        1.855064   -2.162542    0.714960
     16          6           0        2.918486   -1.868114    1.473478
     17          7           0        3.902440   -1.130749    0.793842
     18          6           0        0.844008   -0.970297   -1.272793
     19          8           0       -0.030898   -1.617396   -1.821296
     20          7           0        0.735129    0.401639   -1.129662
     21          1           0       -1.382632   -1.727746    1.022808
     22          1           0       -1.430430   -3.455739    0.676732
     23          1           0       -2.433640   -2.785246    1.977695
     24          1           0       -2.747847   -2.185191   -1.022397
     25          1           0       -3.752711   -3.315672   -0.137602
     26          1           0       -4.935552   -1.182821   -0.423092
     27          1           0       -4.682296   -1.549061    1.277549
     28          1           0       -4.295228    0.836527    0.861191
     29          1           0       -2.819543    0.062733    1.406992
     30          1           0       -2.060924   -0.104323   -1.010925
     31          1           0       -3.511533    0.747270   -1.501283
     32          1           0       -1.580643    2.274161   -1.409231
     33          1           0       -2.799940    2.784092   -0.273605
     34          1           0       -1.531381    2.243549    1.623778
     35          1           0       -0.654170    0.941327    0.822454
     36          1           0        2.009600    3.147347   -0.075223
     37          1           0        3.949896   -0.499278   -1.226127
     38          1           0        2.430543   -2.349545   -1.364542
     39          1           0        1.021541   -2.802448    0.964910
     40          1           0        3.113458   -2.184108    2.492155
     41          1           0        4.367060   -0.415717    1.347072
     42          1           0       -0.086373    0.835439   -1.529056
 ---------------------------------------------------------------------

 SCF Done:  E(UB3LYP) =  -916.546603084     A.U. after   33 cycles
 SCF Done:  E(UB3LYP) =  -916.546603084     a.u. after    2 cycles

 The electronic state is 2-A.
 Alpha  occ. eigenvalues --  -18.97699 -18.96105 -14.23245 -14.23021 -14.20605
 Alpha  occ. eigenvalues --  -14.15904 -10.15607 -10.14334 -10.13270 -10.11883
 Alpha  occ. eigenvalues --  -10.08967 -10.07881 -10.07214 -10.06990 -10.06989
 Alpha  occ. eigenvalues --  -10.06808 -10.06672 -10.06446 -10.05792 -10.04793
 Alpha  occ. eigenvalues --   -0.93352  -0.92062  -0.87168  -0.83604  -0.78620
 Alpha  occ. eigenvalues --   -0.75195  -0.71960  -0.68771  -0.66775  -0.64002
 Alpha  occ. eigenvalues --   -0.61883  -0.59388  -0.54546  -0.53632  -0.53076
 Alpha  occ. eigenvalues --   -0.50010  -0.47687  -0.45952  -0.45315  -0.43707
 Alpha  occ. eigenvalues --   -0.43063  -0.41273  -0.39041  -0.37761  -0.37229
 Alpha  occ. eigenvalues --   -0.35834  -0.34716  -0.33739  -0.32948  -0.32540
 Alpha  occ. eigenvalues --   -0.31986  -0.31414  -0.30292  -0.30115  -0.29722
 Alpha  occ. eigenvalues --   -0.29434  -0.28840  -0.28316  -0.28015  -0.26932
 Alpha  occ. eigenvalues --   -0.26111  -0.24729  -0.24432  -0.23899  -0.22694
 Alpha  occ. eigenvalues --   -0.22185  -0.21890  -0.21575  -0.21498  -0.16748
 Alpha  occ. eigenvalues --   -0.15670  -0.14497  -0.14072  -0.12841  -0.09711
 Alpha  occ. eigenvalues --    0.04871
 Alpha virt. eigenvalues --    0.06260   0.07824   0.07909   0.08284   0.09106
 Alpha virt. eigenvalues --    0.09461   0.09888   0.10312   0.10899   0.11034
 Alpha virt. eigenvalues --    0.11386   0.11488   0.11816   0.12442   0.12728

  Beta  occ. eigenvalues --  -18.97531 -18.95810 -14.23358 -14.23107 -14.20581
  Beta  occ. eigenvalues --  -14.15696 -10.15408 -10.14000 -10.12913 -10.11890
  Beta  occ. eigenvalues --  -10.08932 -10.07857 -10.07227 -10.07014 -10.06982
  Beta  occ. eigenvalues --  -10.06799 -10.06668 -10.06442 -10.05788 -10.04765
  Beta  occ. eigenvalues --   -0.93034  -0.91557  -0.86810  -0.83518  -0.78563
  Beta  occ. eigenvalues --   -0.74933  -0.71936  -0.68733  -0.66647  -0.63949
  Beta  occ. eigenvalues --   -0.61694  -0.59331  -0.54477  -0.53265  -0.52720
  Beta  occ. eigenvalues --   -0.49928  -0.47545  -0.45873  -0.45251  -0.43623
  Beta  occ. eigenvalues --   -0.42944  -0.41085  -0.38872  -0.37598  -0.37105
  Beta  occ. eigenvalues --   -0.35757  -0.34638  -0.33361  -0.32705  -0.32256
  Beta  occ. eigenvalues --   -0.31800  -0.31108  -0.30201  -0.29788  -0.29407
  Beta  occ. eigenvalues --   -0.29261  -0.28641  -0.28093  -0.27827  -0.26823
  Beta  occ. eigenvalues --   -0.25778  -0.24594  -0.24310  -0.23833  -0.22456
  Beta  occ. eigenvalues --   -0.22097  -0.21496  -0.21436  -0.20977  -0.16406
  Beta  occ. eigenvalues --   -0.15439  -0.14291  -0.13848  -0.11995  -0.09619
  Beta virt. eigenvalues --    0.06501   0.07733   0.07984   0.08268   0.09101
  Beta virt. eigenvalues --    0.09356   0.09670   0.10247   0.10733   0.10934
  Beta virt. eigenvalues --    0.11357   0.11452   0.11779   0.12148   0.12489

 Mulliken charges and spin densities:
               1          2
     1  C   -0.355922  -0.220216
     2  C   -0.336791   0.177217
     3  C    0.088364  -0.499326
     4  C   -0.237773   0.169045
     5  C    0.062487  -0.244282
     6  C   -0.498210   0.002808
     7  C    0.171840  -0.103240
     8  C   -0.402028   0.115124
     9  O   -0.351031   0.059467
    10  N   -0.135760  -0.054065
    11  C   -0.154593   0.148916
    12  N   -0.127653   0.116220
    13  C   -0.645312  -0.120358
    14  C    0.232915  -0.001515
    15  C   -0.074185  -0.233948
    16  C   -0.268527   0.113471
    17  N    0.062863  -0.015760
    18  C   -0.154771   0.207069
    19  O   -0.335690   0.109185
    20  N   -0.145168  -0.058842
    21  H    0.157403   0.018474
    22  H    0.110953   0.010490
    23  H    0.065922   0.058187
    24  H    0.194022   0.003906
    25  H    0.053357   0.097410
    26  H    0.037757   0.078532
    27  H   -0.081162   0.228193
    28  H   -0.085232   0.246512
    29  H    0.121086   0.006623
    30  H    0.077807  -0.002330
    31  H    0.181226  -0.027972
    32  H    0.120191   0.022609
    33  H    0.123865   0.034978
    34  H    0.093667   0.154354
    35  H    0.225480  -0.042177
    36  H    0.282118   0.040834
    37  H    0.077329   0.132730
    38  H   -0.021070   0.261548
    39  H    0.122409  -0.006123
    40  H    0.131284  -0.003705
    41  H    0.228651   0.019923
    42  H    0.387884   0.000033
 Sum of Mulliken charges =  -1.00000   1.00000

 Dipole moment (field-independent basis, Debye):
    X=             -0.8280    Y=             -1.0653    Z=              0.4356  Tot=              1.4178
 Quadrupole moment (field-independent basis, Debye-Ang):
   XX=           -172.2129   YY=           -177.1051   ZZ=           -139.5238
   XY=              1.8806   XZ=              7.4713   YZ=            -13.3793

 Summary of Natural Population Analysis:

                                       Natural Population
                Natural  -----------------------------------------------
    Atom  No    Charge         Core      Valence    Rydberg      Total
 -----------------------------------------------------------------------
      C    1   -0.28715      0.99967     2.28173    0.00574     3.28715
      C    2   -0.19692      0.99964     2.18873    0.00855     3.19692
      C    3   -0.18625      0.99963     2.17807    0.00855     3.18625
      C    4   -0.19330      0.99963     2.18480    0.00887     3.19330
      C    5   -0.19941      0.99962     2.19129    0.00850     3.19941
      C    6   -0.18510      0.99963     2.17647    0.00900     3.18510
      C    7   -0.24442      0.99959     2.23627    0.00856     3.24442
      C    8    0.37698      0.99968     1.60113    0.02221     2.62302
      O    9   -0.30421      0.99987     3.29837    0.00597     4.30421
      N   10   -0.34045      0.99965     2.83067    0.01014     3.84045
      C   11    0.35037      0.99958     1.63417    0.01588     2.64963
      N   12   -0.27181      0.99963     2.76270    0.00948     3.77181
      C   13    0.08172      0.99961     1.89934    0.01932     2.91828
      C   14   -0.17132      0.99955     2.15986    0.01191     3.17132
      C   15   -0.14103      0.99952     2.12946    0.01205     3.14103
      C   16    0.01299      0.99953     1.97713    0.01035     2.98701
      N   17   -0.32681      0.99972     2.81516    0.01193     3.82681
      C   18    0.39474      0.99965     1.58219    0.02342     2.60526
      O   19   -0.29522      0.99987     3.28983    0.00551     4.29522
      N   20   -0.34388      0.99964     2.83638    0.00787     3.84388
      H   21    0.10046      0.00000     0.39846    0.00108     0.39954
      H   22    0.10072      0.00000     0.39855    0.00074     0.39928
      H   23    0.08971      0.00000     0.40945    0.00084     0.41029
      H   24    0.10593      0.00000     0.39307    0.00100     0.39407
      H   25    0.09136      0.00000     0.40773    0.00091     0.40864
      H   26    0.09243      0.00000     0.40665    0.00092     0.40757
      H   27    0.09268      0.00000     0.40639    0.00093     0.40732
      H   28    0.09450      0.00000     0.40445    0.00105     0.40550
      H   29    0.09604      0.00000     0.40287    0.00109     0.40396
      H   30    0.10684      0.00000     0.39106    0.00210     0.39316
      H   31    0.09308      0.00000     0.40600    0.00092     0.40692
      H   32    0.09239      0.00000     0.40668    0.00093     0.40761
      H   33    0.10003      0.00000     0.39895    0.00102     0.39997
      H   34    0.11148      0.00000     0.38737    0.00115     0.38852
      H   35    0.10879      0.00000     0.39003    0.00118     0.39121
      H   36    0.20272      0.00000     0.29554    0.00175     0.29728
      H   37    0.09255      0.00000     0.40594    0.00152     0.40745
      H   38    0.11590      0.00000     0.38203    0.00206     0.38410
      H   39    0.10537      0.00000     0.39381    0.00082     0.39463
      H   40    0.09200      0.00000     0.40719    0.00081     0.40800
      H   41    0.18333      0.00000     0.31400    0.00268     0.31667
      H   42    0.20218      0.00000     0.29600    0.00182     0.29782
 =======================================================================
   * Total *    0.00000     19.99292    54.75596    0.25113    75.00000

 Normal termination of Gaussian 16 at Sat Dec 12 18:57:55 2020.
