 Gaussian 16, Revision A.03,

 -----------------------------------------------------------
 # opt freq B3LYP/6-31G(d) empiricaldispersion=gd3bj scf=xqc
 -----------------------------------------------------------

 ------------------------------
 CID_59189648_JID_3759_neutraal
 ------------------------------
 Symbolic Z-matrix:
 Charge =  0 Multiplicity = 1

 SCF Done:  E(RB3LYP) =  -580.501384404     A.U. after   15 cycles
 SCF Done:  E(RB3LYP) =  -580.503444922     A.U. after   12 cycles
 SCF Done:  E(RB3LYP) =  -580.503615965     A.U. after   12 cycles
 SCF Done:  E(RB3LYP) =  -580.503581549     A.U. after   11 cycles
 SCF Done:  E(RB3LYP) =  -580.503745136     A.U. after   11 cycles
 SCF Done:  E(RB3LYP) =  -580.503759378     A.U. after   10 cycles
 SCF Done:  E(RB3LYP) =  -580.503761435     A.U. after    8 cycles
 SCF Done:  E(RB3LYP) =  -580.503762091     A.U. after    8 cycles
 SCF Done:  E(RB3LYP) =  -580.503762258     A.U. after    7 cycles
 Optimization completed.
    -- Stationary point found.
 Normal termination of Gaussian 16 at Mon Dec 14 16:28:11 2020.

 --------------------------------------------------------------------
 #N Geom=AllCheck Guess=TCheck SCRF=Check GenChk RB3LYP/6-31G(d) Freq
 --------------------------------------------------------------------

 Structure from the checkpoint file:  "JID_3759.chk"
 ------------------------------
 CID_59189648_JID_3759_neutraal
 ------------------------------
 Charge =  0 Multiplicity = 1

 SCF Done:  E(RB3LYP) =  -580.503762258     A.U. after    1 cycles

  Exact polarizability: 193.644 -29.342 128.005   3.831   9.798  86.155
 Approx polarizability: 241.357 -66.965 214.844  -0.935  22.432 125.407

                      1                      2                      3
                      A                      A                      A
 Frequencies --     23.5087                44.9236                68.3760
 Red. masses --      3.4784                 3.0503                 3.3635
 Frc consts  --      0.0011                 0.0036                 0.0093
 IR Inten    --      0.5011                 0.1755                 0.3952

                      4                      5                      6
                      A                      A                      A
 Frequencies --     82.7541                99.1287               105.3707
 Red. masses --      3.4820                 3.1154                 2.2772
 Frc consts  --      0.0140                 0.0180                 0.0149
 IR Inten    --      0.5470                 1.2829                 0.2580

                      7                      8                      9
                      A                      A                      A
 Frequencies --    177.0624               200.8043               219.6061
 Red. masses --      1.5189                 3.0532                 1.1202
 Frc consts  --      0.0281                 0.0725                 0.0318
 IR Inten    --      1.1065                 0.8799                 0.1160

                     10                     11                     12
                      A                      A                      A
 Frequencies --    238.3697               252.5585               271.8459
 Red. masses --      2.0177                 1.8497                 2.5967
 Frc consts  --      0.0675                 0.0695                 0.1131
 IR Inten    --      0.3462                 2.2128                 1.9874

                     13                     14                     15
                      A                      A                      A
 Frequencies --    276.5789               281.8567               321.6253
 Red. masses --      1.1889                 1.3078                 2.5027
 Frc consts  --      0.0536                 0.0612                 0.1525
 IR Inten    --      1.1617                 1.7498                 2.2348

                     16                     17                     18
                      A                      A                      A
 Frequencies --    340.7371               359.0984               371.4162
 Red. masses --      2.6841                 3.6195                 3.1909
 Frc consts  --      0.1836                 0.2750                 0.2593
 IR Inten    --      1.2064                 0.7889                 4.0608

                     19                     20                     21
                      A                      A                      A
 Frequencies --    397.0885               421.4045               454.2660
 Red. masses --      2.5093                 2.0795                 2.4850
 Frc consts  --      0.2331                 0.2176                 0.3021
 IR Inten    --      0.9646                 1.2217                 6.0927

                     22                     23                     24
                      A                      A                      A
 Frequencies --    532.8271               593.6413               706.1951
 Red. masses --      3.2549                 4.1867                 3.2796
 Frc consts  --      0.5445                 0.8693                 0.9637
 IR Inten    --      2.4272                10.1266                 3.9495

                     25                     26                     27
                      A                      A                      A
 Frequencies --    720.0880               757.7100               819.8582
 Red. masses --      4.3253                 3.4383                 1.7520
 Frc consts  --      1.3214                 1.1630                 0.6938
 IR Inten    --      2.6039                 1.8930                 9.1903

                     28                     29                     30
                      A                      A                      A
 Frequencies --    871.1834               902.2748               926.1807
 Red. masses --      3.5601                 1.9462                 2.1287
 Frc consts  --      1.5919                 0.9335                 1.0759
 IR Inten    --     12.4345                 7.3616                 6.2060

                     31                     32                     33
                      A                      A                      A
 Frequencies --    943.0419               951.4566               956.1548
 Red. masses --      2.1810                 1.5739                 1.6046
 Frc consts  --      1.1428                 0.8395                 0.8643
 IR Inten    --      0.3985                23.3984                 2.1963

                     34                     35                     36
                      A                      A                      A
 Frequencies --    973.5708               979.1928               987.7222
 Red. masses --      1.2854                 1.2890                 1.1533
 Frc consts  --      0.7178                 0.7282                 0.6629
 IR Inten    --      0.5666                 0.7141                 1.1457

                     37                     38                     39
                      A                      A                      A
 Frequencies --   1049.8438              1058.3524              1074.9039
 Red. masses --      1.0935                 1.9333                 1.5446
 Frc consts  --      0.7101                 1.2759                 1.0515
 IR Inten    --     44.3503                60.0024                 0.5602

                     40                     41                     42
                      A                      A                      A
 Frequencies --   1078.9031              1101.1737              1120.8400
 Red. masses --      2.8263                 1.5193                 2.5114
 Frc consts  --      1.9383                 1.0854                 1.8589
 IR Inten    --    100.7352                 9.4454                24.1688

                     43                     44                     45
                      A                      A                      A
 Frequencies --   1201.6943              1255.0825              1257.3161
 Red. masses --      2.4124                 2.2493                 1.3944
 Frc consts  --      2.0525                 2.0876                 1.2987
 IR Inten    --      9.5491                85.0901                30.5918

                     46                     47                     48
                      A                      A                      A
 Frequencies --   1261.7775              1287.1209              1306.6724
 Red. masses --      2.1491                 2.7196                 2.9259
 Frc consts  --      2.0160                 2.6546                 2.9434
 IR Inten    --     35.9298               430.9835                87.4471

                     49                     50                     51
                      A                      A                      A
 Frequencies --   1334.7890              1347.4653              1352.2549
 Red. masses --      1.5925                 1.3427                 1.3710
 Frc consts  --      1.6717                 1.4364                 1.4771
 IR Inten    --      5.5514                 1.1211                25.7644

                     52                     53                     54
                      A                      A                      A
 Frequencies --   1364.1494              1421.0525              1427.6144
 Red. masses --      1.3530                 1.3246                 1.2691
 Frc consts  --      1.4834                 1.5760                 1.5240
 IR Inten    --     17.5719                21.4900                17.0029

                     55                     56                     57
                      A                      A                      A
 Frequencies --   1429.6978              1441.0258              1461.2356
 Red. masses --      1.2548                 1.2624                 1.2348
 Frc consts  --      1.5112                 1.5446                 1.5534
 IR Inten    --     10.1299                 3.6778                 5.5812

                     58                     59                     60
                      A                      A                      A
 Frequencies --   1505.9434              1509.8625              1512.4548
 Red. masses --      1.0452                 1.0482                 1.0770
 Frc consts  --      1.3966                 1.4079                 1.4516
 IR Inten    --      7.0398                 0.7260                 4.0257

                     61                     62                     63
                      A                      A                      A
 Frequencies --   1516.5168              1519.6729              1520.7492
 Red. masses --      1.0647                 1.0462                 1.0551
 Frc consts  --      1.4427                 1.4236                 1.4377
 IR Inten    --     14.7576                 1.9786                 5.1661

                     64                     65                     66
                      A                      A                      A
 Frequencies --   1536.6627              1539.9540              1551.1522
 Red. masses --      1.0599                 1.0637                 1.0633
 Frc consts  --      1.4746                 1.4862                 1.5073
 IR Inten    --      6.7496                10.6053                14.4849

                     67                     68                     69
                      A                      A                      A
 Frequencies --   1683.3243              1727.3603              1794.1330
 Red. masses --      5.9725                 5.1460                10.4578
 Frc consts  --      9.9711                 9.0466                19.8336
 IR Inten    --     24.9827                98.5534               340.3573

                     70                     71                     72
                      A                      A                      A
 Frequencies --   3032.8692              3039.4331              3043.7356
 Red. masses --      1.0379                 1.0352                 1.0359
 Frc consts  --      5.6247                 5.6346                 5.6544
 IR Inten    --     33.4511                25.6300                28.0296

                     73                     74                     75
                      A                      A                      A
 Frequencies --   3052.9107              3076.4115              3078.3814
 Red. masses --      1.0367                 1.0613                 1.0995
 Frc consts  --      5.6928                 5.9178                 6.1388
 IR Inten    --     16.9255                40.9789                19.2839

                     76                     77                     78
                      A                      A                      A
 Frequencies --   3103.6659              3107.5912              3113.0102
 Red. masses --      1.1021                 1.1014                 1.1022
 Frc consts  --      6.2548                 6.2667                 6.2932
 IR Inten    --      5.0102                49.3110                13.1415

                     79                     80                     81
                      A                      A                      A
 Frequencies --   3117.5197              3123.1944              3126.7119
 Red. masses --      1.1013                 1.0987                 1.1013
 Frc consts  --      6.3063                 6.3144                 6.3435
 IR Inten    --     44.0707                 8.1891                43.1834

                     82                     83                     84
                      A                      A                      A
 Frequencies --   3130.2745              3143.8221              3149.4328
 Red. masses --      1.1024                 1.1041                 1.0921
 Frc consts  --      6.3645                 6.4297                 6.3822
 IR Inten    --     26.6728                13.2116                 7.9304

                     85                     86                     87
                      A                      A                      A
 Frequencies --   3156.8245              3190.3237              3207.7883
 Red. masses --      1.0873                 1.0903                 1.0890
 Frc consts  --      6.3842                 6.5382                 6.6024
 IR Inten    --     32.2276                 4.4839                 9.8878

 - Thermochemistry -
 -------------------
 Temperature   298.150 Kelvin.  Pressure   1.00000 Atm.
 Atom     1 has atomic number  6 and mass  12.00000

 Molecular mass:   182.13068 amu.
 Principal axes and moments of inertia in atomic units:
                           1         2         3
     Eigenvalues --  1206.024105933.597556640.38663
           X            1.00000   0.00290   0.00016
           Y           -0.00290   0.99995   0.00965
           Z           -0.00014  -0.00965   0.99995
 This molecule is an asymmetric top.
 Rotational symmetry number  1.
 Warning -- assumption of classical behavior for rotation
           may cause significant error
 Rotational temperatures (Kelvin)      0.07182     0.01460     0.01304
 Rotational constants (GHZ):           1.49644     0.30416     0.27178
 Zero-point vibrational energy     712819.6 (Joules/Mol)
                                  170.36797 (Kcal/Mol)
 Warning -- explicit consideration of  23 degrees of freedom as
           vibrations may cause significant error
 Vibrational temperatures:     33.82    64.64    98.38   119.06   142.62
          (Kelvin)            151.60   254.75   288.91   315.96   342.96
                              363.38   391.13   397.94   405.53   462.75
                              490.24   516.66   534.39   571.32   606.31
                              653.59   766.62   854.12  1016.06  1036.05
                             1090.18  1179.59  1253.44  1298.17  1332.57
                             1356.83  1368.93  1375.69  1400.75  1408.84
                             1421.11  1510.49  1522.73  1546.55  1552.30
                             1584.34  1612.64  1728.97  1805.78  1809.00
                             1815.42  1851.88  1880.01  1920.46  1938.70
                             1945.59  1962.71  2044.58  2054.02  2057.02
                             2073.31  2102.39  2166.72  2172.36  2176.09
                             2181.93  2186.47  2188.02  2210.91  2215.65
                             2231.76  2421.93  2485.29  2581.36  4363.62
                             4373.07  4379.26  4392.46  4426.27  4429.10
                             4465.48  4471.13  4478.93  4485.42  4493.58
                             4498.64  4503.77  4523.26  4531.33  4541.97
                             4590.16  4615.29

 Zero-point correction=                           0.271499 (Hartree/Particle)
 Thermal correction to Energy=                    0.286950
 Thermal correction to Enthalpy=                  0.287894
 Thermal correction to Gibbs Free Energy=         0.228066
 Sum of electronic and zero-point Energies=           -580.232264
 Sum of electronic and thermal Energies=              -580.216812
 Sum of electronic and thermal Enthalpies=            -580.215868
 Sum of electronic and thermal Free Energies=         -580.275697

                     E (Thermal)             CV                S
                      KCal/Mol        Cal/Mol-Kelvin    Cal/Mol-Kelvin
 Total                  180.064             56.195            125.920
 Electronic               0.000              0.000              0.000
 Translational            0.889              2.981             41.505
 Rotational               0.889              2.981             32.230
 Vibrational            178.286             50.234             52.185
 Vibration     1          0.593              1.985              6.313
 Vibration     2          0.595              1.979              5.029
 Vibration     3          0.598              1.969              4.200
 Vibration     4          0.600              1.961              3.824
 Vibration     5          0.604              1.950              3.471
 Vibration     6          0.605              1.945              3.352
 Vibration     7          0.628              1.871              2.359
 Vibration     8          0.638              1.839              2.126
 Vibration     9          0.647              1.811              1.962
 Vibration    10          0.656              1.782              1.815
 Vibration    11          0.664              1.758              1.713
 Vibration    12          0.675              1.725              1.584
 Vibration    13          0.678              1.717              1.555
 Vibration    14          0.681              1.707              1.522
 Vibration    15          0.707              1.632              1.302
 Vibration    16          0.720              1.594              1.209
 Vibration    17          0.734              1.557              1.126
 Vibration    18          0.743              1.531              1.074
 Vibration    19          0.764              1.476              0.973
 Vibration    20          0.784              1.424              0.887
 Vibration    21          0.813              1.351              0.783
 Vibration    22          0.888              1.177              0.581
 Vibration    23          0.951              1.045              0.461

                           ! Non-Optimized Parameters !
 Normal termination of Gaussian 16 at Mon Dec 14 16:34:34 2020.

 ----------------------------------------------------------------------
 # B3LYP/6-311++G(d,p) empiricaldispersion=gd3bj scf=xqc pop=npa geom=c
 heck
 ----------------------------------------------------------------------

 --------------------------------------
 CID_59189648_JID_3759_Energie_neutraal
 --------------------------------------
 Structure from the checkpoint file:  "JID_3759.chk"
 Charge =  0 Multiplicity = 1

 SCF Done:  E(RB3LYP) =  -580.671310897     A.U. after   15 cycles
 Normal termination of Gaussian 16 at Mon Dec 14 16:37:54 2020.

 ----------------------------------------------------------------------
 # B3LYP/6-311++G(d,p) empiricaldispersion=gd3bj scf=xqc pop=npa geom=c
 heck
 ----------------------------------------------------------------------

 ------------------------------------
 CID_59189648_JID_3759_Energie_kation
 ------------------------------------
 Structure from the checkpoint file:  "JID_3759.chk"
 Charge =  1 Multiplicity = 2

 SCF Done:  E(UB3LYP) =  -580.357278757     A.U. after   25 cycles
 Normal termination of Gaussian 16 at Mon Dec 14 16:45:38 2020.
 Gaussian 16:  ES64L-G16RevA.03 25-Dec-2016

 ----------------------------------------------------------------------
 # B3LYP/6-311++G(d,p) empiricaldispersion=gd3bj scf=xqc pop=npa geom=c
 heck
 ----------------------------------------------------------------------

 -----------------------------------
 CID_59189648_JID_3759_Energie_anion
 -----------------------------------
 Structure from the checkpoint file:  "JID_3759.chk"
 Charge = -1 Multiplicity = 2

                         Standard orientation:
 ---------------------------------------------------------------------
 Center     Atomic      Atomic             Coordinates (Angstroms)
 Number     Number       Type             X           Y           Z
 ---------------------------------------------------------------------
      1          6           0        5.672910   -1.011698    0.139605
      2          6           0        4.204522   -0.891032   -0.118961
      3          6           0        3.462076    0.202431    0.129779
      4          6           0        2.041690    0.275758   -0.136415
      5          6           0        1.280147    1.360946    0.107740
      6          6           0       -0.166247    1.441020   -0.149126
      7          8           0       -0.841041    2.420555    0.108546
      8          8           0       -0.659959    0.300935   -0.703359
      9          6           0       -2.080038    0.238582   -0.934845
     10          6           0       -2.780546   -0.660338    0.095295
     11          6           0       -2.575885   -0.102732    1.513193
     12          6           0       -4.278569   -0.664925   -0.251608
     13          6           0       -2.218873   -2.088496    0.010401
     14          1           0        6.085242   -0.090940    0.564178
     15          1           0        6.218811   -1.237862   -0.786360
     16          1           0        5.884329   -1.835607    0.834615
     17          1           0        3.711794   -1.767127   -0.542957
     18          1           0        3.936110    1.088067    0.553380
     19          1           0        1.569208   -0.607721   -0.560350
     20          1           0        1.704351    2.266313    0.532115
     21          1           0       -2.484640    1.252558   -0.909683
     22          1           0       -2.193896   -0.175900   -1.941763
     23          1           0       -2.917565    0.934862    1.585866
     24          1           0       -3.132813   -0.703061    2.241950
     25          1           0       -1.519083   -0.128295    1.798299
     26          1           0       -4.452621   -1.037750   -1.268538
     27          1           0       -4.829820   -1.312163    0.439722
     28          1           0       -4.706091    0.342276   -0.181521
     29          1           0       -2.379755   -2.518549   -0.985926
     30          1           0       -1.143306   -2.096730    0.213443
     31          1           0       -2.709378   -2.741372    0.741686
 ---------------------------------------------------------------------

 SCF Done:  E(UB3LYP) =  -580.678655914     A.U. after   30 cycles

 The electronic state is 2-A.
 Alpha  occ. eigenvalues --  -19.00446 -18.92636 -10.11205 -10.09445 -10.07804
 Alpha  occ. eigenvalues --  -10.06472 -10.05385 -10.04672 -10.04253 -10.01116
 Alpha  occ. eigenvalues --  -10.00655  -9.99750  -9.98852  -0.94007  -0.84850
 Alpha  occ. eigenvalues --   -0.71709  -0.65909  -0.62038  -0.58875  -0.58156
 Alpha  occ. eigenvalues --   -0.57933  -0.54030  -0.46512  -0.43314  -0.40873
 Alpha  occ. eigenvalues --   -0.40257  -0.36193  -0.36113  -0.33226  -0.33036
 Alpha  occ. eigenvalues --   -0.31900  -0.30902  -0.29164  -0.29019  -0.28822
 Alpha  occ. eigenvalues --   -0.27849  -0.27284  -0.26316  -0.25930  -0.23773
 Alpha  occ. eigenvalues --   -0.23163  -0.22650  -0.22375  -0.21790  -0.19852
 Alpha  occ. eigenvalues --   -0.19336  -0.16501  -0.15113  -0.11190  -0.08060
 Alpha  occ. eigenvalues --    0.05172
 Alpha virt. eigenvalues --    0.06771   0.08456   0.09093   0.09275   0.10545
 Alpha virt. eigenvalues --    0.10997   0.11463   0.11654   0.12260   0.12386
 Alpha virt. eigenvalues --    0.12757   0.13383   0.14724   0.14910   0.15510

  Beta  occ. eigenvalues --  -19.00397 -18.92311 -10.11005 -10.09447 -10.07800
  Beta  occ. eigenvalues --  -10.06464 -10.05378 -10.04669 -10.04293 -10.01178
  Beta  occ. eigenvalues --  -10.00158  -9.99385  -9.98678  -0.93774  -0.84368
  Beta  occ. eigenvalues --   -0.71687  -0.65286  -0.61488  -0.58857  -0.58006
  Beta  occ. eigenvalues --   -0.57875  -0.53789  -0.45960  -0.42897  -0.40694
  Beta  occ. eigenvalues --   -0.39889  -0.36122  -0.36023  -0.33105  -0.32880
  Beta  occ. eigenvalues --   -0.31600  -0.30756  -0.29116  -0.28586  -0.28560
  Beta  occ. eigenvalues --   -0.27554  -0.26890  -0.26300  -0.25752  -0.23634
  Beta  occ. eigenvalues --   -0.22975  -0.22329  -0.22122  -0.21613  -0.19652
  Beta  occ. eigenvalues --   -0.19185  -0.14874  -0.14121  -0.10854  -0.05826
  Beta virt. eigenvalues --    0.06763   0.08408   0.09049   0.09209   0.10431
  Beta virt. eigenvalues --    0.10923   0.11315   0.11456   0.12041   0.12156
  Beta virt. eigenvalues --    0.12309   0.12712   0.13311   0.14642   0.14813

 Mulliken charges and spin densities:
               1          2
     1  C   -0.655150  -0.031349
     2  C   -0.028107   0.332865
     3  C   -0.252078  -0.088529
     4  C   -0.447894   0.335600
     5  C    0.416322   0.007817
     6  C   -0.330721   0.236076
     7  O   -0.350134   0.104648
     8  O    0.027933   0.005115
     9  C   -0.386736  -0.101171
    10  C    0.379865   0.266927
    11  C   -0.513000  -0.084182
    12  C   -0.384007  -0.191709
    13  C   -0.321332  -0.157049
    14  H    0.120186   0.000767
    15  H    0.100230   0.019011
    16  H    0.088340   0.030983
    17  H    0.107237  -0.021611
    18  H    0.032403   0.000307
    19  H    0.046356  -0.020015
    20  H    0.147281  -0.011354
    21  H    0.219250  -0.016102
    22  H    0.097818   0.041890
    23  H    0.132857   0.025244
    24  H    0.104078   0.015264
    25  H    0.172620  -0.003638
    26  H    0.031104   0.094027
    27  H    0.074039   0.055431
    28  H    0.094837   0.033541
    29  H    0.075187   0.047730
    30  H    0.135594   0.025325
    31  H    0.065623   0.048140
 Sum of Mulliken charges =  -1.00000   1.00000

 Dipole moment (field-independent basis, Debye):
    X=             -4.3048    Y=             -3.4397    Z=              0.0465  Tot=              5.5105
 Quadrupole moment (field-independent basis, Debye-Ang):
   XX=           -130.3656   YY=           -105.5824   ZZ=            -91.9807
   XY=              4.9861   XZ=              0.9743   YZ=             -0.0070

 Summary of Natural Population Analysis:

                                       Natural Population
                Natural  -----------------------------------------------
    Atom  No    Charge         Core      Valence    Rydberg      Total
 -----------------------------------------------------------------------
      C    1   -0.30175      0.99967     2.29776    0.00432     3.30175
      C    2    0.01175      0.99956     1.97948    0.00921     2.98825
      C    3   -0.13812      0.99951     2.12896    0.00965     3.13812
      C    4   -0.01020      0.99953     2.00168    0.00899     3.01020
      C    5   -0.13469      0.99949     2.12545    0.00975     3.13469
      C    6    0.40881      0.99965     1.56779    0.02375     2.59119
      O    7   -0.30601      0.99987     3.30068    0.00545     4.30601
      O    8   -0.29587      0.99986     3.28654    0.00946     4.29587
      C    9   -0.01324      0.99950     2.00124    0.01251     3.01324
      C   10   -0.06201      0.99959     2.05229    0.01013     3.06201
      C   11   -0.28695      0.99963     2.28101    0.00631     3.28695
      C   12   -0.28299      0.99963     2.27774    0.00563     3.28299
      C   13   -0.28557      0.99963     2.27986    0.00607     3.28557
      H   14    0.09275      0.00000     0.40623    0.00102     0.40725
      H   15    0.09541      0.00000     0.40336    0.00123     0.40459
      H   16    0.09567      0.00000     0.40311    0.00123     0.40433
      H   17    0.07464      0.00000     0.42362    0.00174     0.42536
      H   18    0.08197      0.00000     0.41646    0.00156     0.41803
      H   19    0.08839      0.00000     0.41040    0.00120     0.41161
      H   20    0.08804      0.00000     0.41042    0.00154     0.41196
      H   21    0.10166      0.00000     0.39663    0.00172     0.39834
      H   22    0.08343      0.00000     0.41537    0.00119     0.41657
      H   23    0.10556      0.00000     0.39326    0.00119     0.39444
      H   24    0.09017      0.00000     0.40892    0.00091     0.40983
      H   25    0.10968      0.00000     0.38918    0.00114     0.39032
      H   26    0.09639      0.00000     0.40254    0.00107     0.40361
      H   27    0.09606      0.00000     0.40298    0.00095     0.40394
      H   28    0.09912      0.00000     0.39991    0.00097     0.40088
      H   29    0.09493      0.00000     0.40410    0.00097     0.40507
      H   30    0.11051      0.00000     0.38833    0.00116     0.38949
      H   31    0.09245      0.00000     0.40661    0.00094     0.40755
 =======================================================================
   * Total *    0.00000     12.99512    36.86192    0.14296    50.00000

 Normal termination of Gaussian 16 at Mon Dec 14 16:54:58 2020.
