 Gaussian 16, Revision A.03,

 -----------------------------------------------------------
 # opt freq B3LYP/6-31G(d) empiricaldispersion=gd3bj scf=xqc
 -----------------------------------------------------------

 -------------------------------
 CID_138333009_JID_8486_neutraal
 -------------------------------
 Symbolic Z-matrix:
 Charge =  0 Multiplicity = 1

 SCF Done:  E(RB3LYP) =  -896.048758397     A.U. after   15 cycles
 SCF Done:  E(RB3LYP) =  -896.055429709     A.U. after   13 cycles
 SCF Done:  E(RB3LYP) =  -896.055597803     A.U. after   12 cycles
 SCF Done:  E(RB3LYP) =  -896.056379330     A.U. after   13 cycles
 SCF Done:  E(RB3LYP) =  -896.056856611     A.U. after   12 cycles
 SCF Done:  E(RB3LYP) =  -896.056927200     A.U. after   12 cycles
 SCF Done:  E(RB3LYP) =  -896.056831070     A.U. after   13 cycles
 SCF Done:  E(RB3LYP) =  -896.057044760     A.U. after   12 cycles
 SCF Done:  E(RB3LYP) =  -896.057062794     A.U. after   11 cycles
 SCF Done:  E(RB3LYP) =  -896.057066494     A.U. after   10 cycles
 SCF Done:  E(RB3LYP) =  -896.057070555     A.U. after    8 cycles
 SCF Done:  E(RB3LYP) =  -896.057071027     A.U. after    9 cycles
 SCF Done:  E(RB3LYP) =  -896.057071224     A.U. after    8 cycles
 SCF Done:  E(RB3LYP) =  -896.057071276     A.U. after    7 cycles
 SCF Done:  E(RB3LYP) =  -896.057071310     A.U. after    7 cycles
 Optimization completed.
    -- Stationary point found.
 Normal termination of Gaussian 16 at Fri Dec 11 20:54:37 2020.

 --------------------------------------------------------------------
 #N Geom=AllCheck Guess=TCheck SCRF=Check GenChk RB3LYP/6-31G(d) Freq
 --------------------------------------------------------------------

 Structure from the checkpoint file:  "JID_8486.chk"
 -------------------------------
 CID_138333009_JID_8486_neutraal
 -------------------------------
 Charge =  0 Multiplicity = 1

 SCF Done:  E(RB3LYP) =  -896.057071310     A.U. after    1 cycles

  Exact polarizability: 201.670  -3.093 144.626   1.557  20.385  97.719
 Approx polarizability: 289.630  -9.689 232.897   0.133  56.938 158.326

                      1                      2                      3
                      A                      A                      A
 Frequencies --     34.0386                39.1708                42.1729
 Red. masses --      6.3995                10.1078                 5.4332
 Frc consts  --      0.0044                 0.0091                 0.0057
 IR Inten    --      0.3342                 1.8725                 0.5829

                      4                      5                      6
                      A                      A                      A
 Frequencies --     49.0512                51.9311                58.6490
 Red. masses --      5.0824                 7.0787                 7.7620
 Frc consts  --      0.0072                 0.0112                 0.0157
 IR Inten    --      4.2223                 2.6687                 0.8845

                      7                      8                      9
                      A                      A                      A
 Frequencies --     99.8430               102.4734               153.9417
 Red. masses --      4.5203                 5.8167                 1.0976
 Frc consts  --      0.0265                 0.0360                 0.0153
 IR Inten    --      0.0230                 0.4489                 0.1170

                     10                     11                     12
                      A                      A                      A
 Frequencies --    161.1392               179.1814               243.6430
 Red. masses --      5.4461                 3.7250                 4.6738
 Frc consts  --      0.0833                 0.0705                 0.1635
 IR Inten    --      0.6256                 1.4864                 2.9189

                     13                     14                     15
                      A                      A                      A
 Frequencies --    290.6522               304.1962               338.4017
 Red. masses --      3.9515                 5.5039                 7.9965
 Frc consts  --      0.1967                 0.3001                 0.5395
 IR Inten    --      0.6579                 1.5821                 4.5938

                     16                     17                     18
                      A                      A                      A
 Frequencies --    357.6427               396.2594               426.1356
 Red. masses --      4.8290                 3.8072                 2.9532
 Frc consts  --      0.3639                 0.3522                 0.3160
 IR Inten    --     10.6156                 2.5794                 1.3535

                     19                     20                     21
                      A                      A                      A
 Frequencies --    445.8759               478.0329               499.4711
 Red. masses --      2.2973                 4.0395                 2.7809
 Frc consts  --      0.2691                 0.5439                 0.4088
 IR Inten    --      5.0047                14.7295                 6.3438

                     22                     23                     24
                      A                      A                      A
 Frequencies --    517.4264               519.6724               530.5555
 Red. masses --      2.5984                 3.1368                 2.8577
 Frc consts  --      0.4099                 0.4991                 0.4739
 IR Inten    --     32.1980                19.6779                 7.2429

                     25                     26                     27
                      A                      A                      A
 Frequencies --    586.3527               605.7861               613.2918
 Red. masses --      3.4002                 1.2672                 3.6492
 Frc consts  --      0.6888                 0.2740                 0.8087
 IR Inten    --     36.5651                51.8313                26.8435

                     28                     29                     30
                      A                      A                      A
 Frequencies --    647.7419               664.3328               701.8163
 Red. masses --      4.1710                 2.6185                 2.6199
 Frc consts  --      1.0311                 0.6809                 0.7603
 IR Inten    --     22.4694                74.7027                91.7372

                     31                     32                     33
                      A                      A                      A
 Frequencies --    718.7387               731.2675               775.2275
 Red. masses --      3.2054                 3.3611                 3.8352
 Frc consts  --      0.9756                 1.0590                 1.3580
 IR Inten    --     27.3215                 2.2358                 5.0856

                     34                     35                     36
                      A                      A                      A
 Frequencies --    777.9084               825.6573               832.7703
 Red. masses --      4.9676                 3.7859                 1.3117
 Frc consts  --      1.7711                 1.5206                 0.5360
 IR Inten    --     55.4859                 3.8244                 1.1442

                     37                     38                     39
                      A                      A                      A
 Frequencies --    853.3066               857.7990               877.2749
 Red. masses --      2.0615                 3.6381                 1.5847
 Frc consts  --      0.8844                 1.5773                 0.7186
 IR Inten    --     30.0697                 3.9255                 4.0284

                     40                     41                     42
                      A                      A                      A
 Frequencies --    975.0362               983.1123               989.0080
 Red. masses --      1.3163                 2.4223                 1.3376
 Frc consts  --      0.7373                 1.3794                 0.7709
 IR Inten    --      0.0141                35.3881                 1.7570

                     43                     44                     45
                      A                      A                      A
 Frequencies --   1013.8807              1029.4527              1044.7489
 Red. masses --      1.8301                 3.3681                 2.3396
 Frc consts  --      1.1084                 2.1031                 1.5046
 IR Inten    --      4.0986                 1.4848                20.0257

                     46                     47                     48
                      A                      A                      A
 Frequencies --   1106.3874              1126.6495              1170.1200
 Red. masses --      2.5760                 3.6981                 1.4688
 Frc consts  --      1.8578                 2.7657                 1.1848
 IR Inten    --      4.1872               154.2635                 9.8106

                     49                     50                     51
                      A                      A                      A
 Frequencies --   1190.4034              1206.6431              1226.7017
 Red. masses --      2.1559                 1.4854                 1.7652
 Frc consts  --      1.8000                 1.2742                 1.5650
 IR Inten    --    219.4873               404.5551                23.4483

                     52                     53                     54
                      A                      A                      A
 Frequencies --   1235.5801              1257.8940              1276.4205
 Red. masses --      2.9462                 1.3630                 1.5783
 Frc consts  --      2.6501                 1.2707                 1.5150
 IR Inten    --     97.7667                24.1072                33.5698

                     55                     56                     57
                      A                      A                      A
 Frequencies --   1303.4614              1352.6393              1364.7544
 Red. masses --      1.6587                 1.4511                 1.6069
 Frc consts  --      1.6604                 1.5643                 1.7634
 IR Inten    --     15.8638                47.3271                 7.3697

                     58                     59                     60
                      A                      A                      A
 Frequencies --   1375.8099              1380.6436              1398.6796
 Red. masses --      3.4133                 1.4615                 2.7753
 Frc consts  --      3.8066                 1.6414                 3.1989
 IR Inten    --     20.4952               117.7434                30.6763

                     61                     62                     63
                      A                      A                      A
 Frequencies --   1402.1762              1412.7943              1424.9047
 Red. masses --      2.7589                 1.3183                 1.9882
 Frc consts  --      3.1959                 1.5503                 2.3783
 IR Inten    --    178.6291                33.4348               113.1464

                     64                     65                     66
                      A                      A                      A
 Frequencies --   1477.7868              1488.0169              1496.6140
 Red. masses --      1.5903                 1.0570                 1.5885
 Frc consts  --      2.0462                 1.3789                 2.0963
 IR Inten    --     12.4148                12.4954                 9.4115

                     67                     68                     69
                      A                      A                      A
 Frequencies --   1501.1722              1518.7752              1576.4166
 Red. masses --      1.0570                 1.1179                 2.6301
 Frc consts  --      1.4034                 1.5193                 3.8509
 IR Inten    --      6.5865                20.6653                83.8116

                     70                     71                     72
                      A                      A                      A
 Frequencies --   1618.0089              1672.8472              1815.3108
 Red. masses --      6.5786                 5.5872                 9.5514
 Frc consts  --     10.1472                 9.2120                18.5446
 IR Inten    --     10.7088               324.2452               372.8529

                     73                     74                     75
                      A                      A                      A
 Frequencies --   1822.9585              1854.9075              3057.5707
 Red. masses --     10.7539                10.1500                 1.0377
 Frc consts  --     21.0556                20.5759                 5.7160
 IR Inten    --    147.4194               255.7824                 3.6020

                     76                     77                     78
                      A                      A                      A
 Frequencies --   3063.5954              3082.4863              3109.7019
 Red. masses --      1.0595                 1.0627                 1.1033
 Frc consts  --      5.8587                 5.9493                 6.2861
 IR Inten    --     19.2215                19.8351                 6.8929

                     79                     80                     81
                      A                      A                      A
 Frequencies --   3117.4414              3128.0999              3172.8459
 Red. masses --      1.0989                 1.1031                 1.1030
 Frc consts  --      6.2921                 6.3598                 6.5420
 IR Inten    --      7.4884                 4.2807                11.1084

                     82                     83                     84
                      A                      A                      A
 Frequencies --   3220.4965              3224.5533              3235.6745
 Red. masses --      1.0879                 1.0875                 1.0930
 Frc consts  --      6.6479                 6.6624                 6.7419
 IR Inten    --      2.4740                 3.1577                 8.0534

                     85                     86                     87
                      A                      A                      A
 Frequencies --   3238.9516              3686.6427              3703.6028
 Red. masses --      1.0939                 1.0642                 1.0642
 Frc consts  --      6.7612                 8.5217                 8.6002
 IR Inten    --      3.9109                64.3058                81.9840

 - Thermochemistry -
 -------------------
 Temperature   298.150 Kelvin.  Pressure   1.00000 Atm.
 Atom     1 has atomic number  6 and mass  12.00000

 Molecular mass:   251.07937 amu.
 Principal axes and moments of inertia in atomic units:
                           1         2         3
     Eigenvalues --  3422.792266891.283109379.75046
           X            0.99997  -0.00366   0.00691
           Y            0.00373   0.99995  -0.00974
           Z           -0.00687   0.00976   0.99993
 This molecule is an asymmetric top.
 Rotational symmetry number  1.
 Warning -- assumption of classical behavior for rotation
           may cause significant error
 Rotational temperatures (Kelvin)      0.02531     0.01257     0.00923
 Rotational constants (GHZ):           0.52727     0.26189     0.19241
 Zero-point vibrational energy     637138.3 (Joules/Mol)
                                  152.27971 (Kcal/Mol)
 Warning -- explicit consideration of  27 degrees of freedom as
           vibrations may cause significant error
 Vibrational temperatures:     48.97    56.36    60.68    70.57    74.72
          (Kelvin)             84.38   143.65   147.44   221.49   231.84
                              257.80   350.55   418.18   437.67   486.88
                              514.57   570.13   613.11   641.52   687.78
                              718.63   744.46   747.69   763.35   843.63
                              871.59   882.39   931.96   955.83  1009.76
                             1034.10  1052.13  1115.38  1119.24  1187.94
                             1198.17  1227.72  1234.18  1262.20  1402.86
                             1414.48  1422.96  1458.75  1481.15  1503.16
                             1591.84  1621.00  1683.54  1712.73  1736.09
                             1764.95  1777.72  1809.83  1836.48  1875.39
                             1946.15  1963.58  1979.48  1986.44  2012.39
                             2017.42  2032.70  2050.12  2126.21  2140.92
                             2153.29  2159.85  2185.18  2268.11  2327.95
                             2406.85  2611.83  2622.83  2668.80  4399.16
                             4407.83  4435.01  4474.17  4485.30  4500.64
                             4565.02  4633.58  4639.41  4655.41  4660.13
                             5304.26  5328.66

 Zero-point correction=                           0.242673 (Hartree/Particle)
 Thermal correction to Energy=                    0.259951
 Thermal correction to Enthalpy=                  0.260895
 Thermal correction to Gibbs Free Energy=         0.194858
 Sum of electronic and zero-point Energies=           -895.814398
 Sum of electronic and thermal Energies=              -895.797120
 Sum of electronic and thermal Enthalpies=            -895.796176
 Sum of electronic and thermal Free Energies=         -895.862213

                     E (Thermal)             CV                S
                      KCal/Mol        Cal/Mol-Kelvin    Cal/Mol-Kelvin
 Total                  163.122             63.363            138.987
 Electronic               0.000              0.000              0.000
 Translational            0.889              2.981             42.462
 Rotational               0.889              2.981             33.758
 Vibrational            161.344             57.402             62.767
 Vibration     1          0.594              1.983              5.579
 Vibration     2          0.594              1.981              5.301
 Vibration     3          0.595              1.980              5.154
 Vibration     4          0.595              1.978              4.855
 Vibration     5          0.596              1.977              4.742
 Vibration     6          0.596              1.974              4.502
 Vibration     7          0.604              1.949              3.457
 Vibration     8          0.605              1.947              3.407
 Vibration     9          0.619              1.898              2.623
 Vibration    10          0.622              1.890              2.536
 Vibration    11          0.629              1.868              2.337
 Vibration    12          0.659              1.773              1.776
 Vibration    13          0.687              1.691              1.470
 Vibration    14          0.695              1.666              1.394
 Vibration    15          0.719              1.599              1.220
 Vibration    16          0.733              1.560              1.132
 Vibration    17          0.763              1.478              0.976
 Vibration    18          0.788              1.413              0.871
 Vibration    19          0.805              1.370              0.808
 Vibration    20          0.835              1.299              0.715
 Vibration    21          0.855              1.251              0.659
 Vibration    22          0.872              1.211              0.616
 Vibration    23          0.875              1.206              0.611
 Vibration    24          0.886              1.182              0.586
 Vibration    25          0.943              1.061              0.474
 Vibration    26          0.964              1.020              0.440
 Vibration    27          0.973              1.004              0.427

 Optimization completed.
    -- Stationary point found.
 Normal termination of Gaussian 16 at Fri Dec 11 21:06:17 2020.

 ----------------------------------------------------------------------
 # B3LYP/6-311++G(d,p) empiricaldispersion=gd3bj scf=xqc pop=npa geom=c
 heck
 ----------------------------------------------------------------------

 ---------------------------------------
 CID_138333009_JID_8486_Energie_neutraal
 ---------------------------------------
 Structure from the checkpoint file:  "JID_8486.chk"
 Charge =  0 Multiplicity = 1

 SCF Done:  E(RB3LYP) =  -896.331345678     A.U. after   15 cycles
 Normal termination of Gaussian 16 at Fri Dec 11 21:11:45 2020.

 ----------------------------------------------------------------------
 # B3LYP/6-311++G(d,p) empiricaldispersion=gd3bj scf=xqc pop=npa geom=c
 heck
 ----------------------------------------------------------------------

 -------------------------------------
 CID_138333009_JID_8486_Energie_kation
 -------------------------------------
 Structure from the checkpoint file:  "JID_8486.chk"
 Charge =  1 Multiplicity = 2

 SCF Done:  E(UB3LYP) =  -896.042073225     A.U. after   22 cycles
 Normal termination of Gaussian 16 at Fri Dec 11 21:23:10 2020.
 Gaussian 16:  ES64L-G16RevA.03 25-Dec-2016

 ----------------------------------------------------------------------
 # B3LYP/6-311++G(d,p) empiricaldispersion=gd3bj scf=xqc pop=npa geom=c
 heck
 ----------------------------------------------------------------------

 ------------------------------------
 CID_138333009_JID_8486_Energie_anion
 ------------------------------------
 Structure from the checkpoint file:  "JID_8486.chk"
 Charge = -1 Multiplicity = 2

                         Standard orientation:
 ---------------------------------------------------------------------
 Center     Atomic      Atomic             Coordinates (Angstroms)
 Number     Number       Type             X           Y           Z
 ---------------------------------------------------------------------
      1          6           0        2.194009   -2.511209    1.513351
      2          6           0        2.352628   -2.380392    0.014959
      3          8           0        2.516934   -3.332810   -0.720593
      4          6           0        2.330932   -0.961369   -0.578126
      5          7           0        1.585301    0.011721    0.199769
      6          6           0        2.279290    1.165022    0.721765
      7          6           0        2.244375    2.409855   -0.166334
      8          8           0        2.274780    3.544194    0.249818
      9          8           0        2.214026    2.090367   -1.478381
     10          6           0        0.196623    0.023250    0.127994
     11          6           0       -0.556618    1.105522    0.637848
     12          6           0       -1.941094    1.086839    0.584885
     13          6           0       -2.630468    0.004616    0.023677
     14          6           0       -1.889758   -1.066384   -0.492722
     15          6           0       -0.503443   -1.061864   -0.446405
     16          6           0       -4.104678    0.045619   -0.003112
     17          8           0       -4.790200    0.952999    0.429808
     18          8           0       -4.659023   -1.058982   -0.574306
     19          1           0        2.387874   -3.543089    1.810662
     20          1           0        1.174541   -2.229890    1.801509
     21          1           0        2.871262   -1.830435    2.042317
     22          1           0        3.373253   -0.629807   -0.634599
     23          1           0        1.971365   -1.025157   -1.611227
     24          1           0        1.890674    1.456406    1.700992
     25          1           0        3.331863    0.902968    0.870415
     26          1           0        2.197951    2.934106   -1.968545
     27          1           0       -0.067251    1.972888    1.063384
     28          1           0       -2.514624    1.921035    0.974690
     29          1           0       -2.405996   -1.910702   -0.935228
     30          1           0        0.030888   -1.909399   -0.857542
     31          1           0       -5.621826   -0.914134   -0.532669
 ---------------------------------------------------------------------

 SCF Done:  E(UB3LYP) =  -896.337625904     A.U. after   33 cycles
 SCF Done:  E(UB3LYP) =  -896.337625904     a.u. after    1 cycles

 The electronic state is 2-A.
 Alpha  occ. eigenvalues --  -19.08085 -19.05599 -19.02277 -19.00506 -18.98606
 Alpha  occ. eigenvalues --  -14.23748 -10.20810 -10.17376 -10.14919 -10.12345
 Alpha  occ. eigenvalues --  -10.10728 -10.10719 -10.07156 -10.06948 -10.06229
 Alpha  occ. eigenvalues --  -10.06154 -10.05855 -10.05794  -1.01988  -0.99185
 Alpha  occ. eigenvalues --   -0.94037  -0.93135  -0.89767  -0.86051  -0.74468
 Alpha  occ. eigenvalues --   -0.67605  -0.66382  -0.64042  -0.62990  -0.59334
 Alpha  occ. eigenvalues --   -0.54298  -0.52229  -0.50156  -0.47502  -0.44860
 Alpha  occ. eigenvalues --   -0.43079  -0.41259  -0.39918  -0.39382  -0.38360
 Alpha  occ. eigenvalues --   -0.37251  -0.36818  -0.36008  -0.34946  -0.33746
 Alpha  occ. eigenvalues --   -0.33359  -0.33030  -0.31905  -0.31810  -0.31364
 Alpha  occ. eigenvalues --   -0.30850  -0.29801  -0.29110  -0.28694  -0.26840
 Alpha  occ. eigenvalues --   -0.26566  -0.25016  -0.23802  -0.23203  -0.21759
 Alpha  occ. eigenvalues --   -0.20796  -0.18613  -0.16618  -0.15271  -0.15052
 Alpha  occ. eigenvalues --   -0.10327   0.03668
 Alpha virt. eigenvalues --    0.05593   0.06705   0.07425   0.07657   0.08013
 Alpha virt. eigenvalues --    0.08968   0.09636   0.09952   0.10474   0.11061
 Alpha virt. eigenvalues --    0.11763   0.12403   0.12537   0.13375   0.14212

  Beta  occ. eigenvalues --  -19.08058 -19.05557 -19.02236 -19.00392 -18.98469
  Beta  occ. eigenvalues --  -14.23712 -10.20709 -10.17203 -10.14766 -10.12320
  Beta  occ. eigenvalues --  -10.10727 -10.10539 -10.07153 -10.06919 -10.06294
  Beta  occ. eigenvalues --  -10.06171 -10.05799 -10.05619  -1.01887  -0.99011
  Beta  occ. eigenvalues --   -0.93802  -0.93056  -0.89555  -0.85920  -0.74300
  Beta  occ. eigenvalues --   -0.67463  -0.66134  -0.63901  -0.62848  -0.59165
  Beta  occ. eigenvalues --   -0.54070  -0.52070  -0.50068  -0.47322  -0.44683
  Beta  occ. eigenvalues --   -0.42925  -0.41125  -0.39830  -0.39241  -0.38174
  Beta  occ. eigenvalues --   -0.37088  -0.36588  -0.35852  -0.34772  -0.33214
  Beta  occ. eigenvalues --   -0.33032  -0.32887  -0.31801  -0.31706  -0.31301
  Beta  occ. eigenvalues --   -0.30735  -0.29681  -0.29020  -0.28625  -0.26676
  Beta  occ. eigenvalues --   -0.26166  -0.24537  -0.23635  -0.23081  -0.21297
  Beta  occ. eigenvalues --   -0.20452  -0.18298  -0.16484  -0.15059  -0.14624
  Beta  occ. eigenvalues --   -0.09914
  Beta virt. eigenvalues --    0.06586   0.07346   0.07577   0.07619   0.07986
  Beta virt. eigenvalues --    0.08848   0.09436   0.09819   0.10323   0.10698
  Beta virt. eigenvalues --    0.11185   0.11842   0.12471   0.12568   0.13439

 Mulliken charges and spin densities:
               1          2
     1  C   -0.083253  -0.403297
     2  C   -0.382138   0.544508
     3  O   -0.270659   0.038250
     4  C    0.236151  -0.779701
     5  N    0.454716   0.015815
     6  C   -0.079057  -0.343902
     7  C    0.111697  -0.120854
     8  O   -0.263801   0.024108
     9  O   -0.161908   0.022599
    10  C   -0.786952   0.392064
    11  C    0.026074  -0.282326
    12  C   -0.288912   0.061985
    13  C    0.441105  -0.075264
    14  C   -0.299777   0.044804
    15  C   -0.085854  -0.028229
    16  C    0.202695   0.060507
    17  O   -0.384397   0.049813
    18  O   -0.214951   0.008454
    19  H    0.120979   0.047650
    20  H    0.154331   0.001923
    21  H   -0.100352   0.256531
    22  H   -0.396539   0.606026
    23  H    0.263898  -0.039634
    24  H    0.225506  -0.006399
    25  H   -0.568032   0.794001
    26  H    0.125078   0.161805
    27  H    0.188307  -0.026013
    28  H    0.184579  -0.003425
    29  H    0.191277   0.004685
    30  H    0.167205  -0.025690
    31  H    0.272983  -0.000793
 Sum of Mulliken charges =  -1.00000   1.00000

 Dipole moment (field-independent basis, Debye):
    X=             -2.0096    Y=             -0.5448    Z=             -0.2834  Tot=              2.1014
 Quadrupole moment (field-independent basis, Debye-Ang):
   XX=           -176.9128   YY=           -148.7872   ZZ=           -118.7566
   XY=             11.4947   XZ=              4.5951   YZ=             -7.9142

 Summary of Natural Population Analysis:

                                       Natural Population
                Natural  -----------------------------------------------
    Atom  No    Charge         Core      Valence    Rydberg      Total
 -----------------------------------------------------------------------
      C    1   -0.33931      0.99961     2.33451    0.00519     3.33931
      C    2    0.30312      0.99969     1.67575    0.02144     2.69688
      O    3   -0.28297      0.99987     3.27665    0.00645     4.28297
      C    4   -0.13066      0.99956     2.11869    0.01241     3.13066
      N    5   -0.24773      0.99964     2.73530    0.01279     3.74773
      C    6   -0.12986      0.99956     2.11829    0.01201     3.12986
      C    7    0.41150      0.99973     1.56289    0.02588     2.58850
      O    8   -0.30765      0.99987     3.30175    0.00603     4.30765
      O    9   -0.34196      0.99987     3.33575    0.00634     4.34196
      C   10    0.13538      0.99949     1.85516    0.00997     2.86462
      C   11   -0.15117      0.99954     2.14478    0.00686     3.15117
      C   12   -0.02990      0.99955     2.02198    0.00836     3.02990
      C   13   -0.10104      0.99945     2.09182    0.00978     3.10104
      C   14   -0.06434      0.99955     2.05648    0.00831     3.06434
      C   15   -0.14591      0.99953     2.13909    0.00728     3.14591
      C   16    0.41495      0.99965     1.56102    0.02438     2.58505
      O   17   -0.31699      0.99987     3.30980    0.00732     4.31699
      O   18   -0.35300      0.99988     3.34737    0.00575     4.35300
      H   19    0.10611      0.00000     0.39302    0.00087     0.39389
      H   20    0.11726      0.00000     0.38198    0.00076     0.38274
      H   21    0.11024      0.00000     0.38833    0.00143     0.38976
      H   22    0.11692      0.00000     0.38020    0.00287     0.38308
      H   23    0.10767      0.00000     0.39109    0.00124     0.39233
      H   24    0.10869      0.00000     0.39021    0.00110     0.39131
      H   25    0.11825      0.00000     0.37880    0.00295     0.38175
      H   26    0.23981      0.00000     0.25663    0.00357     0.26019
      H   27    0.10251      0.00000     0.39596    0.00152     0.39749
      H   28    0.10576      0.00000     0.39326    0.00098     0.39424
      H   29    0.10487      0.00000     0.39416    0.00097     0.39513
      H   30    0.10571      0.00000     0.39302    0.00126     0.39429
      H   31    0.23371      0.00000     0.26326    0.00303     0.26629
 =======================================================================
   * Total *    0.00000     17.99394    47.78697    0.21909    66.00000

 Normal termination of Gaussian 16 at Fri Dec 11 21:40:55 2020.
