 Gaussian 16, Revision A.03,

 -----------------------------------------------------------
 # opt freq B3LYP/6-31G(d) empiricaldispersion=gd3bj scf=xqc
 -----------------------------------------------------------

 ------------------------------
 CID_65244847_JID_4904_neutraal
 ------------------------------
 Symbolic Z-matrix:
 Charge =  0 Multiplicity = 1

 SCF Done:  E(RB3LYP) =  -617.116460040     A.U. after   13 cycles
 SCF Done:  E(RB3LYP) =  -617.133766329     A.U. after   10 cycles
 SCF Done:  E(RB3LYP) =  -617.134134314     A.U. after   11 cycles
 SCF Done:  E(RB3LYP) =  -617.136517734     A.U. after   11 cycles
 SCF Done:  E(RB3LYP) =  -617.137439892     A.U. after   10 cycles
 SCF Done:  E(RB3LYP) =  -617.138351214     A.U. after   11 cycles
 SCF Done:  E(RB3LYP) =  -617.140263253     A.U. after   11 cycles
 SCF Done:  E(RB3LYP) =  -617.106528846     A.U. after   11 cycles
 SCF Done:  E(RB3LYP) =  -617.143215748     A.U. after   11 cycles
 SCF Done:  E(RB3LYP) =  -617.145775613     A.U. after   11 cycles
 SCF Done:  E(RB3LYP) =  -617.147948477     A.U. after    8 cycles
 SCF Done:  E(RB3LYP) =  -617.147949520     A.U. after    8 cycles
 SCF Done:  E(RB3LYP) =  -617.147950434     A.U. after    8 cycles
 SCF Done:  E(RB3LYP) =  -617.147950603     A.U. after    7 cycles
 SCF Done:  E(RB3LYP) =  -617.147950667     A.U. after    6 cycles
 SCF Done:  E(RB3LYP) =  -617.147950698     A.U. after    6 cycles
 Optimization completed.
    -- Stationary point found.
 Normal termination of Gaussian 16 at Thu Dec 10 11:07:29 2020.

 --------------------------------------------------------------------
 #N Geom=AllCheck Guess=TCheck SCRF=Check GenChk RB3LYP/6-31G(d) Freq
 --------------------------------------------------------------------

 Structure from the checkpoint file:  "JID_4904.chk"
 ------------------------------
 CID_65244847_JID_4904_neutraal
 ------------------------------
 Charge =  0 Multiplicity = 1

 SCF Done:  E(RB3LYP) =  -617.147950698     A.U. after    1 cycles

  Exact polarizability: 134.693  -0.099 129.975  -1.832  -0.456 117.957
 Approx polarizability: 173.742   2.629 178.471  -3.519   0.632 177.729

                      1                      2                      3
                      A                      A                      A
 Frequencies --     37.8832                50.6394                73.4473
 Red. masses --      3.1951                 3.2134                 2.7711
 Frc consts  --      0.0027                 0.0049                 0.0088
 IR Inten    --      0.3337                 0.1099                 1.2946

                      4                      5                      6
                      A                      A                      A
 Frequencies --     90.4819               116.0190               141.8721
 Red. masses --      3.1322                 3.0665                 2.6674
 Frc consts  --      0.0151                 0.0243                 0.0316
 IR Inten    --      0.5529                 0.9340                 1.0401

                      7                      8                      9
                      A                      A                      A
 Frequencies --    173.1115               201.6361               222.6186
 Red. masses --      2.7399                 2.3117                 2.6491
 Frc consts  --      0.0484                 0.0554                 0.0774
 IR Inten    --      3.4203                 1.5475                 2.7011

                     10                     11                     12
                      A                      A                      A
 Frequencies --    265.7197               283.9881               300.7301
 Red. masses --      1.5118                 2.6909                 1.2340
 Frc consts  --      0.0629                 0.1279                 0.0658
 IR Inten    --      0.6133                 3.4613                44.9250

                     13                     14                     15
                      A                      A                      A
 Frequencies --    310.1845               344.8315               371.2743
 Red. masses --      2.0374                 1.9907                 2.2475
 Frc consts  --      0.1155                 0.1395                 0.1825
 IR Inten    --      7.7551                 1.2845                 9.7310

                     16                     17                     18
                      A                      A                      A
 Frequencies --    402.6237               441.6846               466.5685
 Red. masses --      2.3126                 2.3155                 2.3950
 Frc consts  --      0.2209                 0.2661                 0.3072
 IR Inten    --      1.3869                 6.3872                 5.0883

                     19                     20                     21
                      A                      A                      A
 Frequencies --    497.7856               536.3714               544.8926
 Red. masses --      3.3762                 2.5420                 2.7547
 Frc consts  --      0.4929                 0.4309                 0.4819
 IR Inten    --      9.6139                 2.4346                 3.3293

                     22                     23                     24
                      A                      A                      A
 Frequencies --    612.2445               724.7201               746.1876
 Red. masses --      3.0389                 1.6899                 2.6762
 Frc consts  --      0.6711                 0.5229                 0.8779
 IR Inten    --      0.8949                 2.9430                12.6870

                     25                     26                     27
                      A                      A                      A
 Frequencies --    795.0266               813.1993               846.7312
 Red. masses --      2.1889                 1.9536                 2.6020
 Frc consts  --      0.8151                 0.7611                 1.0991
 IR Inten    --      4.5923                 2.7461                 0.9815

                     28                     29                     30
                      A                      A                      A
 Frequencies --    854.6752               871.0489               890.5769
 Red. masses --      2.1255                 1.4794                 2.4989
 Frc consts  --      0.9148                 0.6614                 1.1677
 IR Inten    --     22.5827               125.4259                 4.2419

                     31                     32                     33
                      A                      A                      A
 Frequencies --    904.5725               912.3337               939.4108
 Red. masses --      1.7169                 1.3505                 2.2904
 Frc consts  --      0.8277                 0.6623                 1.1909
 IR Inten    --      3.9893                10.6418                 0.7990

                     34                     35                     36
                      A                      A                      A
 Frequencies --    957.9601               979.4497              1003.7533
 Red. masses --      2.9916                 1.7646                 1.9147
 Frc consts  --      1.6175                 0.9974                 1.1366
 IR Inten    --      2.7556                 6.1807                44.9242

                     37                     38                     39
                      A                      A                      A
 Frequencies --   1040.2788              1042.4850              1065.7967
 Red. masses --      1.7493                 1.8572                 1.7986
 Frc consts  --      1.1154                 1.1892                 1.2037
 IR Inten    --      6.5298                 5.5518                16.2107

                     40                     41                     42
                      A                      A                      A
 Frequencies --   1078.3295              1083.1264              1095.8027
 Red. masses --      1.6458                 2.5008                 2.5434
 Frc consts  --      1.1275                 1.7286                 1.7994
 IR Inten    --      4.9070                29.1417                38.9880

                     43                     44                     45
                      A                      A                      A
 Frequencies --   1114.9059              1129.1449              1141.7401
 Red. masses --      2.4463                 1.8757                 1.3069
 Frc consts  --      1.7916                 1.4090                 1.0038
 IR Inten    --     14.2992                 6.3121                 7.3812

                     46                     47                     48
                      A                      A                      A
 Frequencies --   1150.8473              1166.3738              1173.8172
 Red. masses --      1.3699                 1.4190                 2.3696
 Frc consts  --      1.0690                 1.1374                 1.9236
 IR Inten    --      5.1169                 3.6721                 9.7851

                     49                     50                     51
                      A                      A                      A
 Frequencies --   1191.5326              1232.5230              1250.7442
 Red. masses --      2.5884                 1.6870                 1.5863
 Frc consts  --      2.1652                 1.5099                 1.4621
 IR Inten    --      8.0425                35.7329                38.1643

                     52                     53                     54
                      A                      A                      A
 Frequencies --   1264.6159              1274.3284              1281.7098
 Red. masses --      1.4058                 1.4748                 1.3793
 Frc consts  --      1.3246                 1.4111                 1.3351
 IR Inten    --      5.6906                12.9937                12.2864

                     55                     56                     57
                      A                      A                      A
 Frequencies --   1296.1092              1298.5462              1312.3773
 Red. masses --      1.4403                 1.3800                 1.2898
 Frc consts  --      1.4256                 1.3710                 1.3089
 IR Inten    --      7.8892                 6.2335                 2.2606

                     58                     59                     60
                      A                      A                      A
 Frequencies --   1341.2102              1345.6322              1365.7536
 Red. masses --      1.4374                 1.2800                 2.0589
 Frc consts  --      1.5235                 1.3656                 2.2627
 IR Inten    --     22.2068                 1.4964                51.4448

                     61                     62                     63
                      A                      A                      A
 Frequencies --   1372.2267              1388.0575              1396.3093
 Red. masses --      1.3311                 1.3226                 1.4410
 Frc consts  --      1.4767                 1.5014                 1.6553
 IR Inten    --      7.5449                 0.4122                 3.3318

                     64                     65                     66
                      A                      A                      A
 Frequencies --   1400.7594              1412.9048              1424.6754
 Red. masses --      1.6062                 1.3474                 1.3422
 Frc consts  --      1.8568                 1.5848                 1.6050
 IR Inten    --      5.5234                 3.5143                 6.7616

                     67                     68                     69
                      A                      A                      A
 Frequencies --   1435.5147              1442.2062              1444.8560
 Red. masses --      1.2767                 1.2836                 1.3112
 Frc consts  --      1.5501                 1.5730                 1.6127
 IR Inten    --     11.8757                 2.9420                 4.1252

                     70                     71                     72
                      A                      A                      A
 Frequencies --   1446.6809              1499.4171              1509.1001
 Red. masses --      1.4599                 1.0906                 1.0834
 Frc consts  --      1.8002                 1.4446                 1.4537
 IR Inten    --     23.2650                 7.7178                 0.5892

                     73                     74                     75
                      A                      A                      A
 Frequencies --   1512.8979              1517.8743              1529.8773
 Red. masses --      1.0949                 1.0742                 1.0553
 Frc consts  --      1.4765                 1.4582                 1.4553
 IR Inten    --      4.7505                 1.3947                 4.4234

                     76                     77                     78
                      A                      A                      A
 Frequencies --   1537.7703              1542.9861              1548.6284
 Red. masses --      1.0861                 1.0535                 1.0840
 Frc consts  --      1.5133                 1.4777                 1.5316
 IR Inten    --      4.0953                 4.0377                 3.6134

                     79                     80                     81
                      A                      A                      A
 Frequencies --   1569.3252              1697.2523              2950.4880
 Red. masses --      1.1226                 1.0959                 1.0665
 Frc consts  --      1.6289                 1.8600                 5.4701
 IR Inten    --      8.6948                24.9448                78.0123

                     82                     83                     84
                      A                      A                      A
 Frequencies --   2964.8205              2974.1901              3032.1554
 Red. masses --      1.0730                 1.0831                 1.0701
 Frc consts  --      5.5571                 5.6447                 5.7964
 IR Inten    --    124.6980                21.3311                55.8428

                     85                     86                     87
                      A                      A                      A
 Frequencies --   3034.3976              3034.9007              3040.7100
 Red. masses --      1.0744                 1.0860                 1.0649
 Frc consts  --      5.8288                 5.8932                 5.8009
 IR Inten    --     27.6584                28.7694                40.2174

                     88                     89                     90
                      A                      A                      A
 Frequencies --   3041.3391              3044.1304              3046.2074
 Red. masses --      1.0921                 1.0418                 1.0631
 Frc consts  --      5.9515                 5.6879                 5.8122
 IR Inten    --     56.9168                19.7591                28.6065

                     91                     92                     93
                      A                      A                      A
 Frequencies --   3058.1919              3072.2680              3082.6651
 Red. masses --      1.0618                 1.0830                 1.0958
 Frc consts  --      5.8507                 6.0230                 6.1353
 IR Inten    --     42.7251                35.1848                17.2436

                     94                     95                     96
                      A                      A                      A
 Frequencies --   3088.1501              3097.2925              3102.9640
 Red. masses --      1.1008                 1.0979                 1.0884
 Frc consts  --      6.1853                 6.2058                 6.1745
 IR Inten    --     35.3904                33.5321                65.9459

                     97                     98                     99
                      A                      A                      A
 Frequencies --   3104.0735              3108.5352              3123.7713
 Red. masses --      1.1017                 1.1001                 1.0886
 Frc consts  --      6.2543                 6.2629                 6.2584
 IR Inten    --     42.9904                49.2779                44.1087

                    100                    101                    102
                      A                      A                      A
 Frequencies --   3126.5959              3463.3362              3550.1483
 Red. masses --      1.1012                 1.0492                 1.0927
 Frc consts  --      6.3427                 7.4148                 8.1138
 IR Inten    --     40.4137                 1.1079                 0.2876

 - Thermochemistry -
 -------------------
 Temperature   298.150 Kelvin.  Pressure   1.00000 Atm.
 Atom     1 has atomic number  6 and mass  12.00000

 Molecular mass:   198.17321 amu.
 Principal axes and moments of inertia in atomic units:
                           1         2         3
     Eigenvalues --  2020.146493538.688124566.58682
           X            0.99950  -0.03115  -0.00517
           Y            0.03114   0.99951  -0.00300
           Z            0.00526   0.00283   0.99998
 This molecule is an asymmetric top.
 Rotational symmetry number  1.
 Warning -- assumption of classical behavior for rotation
           may cause significant error
 Rotational temperatures (Kelvin)      0.04288     0.02448     0.01897
 Rotational constants (GHZ):           0.89337     0.51000     0.39521
 Zero-point vibrational energy     868696.0 (Joules/Mol)
                                  207.62334 (Kcal/Mol)
 Warning -- explicit consideration of  22 degrees of freedom as
           vibrations may cause significant error
 Vibrational temperatures:     54.51    72.86   105.67   130.18   166.93
          (Kelvin)            204.12   249.07   290.11   320.30   382.31
                              408.60   432.68   446.29   496.14   534.18
                              579.29   635.49   671.29   716.20   771.72
                              783.98   880.88  1042.71  1073.60  1143.87
                             1170.01  1218.26  1229.69  1253.25  1281.34
                             1301.48  1312.64  1351.60  1378.29  1409.21
                             1444.18  1496.73  1499.90  1533.44  1551.48
                             1558.38  1576.62  1604.10  1624.59  1642.71
                             1655.81  1678.15  1688.86  1714.35  1773.33
                             1799.54  1819.50  1833.47  1844.09  1864.81
                             1868.32  1888.22  1929.70  1936.06  1965.01
                             1974.33  1997.11  2008.98  2015.38  2032.85
                             2049.79  2065.39  2075.01  2078.83  2081.45
                             2157.33  2171.26  2176.72  2183.88  2201.15
                             2212.51  2220.01  2228.13  2257.91  2441.97
                             4245.09  4265.72  4279.20  4362.60  4365.82
                             4366.55  4374.90  4375.81  4379.82  4382.81
                             4400.06  4420.31  4435.27  4443.16  4456.31
                             4464.47  4466.07  4472.49  4494.41  4498.47
                             4982.97  5107.87

 Zero-point correction=                           0.330869 (Hartree/Particle)
 Thermal correction to Energy=                    0.345442
 Thermal correction to Enthalpy=                  0.346386
 Thermal correction to Gibbs Free Energy=         0.289165
 Sum of electronic and zero-point Energies=           -616.817082
 Sum of electronic and thermal Energies=              -616.802509
 Sum of electronic and thermal Enthalpies=            -616.801565
 Sum of electronic and thermal Free Energies=         -616.858786

                     E (Thermal)             CV                S
                      KCal/Mol        Cal/Mol-Kelvin    Cal/Mol-Kelvin
 Total                  216.768             56.315            120.432
 Electronic               0.000              0.000              0.000
 Translational            0.889              2.981             41.757
 Rotational               0.889              2.981             31.857
 Vibrational            214.991             50.353             46.818
 Vibration     1          0.594              1.982              5.367
 Vibration     2          0.595              1.977              4.792
 Vibration     3          0.599              1.967              4.059
 Vibration     4          0.602              1.956              3.650
 Vibration     5          0.608              1.936              3.166
 Vibration     6          0.615              1.911              2.778
 Vibration     7          0.627              1.876              2.401
 Vibration     8          0.639              1.838              2.118
 Vibration     9          0.648              1.807              1.938
 Vibration    10          0.672              1.736              1.624
 Vibration    11          0.682              1.703              1.510
 Vibration    12          0.693              1.672              1.413
 Vibration    13          0.699              1.654              1.361
 Vibration    14          0.723              1.586              1.190
 Vibration    15          0.743              1.531              1.075
 Vibration    16          0.768              1.464              0.953
 Vibration    17          0.801              1.379              0.821
 Vibration    18          0.824              1.324              0.747
 Vibration    19          0.853              1.255              0.664
 Vibration    20          0.891              1.170              0.573
 Vibration    21          0.900              1.151              0.555
 Vibration    22          0.971              1.006              0.429

 Optimization completed.
    -- Stationary point found.
 Normal termination of Gaussian 16 at Thu Dec 10 11:19:51 2020.

 ----------------------------------------------------------------------
 # B3LYP/6-311++G(d,p) empiricaldispersion=gd3bj scf=xqc pop=npa geom=c
 heck
 ----------------------------------------------------------------------

 --------------------------------------
 CID_65244847_JID_4904_Energie_neutraal
 --------------------------------------
 Structure from the checkpoint file:  "JID_4904.chk"
 Charge =  0 Multiplicity = 1

 SCF Done:  E(RB3LYP) =  -617.326286650     A.U. after   14 cycles
 Normal termination of Gaussian 16 at Thu Dec 10 11:24:53 2020.

 ----------------------------------------------------------------------
 # B3LYP/6-311++G(d,p) empiricaldispersion=gd3bj scf=xqc pop=npa geom=c
 heck
 ----------------------------------------------------------------------

 ------------------------------------
 CID_65244847_JID_4904_Energie_kation
 ------------------------------------
 Structure from the checkpoint file:  "JID_4904.chk"
 Charge =  1 Multiplicity = 2

 SCF Done:  E(UB3LYP) =  -617.049011187     A.U. after   22 cycles
 Normal termination of Gaussian 16 at Thu Dec 10 11:36:32 2020.
 Gaussian 16:  ES64L-G16RevA.03 25-Dec-2016

 ----------------------------------------------------------------------
 # B3LYP/6-311++G(d,p) empiricaldispersion=gd3bj scf=xqc pop=npa geom=c
 heck
 ----------------------------------------------------------------------

 -----------------------------------
 CID_65244847_JID_4904_Energie_anion
 -----------------------------------
 Structure from the checkpoint file:  "JID_4904.chk"
 Charge = -1 Multiplicity = 2

                         Standard orientation:
 ---------------------------------------------------------------------
 Center     Atomic      Atomic             Coordinates (Angstroms)
 Number     Number       Type             X           Y           Z
 ---------------------------------------------------------------------
      1          6           0       -3.668317    1.795589    0.134887
      2          6           0       -2.279237    1.748410   -0.507149
      3          6           0       -1.214173    1.059128    0.355698
      4          6           0       -1.554573   -0.391460    0.729577
      5          6           0       -0.433630   -1.133399    1.471322
      6          6           0        0.712399   -1.679912    0.580418
      7          6           0        0.103070   -2.352730   -0.660355
      8          6           0       -0.983826   -1.498614   -1.315442
      9          8           0       -2.011615   -1.156375   -0.393466
     10          7           0        1.765334   -0.746106    0.218097
     11          6           0        2.012699   -0.001514   -1.014351
     12          6           0        2.951882    0.934970   -0.182811
     13          6           0        2.319626    0.294942    1.076048
     14          7           0        2.855875    2.377191   -0.266346
     15          1           0       -4.087779    0.790252    0.242557
     16          1           0       -4.363962    2.379901   -0.477535
     17          1           0       -3.631768    2.257055    1.130018
     18          1           0       -2.347753    1.229820   -1.470539
     19          1           0       -1.941369    2.770421   -0.724596
     20          1           0       -0.251365    1.104226   -0.160565
     21          1           0       -1.080029    1.613941    1.295449
     22          1           0       -2.429598   -0.364582    1.387526
     23          1           0       -0.883811   -2.003734    1.965224
     24          1           0       -0.028167   -0.498129    2.267777
     25          1           0        1.195221   -2.468693    1.179406
     26          1           0        0.888699   -2.595769   -1.385403
     27          1           0       -0.354264   -3.298165   -0.345870
     28          1           0       -0.556036   -0.594395   -1.770313
     29          1           0       -1.481839   -2.059816   -2.112115
     30          1           0        2.461913   -0.585297   -1.829774
     31          1           0        1.162311    0.567257   -1.430726
     32          1           0        4.000897    0.648920   -0.298696
     33          1           0        1.577467    0.971418    1.536704
     34          1           0        2.998488   -0.055749    1.865757
     35          1           0        3.223177    2.708010   -1.156975
     36          1           0        1.878505    2.664055   -0.228892
 ---------------------------------------------------------------------

 SCF Done:  E(UB3LYP) =  -617.312906203     A.U. after   27 cycles

 The electronic state is 2-A.
 Alpha  occ. eigenvalues --  -19.02192 -14.19662 -14.19540 -10.12010 -10.11533
 Alpha  occ. eigenvalues --  -10.10457 -10.10139 -10.09147 -10.08999 -10.07111
 Alpha  occ. eigenvalues --  -10.06787 -10.06666 -10.06568 -10.06277  -0.93568
 Alpha  occ. eigenvalues --   -0.84665  -0.77870  -0.70707  -0.70092  -0.66080
 Alpha  occ. eigenvalues --   -0.61047  -0.58917  -0.57952  -0.54211  -0.52589
 Alpha  occ. eigenvalues --   -0.48592  -0.46259  -0.43799  -0.41516  -0.40126
 Alpha  occ. eigenvalues --   -0.39316  -0.37219  -0.36330  -0.36085  -0.34699
 Alpha  occ. eigenvalues --   -0.33815  -0.33536  -0.31839  -0.31071  -0.30079
 Alpha  occ. eigenvalues --   -0.29010  -0.28443  -0.27398  -0.27102  -0.27029
 Alpha  occ. eigenvalues --   -0.25423  -0.24727  -0.23575  -0.23400  -0.22395
 Alpha  occ. eigenvalues --   -0.21768  -0.19675  -0.15781  -0.14270  -0.10344
 Alpha  occ. eigenvalues --    0.04303
 Alpha virt. eigenvalues --    0.06388   0.06589   0.07363   0.08355   0.08680
 Alpha virt. eigenvalues --    0.08917   0.09346   0.09810   0.10793   0.11349
 Alpha virt. eigenvalues --    0.11634   0.12083   0.12215   0.12513   0.13216

  Beta  occ. eigenvalues --  -19.02190 -14.19662 -14.19500 -10.12006 -10.11522
  Beta  occ. eigenvalues --  -10.10452 -10.10127 -10.09134 -10.08971 -10.07096
  Beta  occ. eigenvalues --  -10.06777 -10.06649 -10.06553 -10.06260  -0.93560
  Beta  occ. eigenvalues --   -0.84648  -0.77804  -0.70681  -0.70064  -0.66054
  Beta  occ. eigenvalues --   -0.61015  -0.58880  -0.57906  -0.54177  -0.52547
  Beta  occ. eigenvalues --   -0.48538  -0.46210  -0.43755  -0.41468  -0.40080
  Beta  occ. eigenvalues --   -0.39282  -0.37193  -0.36309  -0.36060  -0.34665
  Beta  occ. eigenvalues --   -0.33785  -0.33515  -0.31806  -0.31048  -0.30048
  Beta  occ. eigenvalues --   -0.28984  -0.28414  -0.27371  -0.27063  -0.27005
  Beta  occ. eigenvalues --   -0.25391  -0.24704  -0.23545  -0.23373  -0.22367
  Beta  occ. eigenvalues --   -0.21742  -0.19658  -0.15768  -0.14227  -0.10329
  Beta virt. eigenvalues --    0.06322   0.07177   0.07278   0.07824   0.08781
  Beta virt. eigenvalues --    0.09110   0.09398   0.09646   0.10198   0.11213
  Beta virt. eigenvalues --    0.11568   0.11898   0.12310   0.12623   0.12796

 Mulliken charges and spin densities:
               1          2
     1  C    0.043885  -0.706730
     2  C   -0.249749  -0.059727
     3  C   -0.471658   0.316349
     4  C    0.262147  -0.311911
     5  C    0.142798  -0.702720
     6  C   -0.065076   0.376766
     7  C    0.105599  -0.719448
     8  C   -0.351137   0.123710
     9  O   -0.093378   0.032010
    10  N   -0.025429   0.004078
    11  C    0.421457  -0.685357
    12  C    0.194631  -0.502961
    13  C    0.389502  -0.727200
    14  N   -0.143040  -0.121281
    15  H    0.002973   0.173384
    16  H   -0.099850   0.235485
    17  H    0.015815   0.113010
    18  H    0.137383   0.006206
    19  H   -0.551470   0.704581
    20  H    1.243282  -1.157644
    21  H   -0.139426   0.285929
    22  H    0.238052  -0.028532
    23  H   -0.181070   0.348359
    24  H   -0.022667   0.159855
    25  H   -0.254450   0.476667
    26  H   -0.021703   0.174319
    27  H   -0.071184   0.237319
    28  H   -0.058901   0.183729
    29  H   -0.177335   0.363333
    30  H   -0.654729   0.821762
    31  H   -0.123480   0.218427
    32  H   -0.097849   0.292733
    33  H    0.113552   0.016391
    34  H   -0.189666   0.323106
    35  H   -0.165993   0.406727
    36  H   -0.101837   0.329276
 Sum of Mulliken charges =  -1.00000   1.00000

 Dipole moment (field-independent basis, Debye):
    X=             -2.7377    Y=             -2.2609    Z=              1.7667  Tot=              3.9659
 Quadrupole moment (field-independent basis, Debye-Ang):
   XX=           -152.6570   YY=           -146.8387   ZZ=           -126.8384
   XY=             -2.6615   XZ=              2.8659   YZ=              2.4269

 Summary of Natural Population Analysis:

                                       Natural Population
                Natural  -----------------------------------------------
    Atom  No    Charge         Core      Valence    Rydberg      Total
 -----------------------------------------------------------------------
      C    1   -0.28601      0.99966     2.28213    0.00421     3.28601
      C    2   -0.19049      0.99964     2.18183    0.00902     3.19049
      C    3   -0.20699      0.99959     2.19850    0.00889     3.20699
      C    4    0.06613      0.99953     1.91942    0.01493     2.93387
      C    5   -0.20705      0.99959     2.19801    0.00945     3.20705
      C    6    0.00235      0.99957     1.98350    0.01458     2.99765
      C    7   -0.20601      0.99961     2.19807    0.00834     3.20601
      C    8   -0.01348      0.99957     2.00118    0.01274     3.01348
      O    9   -0.30726      0.99989     3.29823    0.00914     4.30726
      N   10   -0.29241      0.99970     2.77831    0.01440     3.79241
      C   11   -0.08174      0.99962     2.07026    0.01186     3.08174
      C   12   -0.01387      0.99959     2.00023    0.01405     3.01387
      C   13   -0.07368      0.99962     2.06520    0.00886     3.07368
      N   14   -0.41829      0.99976     2.90804    0.01050     3.91829
      H   15    0.09870      0.00000     0.40018    0.00111     0.40130
      H   16    0.09729      0.00000     0.40185    0.00085     0.40271
      H   17    0.09350      0.00000     0.40543    0.00107     0.40650
      H   18    0.09748      0.00000     0.40117    0.00135     0.40252
      H   19    0.09610      0.00000     0.40257    0.00133     0.40390
      H   20    0.09797      0.00000     0.39819    0.00384     0.40203
      H   21    0.09845      0.00000     0.40013    0.00142     0.40155
      H   22    0.09088      0.00000     0.40760    0.00152     0.40912
      H   23    0.10098      0.00000     0.39779    0.00123     0.39902
      H   24    0.10351      0.00000     0.39535    0.00115     0.39649
      H   25    0.09299      0.00000     0.40557    0.00144     0.40701
      H   26    0.10641      0.00000     0.39242    0.00116     0.39359
      H   27    0.10092      0.00000     0.39792    0.00116     0.39908
      H   28    0.08000      0.00000     0.41819    0.00182     0.42000
      H   29    0.09022      0.00000     0.40863    0.00114     0.40978
      H   30    0.09131      0.00000     0.40633    0.00237     0.40869
      H   31    0.07735      0.00000     0.42015    0.00251     0.42265
      H   32    0.09273      0.00000     0.40609    0.00118     0.40727
      H   33    0.08163      0.00000     0.41668    0.00169     0.41837
      H   34    0.08844      0.00000     0.41005    0.00151     0.41156
      H   35    0.17821      0.00000     0.31916    0.00264     0.32179
      H   36    0.17374      0.00000     0.32343    0.00283     0.32626
 =======================================================================
   * Total *   -0.00000     13.99493    40.81778    0.18728    55.00000

 Normal termination of Gaussian 16 at Thu Dec 10 11:48:41 2020.
