 Gaussian 16, Revision A.03,

 -----------------------------------------------------------
 # opt freq B3LYP/6-31G(d) empiricaldispersion=gd3bj scf=xqc
 -----------------------------------------------------------

 -------------------------------
 CID_102090118_JID_1371_neutraal
 -------------------------------
 Symbolic Z-matrix:
 Charge =  0 Multiplicity = 1

 SCF Done:  E(RB3LYP) =  -514.027055594     A.U. after   18 cycles
 SCF Done:  E(RB3LYP) =  -514.033930202     A.U. after   16 cycles
 SCF Done:  E(RB3LYP) =  -514.036045653     A.U. after   15 cycles
 SCF Done:  E(RB3LYP) =  -514.040296463     A.U. after   17 cycles
 SCF Done:  E(RB3LYP) =  -514.045139188     A.U. after   17 cycles
 SCF Done:  E(RB3LYP) =  -514.046808401     A.U. after   16 cycles
 SCF Done:  E(RB3LYP) =  -514.047837788     A.U. after   15 cycles
 SCF Done:  E(RB3LYP) =  -514.048171903     A.U. after   13 cycles
 SCF Done:  E(RB3LYP) =  -514.048301539     A.U. after   13 cycles
 SCF Done:  E(RB3LYP) =  -514.048372334     A.U. after   14 cycles
 SCF Done:  E(RB3LYP) =  -514.048480268     A.U. after   12 cycles
 SCF Done:  E(RB3LYP) =  -514.048500467     A.U. after   12 cycles
 SCF Done:  E(RB3LYP) =  -514.048506647     A.U. after   11 cycles
 SCF Done:  E(RB3LYP) =  -514.048507070     A.U. after    8 cycles
 SCF Done:  E(RB3LYP) =  -514.048507188     A.U. after    8 cycles
 Optimization completed.
    -- Stationary point found.
 Normal termination of Gaussian 16 at Tue Dec  8 19:53:20 2020.

 --------------------------------------------------------------------
 #N Geom=AllCheck Guess=TCheck SCRF=Check GenChk RB3LYP/6-31G(d) Freq
 --------------------------------------------------------------------

 Structure from the checkpoint file:  "JID_1371.chk"
 -------------------------------
 CID_102090118_JID_1371_neutraal
 -------------------------------
 Charge =  0 Multiplicity = 1

 SCF Done:  E(RB3LYP) =  -514.048507188     A.U. after    1 cycles

  Exact polarizability: 139.960  -5.492  83.424  15.810   2.342  73.655
 Approx polarizability: 202.398  -7.932 128.491  39.900   4.767 114.797

                      1                      2                      3
                      A                      A                      A
 Frequencies --     29.0213                41.7272                61.2699
 Red. masses --      4.9766                 3.8058                 4.3710
 Frc consts  --      0.0025                 0.0039                 0.0097
 IR Inten    --      1.0685                 0.5006                 2.8036

                      4                      5                      6
                      A                      A                      A
 Frequencies --     75.0236               118.4888               139.1384
 Red. masses --      3.0974                 5.0332                 3.6827
 Frc consts  --      0.0103                 0.0416                 0.0420
 IR Inten    --      0.0742                 0.1373                 0.0219

                      7                      8                      9
                      A                      A                      A
 Frequencies --    178.8247               217.1138               263.9505
 Red. masses --      2.5653                 2.3515                 1.6977
 Frc consts  --      0.0483                 0.0653                 0.0697
 IR Inten    --      1.1679                 1.1463                 0.5673

                     10                     11                     12
                      A                      A                      A
 Frequencies --    315.4447               355.7494               408.5317
 Red. masses --      2.0868                 2.2276                 2.2508
 Frc consts  --      0.1223                 0.1661                 0.2213
 IR Inten    --      1.0953                 0.6052                23.3370

                     13                     14                     15
                      A                      A                      A
 Frequencies --    428.5613               440.1963               505.0063
 Red. masses --      3.0503                 1.5510                 2.0340
 Frc consts  --      0.3301                 0.1771                 0.3056
 IR Inten    --      2.5705                51.2390                 8.1986

                     16                     17                     18
                      A                      A                      A
 Frequencies --    540.8962               563.1518               608.1315
 Red. masses --      1.8042                 6.8910                 2.5982
 Frc consts  --      0.3110                 1.2876                 0.5661
 IR Inten    --     35.8554                 1.2327                13.4269

                     19                     20                     21
                      A                      A                      A
 Frequencies --    622.6710               729.3720               739.7295
 Red. masses --      3.1178                 2.3256                 2.2602
 Frc consts  --      0.7122                 0.7289                 0.7287
 IR Inten    --     23.9449                50.8524                24.3048

                     22                     23                     24
                      A                      A                      A
 Frequencies --    781.7464               844.8174               898.7318
 Red. masses --      1.8347                 1.7829                 2.1155
 Frc consts  --      0.6606                 0.7497                 1.0068
 IR Inten    --      5.5008                 1.2563                 8.0012

                     25                     26                     27
                      A                      A                      A
 Frequencies --    908.5026               949.7604              1010.9960
 Red. masses --      2.5678                 1.9009                 1.7998
 Frc consts  --      1.2487                 1.0103                 1.0838
 IR Inten    --      2.7501                 5.8115                 4.3969

                     28                     29                     30
                      A                      A                      A
 Frequencies --   1019.5967              1081.4436              1105.5186
 Red. masses --      1.5458                 1.5386                 2.1758
 Frc consts  --      0.9468                 1.0602                 1.5668
 IR Inten    --      3.5830                 7.3218                12.1955

                     31                     32                     33
                      A                      A                      A
 Frequencies --   1144.2475              1176.8377              1219.2160
 Red. masses --      2.1329                 2.3411                 1.8359
 Frc consts  --      1.6453                 1.9103                 1.6079
 IR Inten    --      2.1690                 4.7845                30.3553

                     34                     35                     36
                      A                      A                      A
 Frequencies --   1229.9604              1263.0188              1300.3016
 Red. masses --      1.4787                 1.4867                 1.6243
 Frc consts  --      1.3180                 1.3973                 1.6181
 IR Inten    --     27.8082                24.5151                67.4614

                     37                     38                     39
                      A                      A                      A
 Frequencies --   1326.5177              1344.8982              1385.1075
 Red. masses --      1.4908                 1.1286                 1.3864
 Frc consts  --      1.5455                 1.2027                 1.5671
 IR Inten    --     35.0793                 1.0242                13.6691

                     40                     41                     42
                      A                      A                      A
 Frequencies --   1396.9215              1416.2415              1422.5411
 Red. masses --      1.4681                 1.4021                 1.4141
 Frc consts  --      1.6879                 1.6569                 1.6860
 IR Inten    --     27.6877                 2.3421                31.8318

                     43                     44                     45
                      A                      A                      A
 Frequencies --   1445.0125              1463.5069              1479.5419
 Red. masses --      1.2725                 2.6738                 1.5178
 Frc consts  --      1.5655                 3.3742                 1.9576
 IR Inten    --      5.3789               424.0623                48.3493

                     46                     47                     48
                      A                      A                      A
 Frequencies --   1509.0072              1521.0895              1522.6541
 Red. masses --      1.0706                 1.0932                 1.0894
 Frc consts  --      1.4363                 1.4902                 1.4882
 IR Inten    --      1.6006                 7.5260                 5.1302

                     49                     50                     51
                      A                      A                      A
 Frequencies --   1533.3748              1535.2658              1543.3893
 Red. masses --      1.0677                 1.0543                 1.0846
 Frc consts  --      1.4791                 1.4641                 1.5222
 IR Inten    --     10.1961                 2.8978                12.8374

                     52                     53                     54
                      A                      A                      A
 Frequencies --   1760.0199              2249.2179              3028.8956
 Red. masses --      8.0573                13.4777                 1.0672
 Frc consts  --     14.7054                40.1724                 5.7686
 IR Inten    --    283.9362               547.5880                28.3594

                     55                     56                     57
                      A                      A                      A
 Frequencies --   3038.8361              3043.7149              3048.7659
 Red. masses --      1.0619                 1.0479                 1.0509
 Frc consts  --      5.7774                 5.7199                 5.7553
 IR Inten    --     13.1371                14.8528                23.6799

                     58                     59                     60
                      A                      A                      A
 Frequencies --   3064.6835              3067.3675              3074.8347
 Red. masses --      1.0657                 1.0924                 1.1019
 Frc consts  --      5.8973                 6.0555                 6.1380
 IR Inten    --     36.5750                20.0158                21.5414

                     61                     62                     63
                      A                      A                      A
 Frequencies --   3086.8638              3108.1352              3111.5907
 Red. masses --      1.1025                 1.1013                 1.1017
 Frc consts  --      6.1898                 6.2683                 6.2845
 IR Inten    --     65.6087                61.7196                52.9528

                     64                     65                     66
                      A                      A                      A
 Frequencies --   3116.8246              3267.5538              3604.4252
 Red. masses --      1.1017                 1.0885                 1.0760
 Frc consts  --      6.3059                 6.8475                 8.2361
 IR Inten    --     35.7299                 1.4980                28.2971

 - Thermochemistry -
 -------------------
 Temperature   298.150 Kelvin.  Pressure   1.00000 Atm.
 Atom     1 has atomic number  6 and mass  12.00000

 Molecular mass:   155.10586 amu.
 Principal axes and moments of inertia in atomic units:
                           1         2         3
     Eigenvalues --   659.185904080.736194261.47245
           X            0.99999   0.00147  -0.00466
           Y           -0.00129   0.99929   0.03757
           Z            0.00471  -0.03757   0.99928
 This molecule is an asymmetric top.
 Rotational symmetry number  1.
 Warning -- assumption of classical behavior for rotation
           may cause significant error
 Rotational temperatures (Kelvin)      0.13140     0.02123     0.02032
 Rotational constants (GHZ):           2.73783     0.44226     0.42350
 Zero-point vibrational energy     537323.6 (Joules/Mol)
                                  128.42343 (Kcal/Mol)
 Warning -- explicit consideration of  18 degrees of freedom as
           vibrations may cause significant error
 Vibrational temperatures:     41.76    60.04    88.15   107.94   170.48
          (Kelvin)            200.19   257.29   312.38   379.77   453.85
                              511.84   587.79   616.60   633.34   726.59
                              778.23   810.25   874.97   895.88  1049.40
                             1064.31  1124.76  1215.50  1293.07  1307.13
                             1366.49  1454.60  1466.97  1555.96  1590.59
                             1646.32  1693.21  1754.18  1769.64  1817.20
                             1870.84  1908.56  1935.01  1992.86  2009.86
                             2037.66  2046.72  2079.05  2105.66  2128.73
                             2171.12  2188.51  2190.76  2206.18  2208.91
                             2220.59  2532.28  3236.12  4357.91  4372.21
                             4379.23  4386.49  4409.40  4413.26  4424.00
                             4441.31  4471.91  4476.89  4484.42  4701.28
                             5185.96

 Zero-point correction=                           0.204656 (Hartree/Particle)
 Thermal correction to Energy=                    0.217096
 Thermal correction to Enthalpy=                  0.218040
 Thermal correction to Gibbs Free Energy=         0.164350
 Sum of electronic and zero-point Energies=           -513.843851
 Sum of electronic and thermal Energies=              -513.831411
 Sum of electronic and thermal Enthalpies=            -513.830467
 Sum of electronic and thermal Free Energies=         -513.884157

                     E (Thermal)             CV                S
                      KCal/Mol        Cal/Mol-Kelvin    Cal/Mol-Kelvin
 Total                  136.230             44.140            113.000
 Electronic               0.000              0.000              0.000
 Translational            0.889              2.981             41.026
 Rotational               0.889              2.981             30.817
 Vibrational            134.452             38.179             41.157
 Vibration     1          0.593              1.984              5.895
 Vibration     2          0.594              1.981              5.175
 Vibration     3          0.597              1.973              4.416
 Vibration     4          0.599              1.966              4.017
 Vibration     5          0.609              1.934              3.125
 Vibration     6          0.615              1.914              2.816
 Vibration     7          0.629              1.868              2.341
 Vibration     8          0.646              1.815              1.983
 Vibration     9          0.671              1.739              1.635
 Vibration    10          0.703              1.644              1.334
 Vibration    11          0.731              1.563              1.141
 Vibration    12          0.773              1.452              0.932
 Vibration    13          0.790              1.408              0.863
 Vibration    14          0.800              1.383              0.826
 Vibration    15          0.860              1.239              0.646
 Vibration    16          0.896              1.160              0.563
 Vibration    17          0.919              1.111              0.518
 Vibration    18          0.967              1.015              0.436

                           ! Non-Optimized Parameters !
 Normal termination of Gaussian 16 at Tue Dec  8 19:57:59 2020.

 ----------------------------------------------------------------------
 # B3LYP/6-311++G(d,p) empiricaldispersion=gd3bj scf=xqc pop=npa geom=c
 heck
 ----------------------------------------------------------------------

 ---------------------------------------
 CID_102090118_JID_1371_Energie_neutraal
 ---------------------------------------
 Structure from the checkpoint file:  "JID_1371.chk"
 Charge =  0 Multiplicity = 1

 SCF Done:  E(RB3LYP) =  -514.201646441     A.U. after   17 cycles
 Normal termination of Gaussian 16 at Tue Dec  8 20:00:35 2020.

 ----------------------------------------------------------------------
 # B3LYP/6-311++G(d,p) empiricaldispersion=gd3bj scf=xqc pop=npa geom=c
 heck
 ----------------------------------------------------------------------

 -------------------------------------
 CID_102090118_JID_1371_Energie_kation
 -------------------------------------
 Structure from the checkpoint file:  "JID_1371.chk"
 Charge =  1 Multiplicity = 2

 SCF Done:  E(UB3LYP) =  -513.877560921     A.U. after   26 cycles
 Normal termination of Gaussian 16 at Tue Dec  8 20:06:28 2020.
 Gaussian 16:  ES64L-G16RevA.03 25-Dec-2016

 ----------------------------------------------------------------------
 # B3LYP/6-311++G(d,p) empiricaldispersion=gd3bj scf=xqc pop=npa geom=c
 heck
 ----------------------------------------------------------------------

 ------------------------------------
 CID_102090118_JID_1371_Energie_anion
 ------------------------------------
 Structure from the checkpoint file:  "JID_1371.chk"
 Charge = -1 Multiplicity = 2

                         Standard orientation:
 ---------------------------------------------------------------------
 Center     Atomic      Atomic             Coordinates (Angstroms)
 Number     Number       Type             X           Y           Z
 ---------------------------------------------------------------------
      1          6           0       -4.247539   -0.273259   -0.131714
      2          6           0       -3.155871    0.598552    0.495782
      3          6           0       -1.975697   -0.195926    1.076165
      4          6           0       -1.224882   -1.082515    0.072174
      5          6           0       -0.655395   -0.318647   -1.133783
      6          7           0        0.212049    0.799942   -0.786807
      7          6           0        1.471205    0.734645   -0.237136
      8          8           0        2.012554    1.714638    0.267681
      9          6           0        2.144066   -0.571836   -0.326790
     10          7           0        3.348466   -0.643143    0.170997
     11          7           0        4.394355   -0.671063    0.616254
     12          1           0       -3.879660   -0.822387   -1.005995
     13          1           0       -5.098438    0.333609   -0.459624
     14          1           0       -4.620807   -1.012029    0.588038
     15          1           0       -2.793575    1.320229   -0.250104
     16          1           0       -3.593673    1.202170    1.300758
     17          1           0       -1.263273    0.503056    1.532126
     18          1           0       -2.342957   -0.832634    1.891939
     19          1           0       -0.401696   -1.584798    0.595345
     20          1           0       -1.882360   -1.875494   -0.307008
     21          1           0       -0.110007   -1.004241   -1.792340
     22          1           0       -1.468155    0.090953   -1.741330
     23          1           0       -0.226273    1.694886   -0.609727
     24          1           0        1.761024   -1.476661   -0.774811
 ---------------------------------------------------------------------

 SCF Done:  E(UB3LYP) =  -514.205568144     A.U. after   33 cycles
 SCF Done:  E(UB3LYP) =  -514.205568144     a.u. after    1 cycles

 The electronic state is 2-A.
 Alpha  occ. eigenvalues --  -18.95057 -14.27222 -14.21773 -14.21034 -10.14305
 Alpha  occ. eigenvalues --  -10.10004 -10.07353 -10.06714 -10.06431 -10.06398
 Alpha  occ. eigenvalues --  -10.06322  -0.95125  -0.90385  -0.80223  -0.70471
 Alpha  occ. eigenvalues --   -0.69949  -0.64507  -0.58660  -0.53566  -0.50849
 Alpha  occ. eigenvalues --   -0.46368  -0.40107  -0.38978  -0.38252  -0.36769
 Alpha  occ. eigenvalues --   -0.35357  -0.33445  -0.32640  -0.31277  -0.29892
 Alpha  occ. eigenvalues --   -0.29789  -0.28846  -0.28035  -0.26863  -0.25858
 Alpha  occ. eigenvalues --   -0.25574  -0.23335  -0.22728  -0.22373  -0.13700
 Alpha  occ. eigenvalues --   -0.12986  -0.08564   0.04289
 Alpha virt. eigenvalues --    0.05795   0.07747   0.08050   0.08649   0.10041
 Alpha virt. eigenvalues --    0.10963   0.11240   0.11631   0.11846   0.12201
 Alpha virt. eigenvalues --    0.13575   0.14422   0.15158   0.15830   0.16352

  Beta  occ. eigenvalues --  -18.95067 -14.26772 -14.21104 -14.21033 -10.14260
  Beta  occ. eigenvalues --  -10.09981 -10.07345 -10.06710 -10.06452 -10.06393
  Beta  occ. eigenvalues --  -10.06307  -0.94138  -0.90348  -0.80212  -0.70426
  Beta  occ. eigenvalues --   -0.69258  -0.64467  -0.58609  -0.53458  -0.50621
  Beta  occ. eigenvalues --   -0.46312  -0.39440  -0.38878  -0.37908  -0.36654
  Beta  occ. eigenvalues --   -0.35300  -0.33289  -0.32302  -0.30892  -0.29590
  Beta  occ. eigenvalues --   -0.28511  -0.28360  -0.27943  -0.26823  -0.25587
  Beta  occ. eigenvalues --   -0.24257  -0.23295  -0.22676  -0.22327  -0.13702
  Beta  occ. eigenvalues --   -0.12982  -0.08379
  Beta virt. eigenvalues --    0.06425   0.08101   0.08342   0.08850   0.10223
  Beta virt. eigenvalues --    0.11111   0.11446   0.11850   0.12048   0.12242
  Beta virt. eigenvalues --    0.12420   0.13913   0.14494   0.15238   0.15873

 Mulliken charges and spin densities:
               1          2
     1  C    0.845399  -1.463139
     2  C   -0.688205   0.569313
     3  C   -0.159549  -0.263543
     4  C    0.342179  -0.288786
     5  C   -0.213532  -0.276606
     6  N   -0.191478   0.033698
     7  C   -0.042471   0.017418
     8  O   -0.398299  -0.005713
     9  C   -0.023774  -0.485405
    10  N    0.518353   0.061953
    11  N   -0.564396   0.503514
    12  H   -0.209139   0.350465
    13  H   -0.328888   0.460454
    14  H   -0.129302   0.263855
    15  H    0.151876  -0.057121
    16  H   -0.070047   0.216706
    17  H    0.176200   0.019192
    18  H   -0.009983   0.152375
    19  H    0.132067   0.037404
    20  H   -0.193157   0.342474
    21  H    0.092876   0.087733
    22  H   -0.088457   0.277468
    23  H    0.275868   0.011835
    24  H   -0.224142   0.434453
 Sum of Mulliken charges =  -1.00000   1.00000

 Dipole moment (field-independent basis, Debye):
    X=             -3.6134    Y=              0.4660    Z=             -0.3819  Tot=              3.6632
 Quadrupole moment (field-independent basis, Debye-Ang):
   XX=           -156.0122   YY=            -91.9049   ZZ=            -85.8051
   XY=             -6.2087   XZ=             -7.1804   YZ=             -3.0549

 Summary of Natural Population Analysis:

                                       Natural Population
                Natural  -----------------------------------------------
    Atom  No    Charge         Core      Valence    Rydberg      Total
 -----------------------------------------------------------------------
      C    1   -0.28819      0.99967     2.28339    0.00514     3.28819
      C    2   -0.19222      0.99964     2.18400    0.00858     3.19222
      C    3   -0.19328      0.99963     2.18485    0.00881     3.19328
      C    4   -0.20041      0.99962     2.19235    0.00844     3.20041
      C    5   -0.09175      0.99962     2.07977    0.01236     3.09175
      N    6   -0.33140      0.99968     2.82195    0.00977     3.83140
      C    7    0.31601      0.99966     1.66001    0.02431     2.68399
      O    8   -0.34592      0.99988     3.34028    0.00576     4.34592
      C    9   -0.19325      0.99954     2.18259    0.01112     3.19325
      N   10    0.07647      0.99969     2.40786    0.01597     3.42353
      N   11    0.07841      0.99981     2.40772    0.01406     3.42159
      H   12    0.09752      0.00000     0.40123    0.00125     0.40248
      H   13    0.09855      0.00000     0.40039    0.00107     0.40145
      H   14    0.09627      0.00000     0.40253    0.00120     0.40373
      H   15    0.08963      0.00000     0.40908    0.00129     0.41037
      H   16    0.09499      0.00000     0.40407    0.00094     0.40501
      H   17    0.10052      0.00000     0.39831    0.00118     0.39948
      H   18    0.09539      0.00000     0.40375    0.00086     0.40461
      H   19    0.10414      0.00000     0.39474    0.00112     0.39586
      H   20    0.09702      0.00000     0.40174    0.00124     0.40298
      H   21    0.09977      0.00000     0.39899    0.00124     0.40023
      H   22    0.09476      0.00000     0.40414    0.00110     0.40524
      H   23    0.18809      0.00000     0.30977    0.00214     0.31191
      H   24    0.10891      0.00000     0.38908    0.00201     0.39109
 =======================================================================
   * Total *   -0.00000     10.99645    30.86258    0.14097    42.00000

 Normal termination of Gaussian 16 at Tue Dec  8 20:13:43 2020.
