 Gaussian 16, Revision A.03,

 -----------------------------------------------------------
 # opt freq B3LYP/6-31G(d) empiricaldispersion=gd3bj scf=xqc
 -----------------------------------------------------------

 -----------------------------
 CID_148035835_JID_63_neutraal
 -----------------------------
 Symbolic Z-matrix:
 Charge =  0 Multiplicity = 1

 SCF Done:  E(RB3LYP) =  -459.874315823     A.U. after   14 cycles
 SCF Done:  E(RB3LYP) =  -459.879755244     A.U. after   13 cycles
 SCF Done:  E(RB3LYP) =  -459.882129686     A.U. after   13 cycles
 SCF Done:  E(RB3LYP) =  -459.883885876     A.U. after   14 cycles
 SCF Done:  E(RB3LYP) =  -459.884812105     A.U. after   11 cycles
 SCF Done:  E(RB3LYP) =  -459.884974868     A.U. after   11 cycles
 SCF Done:  E(RB3LYP) =  -459.885012860     A.U. after   11 cycles
 SCF Done:  E(RB3LYP) =  -459.885021218     A.U. after   10 cycles
 SCF Done:  E(RB3LYP) =  -459.885023785     A.U. after    9 cycles
 SCF Done:  E(RB3LYP) =  -459.885024813     A.U. after    8 cycles
 SCF Done:  E(RB3LYP) =  -459.885025141     A.U. after    7 cycles
 SCF Done:  E(RB3LYP) =  -459.885025251     A.U. after    7 cycles
 SCF Done:  E(RB3LYP) =  -459.885025293     A.U. after    7 cycles
 SCF Done:  E(RB3LYP) =  -459.885025317     A.U. after    7 cycles
 SCF Done:  E(RB3LYP) =  -459.885025327     A.U. after    6 cycles
 Optimization completed.
    -- Stationary point found.
 Normal termination of Gaussian 16 at Tue Dec  8 10:17:14 2020.

 --------------------------------------------------------------------
 #N Geom=AllCheck Guess=TCheck SCRF=Check GenChk RB3LYP/6-31G(d) Freq
 --------------------------------------------------------------------

 Structure from the checkpoint file:  "JID_63.chk"
 -----------------------------
 CID_148035835_JID_63_neutraal
 -----------------------------
 Charge =  0 Multiplicity = 1

 SCF Done:  E(RB3LYP) =  -459.885025327     A.U. after    1 cycles

  Exact polarizability: 107.565   2.318  80.858  -5.541   0.168  77.603
 Approx polarizability: 139.995   5.051 115.418 -12.687  -2.571 117.430

                      1                      2                      3
                      A                      A                      A
 Frequencies --     40.3413                53.3131                86.0271
 Red. masses --      3.7706                 3.9669                 3.4770
 Frc consts  --      0.0036                 0.0066                 0.0152
 IR Inten    --      0.1328                 2.2673                15.0425

                      4                      5                      6
                      A                      A                      A
 Frequencies --    124.1550               170.5203               188.8066
 Red. masses --      2.6942                 1.8816                 2.0074
 Frc consts  --      0.0245                 0.0322                 0.0422
 IR Inten    --      4.3102                13.7140                 8.3937

                      7                      8                      9
                      A                      A                      A
 Frequencies --    218.3651               273.9504               275.6086
 Red. masses --      1.4796                 2.1068                 3.3049
 Frc consts  --      0.0416                 0.0932                 0.1479
 IR Inten    --     48.3296                12.8212                27.4036

                     10                     11                     12
                      A                      A                      A
 Frequencies --    288.2732               367.1078               388.6918
 Red. masses --      1.5378                 2.6618                 2.6354
 Frc consts  --      0.0753                 0.2114                 0.2346
 IR Inten    --     13.2228                 3.3638                 5.7553

                     13                     14                     15
                      A                      A                      A
 Frequencies --    449.4534               476.5763               507.5865
 Red. masses --      1.8379                 2.7223                 2.6891
 Frc consts  --      0.2187                 0.3643                 0.4082
 IR Inten    --      5.8900                 1.1016                 2.3815

                     16                     17                     18
                      A                      A                      A
 Frequencies --    620.9377               746.0464               817.9156
 Red. masses --      4.2149                 1.7185                 2.8895
 Frc consts  --      0.9575                 0.5635                 1.1389
 IR Inten    --     16.1261                 0.8662                 0.1939

                     19                     20                     21
                      A                      A                      A
 Frequencies --    823.7303               848.5044               868.0265
 Red. masses --      2.2972                 2.5485                 1.5205
 Frc consts  --      0.9184                 1.0810                 0.6750
 IR Inten    --     20.9694                 2.2184                82.8986

                     22                     23                     24
                      A                      A                      A
 Frequencies --    884.0513               915.7121               931.3832
 Red. masses --      1.7239                 1.5523                 1.4154
 Frc consts  --      0.7938                 0.7669                 0.7234
 IR Inten    --    112.1644                68.3892                27.0290

                     25                     26                     27
                      A                      A                      A
 Frequencies --    959.2307              1001.4216              1034.8320
 Red. masses --      1.6340                 1.8649                 1.7294
 Frc consts  --      0.8858                 1.1019                 1.0911
 IR Inten    --     58.8239                 2.5463                 5.7352

                     28                     29                     30
                      A                      A                      A
 Frequencies --   1053.4988              1076.3149              1097.6952
 Red. masses --      1.6927                 1.3153                 1.8353
 Frc consts  --      1.1069                 0.8978                 1.3029
 IR Inten    --     11.8797                 6.8821                 5.3140

                     31                     32                     33
                      A                      A                      A
 Frequencies --   1107.3597              1132.7284              1150.0895
 Red. masses --      1.6000                 2.4253                 1.4222
 Frc consts  --      1.1560                 1.8334                 1.1084
 IR Inten    --     21.5175                 4.9802                 1.9200

                     34                     35                     36
                      A                      A                      A
 Frequencies --   1208.3522              1242.3360              1248.5577
 Red. masses --      1.4482                 1.2671                 1.6746
 Frc consts  --      1.2459                 1.1522                 1.5381
 IR Inten    --      0.9233                 2.8444                 3.5992

                     37                     38                     39
                      A                      A                      A
 Frequencies --   1296.9497              1304.4782              1356.8678
 Red. masses --      1.3641                 1.4093                 1.3330
 Frc consts  --      1.3519                 1.4129                 1.4459
 IR Inten    --      2.0844                 1.2139                 7.3662

                     40                     41                     42
                      A                      A                      A
 Frequencies --   1363.8388              1379.9511              1402.1379
 Red. masses --      2.6793                 1.2994                 1.4696
 Frc consts  --      2.9363                 1.4579                 1.7023
 IR Inten    --     16.4574                 1.8243                 4.5864

                     43                     44                     45
                      A                      A                      A
 Frequencies --   1434.4999              1444.9131              1453.9096
 Red. masses --      1.3071                 1.4155                 1.5056
 Frc consts  --      1.5848                 1.7412                 1.8751
 IR Inten    --      1.2166                10.5456                 3.2297

                     46                     47                     48
                      A                      A                      A
 Frequencies --   1502.9994              1508.0450              1535.3718
 Red. masses --      1.1309                 1.3675                 1.0912
 Frc consts  --      1.5053                 1.8323                 1.5156
 IR Inten    --      4.2073                 3.7920                 4.6954

                     49                     50                     51
                      A                      A                      A
 Frequencies --   1543.7359              1700.5970              1706.2934
 Red. masses --      1.0844                 1.0883                 1.0940
 Frc consts  --      1.5227                 1.8544                 1.8765
 IR Inten    --      6.4762                27.7201                20.0666

                     52                     53                     54
                      A                      A                      A
 Frequencies --   1809.2812              2883.6372              2951.5366
 Red. masses --     10.3277                 1.0840                 1.0740
 Frc consts  --     19.9189                 5.3109                 5.5124
 IR Inten    --    277.2800               107.9769                81.7779

                     55                     56                     57
                      A                      A                      A
 Frequencies --   3040.9835              3048.5765              3074.8638
 Red. masses --      1.0650                 1.0666                 1.0874
 Frc consts  --      5.8025                 5.8406                 6.0576
 IR Inten    --     15.8110                26.5444                52.7564

                     58                     59                     60
                      A                      A                      A
 Frequencies --   3091.9668              3112.1857              3138.7621
 Red. masses --      1.1011                 1.0935                 1.0880
 Frc consts  --      6.2021                 6.2400                 6.3154
 IR Inten    --     51.7870                 3.9526                22.7215

                     61                     62                     63
                      A                      A                      A
 Frequencies --   3148.9037              3235.1054              3464.1705
 Red. masses --      1.0549                 1.1177                 1.0498
 Frc consts  --      6.1626                 6.8924                 7.4225
 IR Inten    --      8.6777                 5.0472                 0.3942

                     64                     65                     66
                      A                      A                      A
 Frequencies --   3469.3280              3537.3396              3551.6658
 Red. masses --      1.0498                 1.0915                 1.0920
 Frc consts  --      7.4450                 8.0467                 8.1161
 IR Inten    --      2.0038                 1.5605                 1.2204

 - Thermochemistry -
 -------------------
 Temperature   298.150 Kelvin.  Pressure   1.00000 Atm.
 Atom     1 has atomic number  6 and mass  12.00000

 Molecular mass:   142.11061 amu.
 Principal axes and moments of inertia in atomic units:
                           1         2         3
     Eigenvalues --   681.808272966.636253170.36521
           X            0.99991  -0.01363  -0.00174
           Y            0.01367   0.99946   0.02973
           Z            0.00134  -0.02975   0.99956
 This molecule is an asymmetric top.
 Rotational symmetry number  1.
 Warning -- assumption of classical behavior for rotation
           may cause significant error
 Rotational temperatures (Kelvin)      0.12704     0.02920     0.02732
 Rotational constants (GHZ):           2.64699     0.60835     0.56925
 Zero-point vibrational energy     557282.7 (Joules/Mol)
                                  133.19377 (Kcal/Mol)
 Warning -- explicit consideration of  15 degrees of freedom as
           vibrations may cause significant error
 Vibrational temperatures:     58.04    76.71   123.77   178.63   245.34
          (Kelvin)            271.65   314.18   394.15   396.54   414.76
                              528.19   559.24   646.66   685.69   730.30
                              893.39  1073.39  1176.80  1185.16  1220.81
                             1248.90  1271.95  1317.51  1340.05  1380.12
                             1440.82  1488.89  1515.75  1548.58  1579.34
                             1593.24  1629.74  1654.72  1738.55  1787.44
                             1796.40  1866.02  1876.85  1952.23  1962.26
                             1985.44  2017.36  2063.93  2078.91  2091.85
                             2162.48  2169.74  2209.06  2221.09  2446.78
                             2454.98  2603.15  4148.91  4246.60  4375.30
                             4386.22  4424.04  4448.65  4477.74  4515.98
                             4530.57  4654.60  4984.17  4991.59  5089.44
                             5110.05

 Zero-point correction=                           0.212258 (Hartree/Particle)
 Thermal correction to Energy=                    0.223747
 Thermal correction to Enthalpy=                  0.224691
 Thermal correction to Gibbs Free Energy=         0.174318
 Sum of electronic and zero-point Energies=           -459.672768
 Sum of electronic and thermal Energies=              -459.661278
 Sum of electronic and thermal Enthalpies=            -459.660334
 Sum of electronic and thermal Free Energies=         -459.710707

                     E (Thermal)             CV                S
                      KCal/Mol        Cal/Mol-Kelvin    Cal/Mol-Kelvin
 Total                  140.403             41.735            106.019
 Electronic               0.000              0.000              0.000
 Translational            0.889              2.981             40.766
 Rotational               0.889              2.981             30.240
 Vibrational            138.626             35.773             35.014
 Vibration     1          0.594              1.981              5.242
 Vibration     2          0.596              1.976              4.691
 Vibration     3          0.601              1.959              3.748
 Vibration     4          0.610              1.929              3.035
 Vibration     5          0.626              1.879              2.430
 Vibration     6          0.633              1.855              2.240
 Vibration     7          0.646              1.813              1.973
 Vibration     8          0.676              1.721              1.571
 Vibration     9          0.677              1.718              1.561
 Vibration    10          0.685              1.696              1.484
 Vibration    11          0.740              1.540              1.092
 Vibration    12          0.757              1.494              1.005
 Vibration    13          0.808              1.362              0.797
 Vibration    14          0.833              1.302              0.719
 Vibration    15          0.863              1.233              0.639

 Optimization completed.
    -- Stationary point found.
 Normal termination of Gaussian 16 at Tue Dec  8 10:21:10 2020.

 ----------------------------------------------------------------------
 # B3LYP/6-311++G(d,p) empiricaldispersion=gd3bj scf=xqc pop=npa geom=c
 heck
 ----------------------------------------------------------------------

 -------------------------------------
 CID_148035835_JID_63_Energie_neutraal
 -------------------------------------
 Structure from the checkpoint file:  "JID_63.chk"
 Charge =  0 Multiplicity = 1

 SCF Done:  E(RB3LYP) =  -460.034746511     A.U. after   13 cycles
 Normal termination of Gaussian 16 at Tue Dec  8 10:22:31 2020.

 ----------------------------------------------------------------------
 # B3LYP/6-311++G(d,p) empiricaldispersion=gd3bj scf=xqc pop=npa geom=c
 heck
 ----------------------------------------------------------------------

 -----------------------------------
 CID_148035835_JID_63_Energie_kation
 -----------------------------------
 Structure from the checkpoint file:  "JID_63.chk"
 Charge =  1 Multiplicity = 2

 SCF Done:  E(UB3LYP) =  -459.716227968     A.U. after   30 cycles
 Normal termination of Gaussian 16 at Tue Dec  8 10:26:28 2020.
 Gaussian 16:  ES64L-G16RevA.03 25-Dec-2016

 ----------------------------------------------------------------------
 # B3LYP/6-311++G(d,p) empiricaldispersion=gd3bj scf=xqc pop=npa geom=c
 heck
 ----------------------------------------------------------------------

 ----------------------------------
 CID_148035835_JID_63_Energie_anion
 ----------------------------------
 Structure from the checkpoint file:  "JID_63.chk"
 Charge = -1 Multiplicity = 2

                         Standard orientation:
 ---------------------------------------------------------------------
 Center     Atomic      Atomic             Coordinates (Angstroms)
 Number     Number       Type             X           Y           Z
 ---------------------------------------------------------------------
      1          6           0        0.770428   -0.642939    1.345269
      2          6           0        0.056952    0.053169    0.235338
      3          6           0        1.570097   -0.204726    0.123829
      4          6           0        2.425926    0.997752    0.279182
      5          8           0        3.460796    1.173073   -0.332664
      6          7           0        2.021052   -1.238388   -0.768565
      7          6           0       -0.908166   -0.687175   -0.667590
      8          6           0       -2.264689   -0.968787   -0.001343
      9          6           0       -3.006583    0.278928    0.485438
     10          7           0       -3.293607    1.191366   -0.628422
     11          1           0        0.640487   -1.717846    1.429879
     12          1           0        0.937520   -0.123677    2.285229
     13          1           0       -0.198196    1.093905    0.432773
     14          1           0        2.045885    1.760581    0.998229
     15          1           0        2.289458   -0.809433   -1.654077
     16          1           0        2.880317   -1.641317   -0.395895
     17          1           0       -1.063473   -0.107827   -1.587315
     18          1           0       -0.444803   -1.629417   -0.973975
     19          1           0       -2.904270   -1.495636   -0.719251
     20          1           0       -2.110963   -1.638076    0.855697
     21          1           0       -3.967647   -0.029563    0.913346
     22          1           0       -2.434891    0.744669    1.309108
     23          1           0       -3.881521    1.956334   -0.302374
     24          1           0       -2.430172    1.624538   -0.951885
 ---------------------------------------------------------------------

 SCF Done:  E(UB3LYP) =  -460.023181532     A.U. after   33 cycles
 SCF Done:  E(UB3LYP) =  -460.023181532     a.u. after    1 cycles

 The electronic state is 2-A.
 Alpha  occ. eigenvalues --  -19.00107 -14.20090 -14.18475 -10.13538 -10.10983
 Alpha  occ. eigenvalues --  -10.08252 -10.08075 -10.07242 -10.06318 -10.05870
 Alpha  occ. eigenvalues --   -0.93293  -0.81458  -0.77537  -0.73303  -0.66324
 Alpha  occ. eigenvalues --   -0.57954  -0.54466  -0.50053  -0.45671  -0.45063
 Alpha  occ. eigenvalues --   -0.39845  -0.38701  -0.37978  -0.37792  -0.35058
 Alpha  occ. eigenvalues --   -0.33618  -0.31773  -0.30979  -0.29703  -0.28864
 Alpha  occ. eigenvalues --   -0.27370  -0.24969  -0.23683  -0.22913  -0.20484
 Alpha  occ. eigenvalues --   -0.18078  -0.16913  -0.13898  -0.13694   0.04699
 Alpha virt. eigenvalues --    0.06613   0.07734   0.08257   0.08530   0.09919
 Alpha virt. eigenvalues --    0.10111   0.11022   0.11467   0.11859   0.12639
 Alpha virt. eigenvalues --    0.13151   0.14194   0.14351   0.15700   0.16138

  Beta  occ. eigenvalues --  -18.99966 -14.20071 -14.18432 -10.13400 -10.10996
  Beta  occ. eigenvalues --  -10.08237 -10.08047 -10.07176 -10.06307 -10.05861
  Beta  occ. eigenvalues --   -0.93029  -0.81410  -0.77468  -0.73252  -0.66276
  Beta  occ. eigenvalues --   -0.57863  -0.54216  -0.49970  -0.45561  -0.44986
  Beta  occ. eigenvalues --   -0.39742  -0.38654  -0.37904  -0.37724  -0.34995
  Beta  occ. eigenvalues --   -0.33505  -0.31668  -0.30905  -0.29662  -0.28464
  Beta  occ. eigenvalues --   -0.27019  -0.24918  -0.23648  -0.22868  -0.20422
  Beta  occ. eigenvalues --   -0.17910  -0.16849  -0.13801  -0.13634
  Beta virt. eigenvalues --    0.07218   0.07863   0.08241   0.08794   0.09531
  Beta virt. eigenvalues --    0.10211   0.10614   0.11328   0.12017   0.12235
  Beta virt. eigenvalues --    0.13121   0.13434   0.14361   0.14708   0.15743

 Mulliken charges and spin densities:
               1          2
     1  C    1.018020  -1.679059
     2  C   -0.239927   0.596362
     3  C   -1.681811   1.642021
     4  C    1.147295  -1.151202
     5  O   -0.308080   0.053915
     6  N   -0.319231   0.002914
     7  C    0.810796  -1.501499
     8  C   -0.818339   0.720214
     9  C    1.264232  -1.755777
    10  N   -0.451174   0.080602
    11  H   -0.152381   0.324003
    12  H   -0.625315   0.826980
    13  H    0.082207   0.153541
    14  H   -0.389418   0.479603
    15  H    0.111557   0.125122
    16  H    0.090139   0.160265
    17  H    0.085550   0.072067
    18  H    0.168152   0.051221
    19  H    0.148048  -0.017091
    20  H    0.036081   0.073843
    21  H   -0.389669   0.556281
    22  H   -0.319077   0.461785
    23  H   -0.280886   0.527231
    24  H    0.013229   0.196656
 Sum of Mulliken charges =  -1.00000   1.00000

 Dipole moment (field-independent basis, Debye):
    X=              1.9764    Y=             -3.6953    Z=             -3.4500  Tot=              5.4281
 Quadrupole moment (field-independent basis, Debye-Ang):
   XX=           -133.5229   YY=            -94.2229   ZZ=            -96.9786
   XY=              4.8238   XZ=             -0.5918   YZ=             -1.9963

 Summary of Natural Population Analysis:

                                       Natural Population
                Natural  -----------------------------------------------
    Atom  No    Charge         Core      Valence    Rydberg      Total
 -----------------------------------------------------------------------
      C    1   -0.18445      0.99957     2.17297    0.01191     3.18445
      C    2   -0.10033      0.99955     2.08885    0.01193     3.10033
      C    3   -0.00168      0.99952     1.98597    0.01619     3.00168
      C    4    0.23215      0.99964     1.74724    0.02097     2.76785
      O    5   -0.28042      0.99988     3.27318    0.00736     4.28042
      N    6   -0.41535      0.99975     2.90654    0.00906     3.91535
      C    7   -0.19692      0.99960     2.18903    0.00829     3.19692
      C    8   -0.18861      0.99962     2.17979    0.00920     3.18861
      C    9   -0.09112      0.99964     2.07959    0.01189     3.09112
      N   10   -0.42609      0.99977     2.91496    0.01136     3.92609
      H   11    0.10843      0.00000     0.39016    0.00140     0.39157
      H   12    0.11055      0.00000     0.38609    0.00336     0.38945
      H   13    0.10498      0.00000     0.39276    0.00226     0.39502
      H   14    0.05053      0.00000     0.44710    0.00236     0.44947
      H   15    0.17872      0.00000     0.31964    0.00164     0.32128
      H   16    0.17815      0.00000     0.32014    0.00171     0.32185
      H   17    0.09678      0.00000     0.40201    0.00120     0.40322
      H   18    0.11108      0.00000     0.38731    0.00161     0.38892
      H   19    0.09578      0.00000     0.40307    0.00115     0.40422
      H   20    0.09684      0.00000     0.40199    0.00117     0.40316
      H   21    0.09020      0.00000     0.40839    0.00141     0.40980
      H   22    0.08141      0.00000     0.41589    0.00269     0.41859
      H   23    0.17860      0.00000     0.31795    0.00345     0.32140
      H   24    0.17077      0.00000     0.32727    0.00196     0.32923
 =======================================================================
   * Total *   -0.00000      9.99654    28.85792    0.14554    39.00000

 Normal termination of Gaussian 16 at Tue Dec  8 10:30:51 2020.
