 Gaussian 16, Revision A.03,

 -----------------------------------------------------------
 # opt freq B3LYP/6-31G(d) empiricaldispersion=gd3bj scf=xqc
 -----------------------------------------------------------

 -------------------------------
 CID_103484114_JID_7129_neutraal
 -------------------------------
 Symbolic Z-matrix:
 Charge =  0 Multiplicity = 1

 SCF Done:  E(RB3LYP) =  -789.726044646     A.U. after   15 cycles
 SCF Done:  E(RB3LYP) =  -789.729629796     A.U. after   12 cycles
 SCF Done:  E(RB3LYP) =  -789.724419836     A.U. after   13 cycles
 SCF Done:  E(RB3LYP) =  -789.730212421     A.U. after   12 cycles
 SCF Done:  E(RB3LYP) =  -789.732628220     A.U. after   14 cycles
 SCF Done:  E(RB3LYP) =  -789.734688520     A.U. after   13 cycles
 SCF Done:  E(RB3LYP) =  -789.733931867     A.U. after   13 cycles
 SCF Done:  E(RB3LYP) =  -789.735810005     A.U. after   13 cycles
 SCF Done:  E(RB3LYP) =  -789.736754933     A.U. after   13 cycles
 SCF Done:  E(RB3LYP) =  -789.737709687     A.U. after   13 cycles
 SCF Done:  E(RB3LYP) =  -789.738437409     A.U. after   10 cycles
 SCF Done:  E(RB3LYP) =  -789.738438496     A.U. after    8 cycles
 SCF Done:  E(RB3LYP) =  -789.738438808     A.U. after    8 cycles
 SCF Done:  E(RB3LYP) =  -789.738438968     A.U. after    7 cycles
 SCF Done:  E(RB3LYP) =  -789.738438993     A.U. after    7 cycles
 Optimization completed.
    -- Stationary point found.
 Normal termination of Gaussian 16 at Sun Dec 13 12:43:31 2020.

 --------------------------------------------------------------------
 #N Geom=AllCheck Guess=TCheck SCRF=Check GenChk RB3LYP/6-31G(d) Freq
 --------------------------------------------------------------------

 Structure from the checkpoint file:  "JID_7129.chk"
 -------------------------------
 CID_103484114_JID_7129_neutraal
 -------------------------------
 Charge =  0 Multiplicity = 1

 SCF Done:  E(RB3LYP) =  -789.738438993     A.U. after    1 cycles

  Exact polarizability: 153.827   0.838 156.764   2.427   2.010 127.557
 Approx polarizability: 203.174  10.042 212.613  -2.056   0.362 202.338

                      1                      2                      3
                      A                      A                      A
 Frequencies --     22.6508                39.2915                48.9020
 Red. masses --      3.8476                 3.6110                 3.7551
 Frc consts  --      0.0012                 0.0033                 0.0053
 IR Inten    --      0.6336                 0.2742                 0.7605

                      4                      5                      6
                      A                      A                      A
 Frequencies --     59.0948                72.6401                86.4599
 Red. masses --      4.9014                 3.7777                 3.8172
 Frc consts  --      0.0101                 0.0117                 0.0168
 IR Inten    --      1.3750                 0.5580                 1.4572

                      7                      8                      9
                      A                      A                      A
 Frequencies --    109.1158               121.3069               170.5997
 Red. masses --      4.3995                 3.0347                 3.0280
 Frc consts  --      0.0309                 0.0263                 0.0519
 IR Inten    --      1.8995                 2.8764                 2.7003

                     10                     11                     12
                      A                      A                      A
 Frequencies --    190.5474               207.7140               229.8502
 Red. masses --      2.9018                 2.3252                 1.6414
 Frc consts  --      0.0621                 0.0591                 0.0511
 IR Inten    --      1.7358                 1.1905                 0.4725

                     13                     14                     15
                      A                      A                      A
 Frequencies --    240.5984               254.2833               283.5111
 Red. masses --      1.9181                 1.3775                 1.9117
 Frc consts  --      0.0654                 0.0525                 0.0905
 IR Inten    --      1.9932                 2.7312                 1.1447

                     16                     17                     18
                      A                      A                      A
 Frequencies --    317.5346               322.2114               329.7993
 Red. masses --      2.0638                 2.2105                 2.5023
 Frc consts  --      0.1226                 0.1352                 0.1604
 IR Inten    --      3.1415                 4.1663                 3.9369

                     19                     20                     21
                      A                      A                      A
 Frequencies --    353.5771               402.6963               430.8585
 Red. masses --      3.3536                 2.0591                 3.1251
 Frc consts  --      0.2470                 0.1967                 0.3418
 IR Inten    --      4.0301                 3.3582                 2.3526

                     22                     23                     24
                      A                      A                      A
 Frequencies --    443.3501               464.1518               473.9224
 Red. masses --      2.6065                 2.5046                 2.7269
 Frc consts  --      0.3019                 0.3179                 0.3609
 IR Inten    --      8.3359                 0.1749                 1.9816

                     25                     26                     27
                      A                      A                      A
 Frequencies --    533.7882               559.2030               565.3827
 Red. masses --      3.1170                 2.6213                 2.8829
 Frc consts  --      0.5233                 0.4830                 0.5429
 IR Inten    --      5.4801                 6.5742                12.0058

                     28                     29                     30
                      A                      A                      A
 Frequencies --    586.4515               619.2848               681.7851
 Red. masses --      2.1965                 3.3072                 2.9254
 Frc consts  --      0.4451                 0.7473                 0.8012
 IR Inten    --      4.1127                 0.1506                 2.0106

                     31                     32                     33
                      A                      A                      A
 Frequencies --    781.9709               797.4219               825.4840
 Red. masses --      2.8138                 1.4568                 2.2234
 Frc consts  --      1.0137                 0.5458                 0.8927
 IR Inten    --      5.3197                 4.6702                 0.9453

                     34                     35                     36
                      A                      A                      A
 Frequencies --    840.6657               845.1311               852.3556
 Red. masses --      2.3469                 1.6187                 2.5169
 Frc consts  --      0.9772                 0.6812                 1.0774
 IR Inten    --      8.2545                 6.0008                 5.1566

                     37                     38                     39
                      A                      A                      A
 Frequencies --    872.2195               900.9054               911.8346
 Red. masses --      2.8215                 2.5393                 1.7967
 Frc consts  --      1.2647                 1.2143                 0.8801
 IR Inten    --      3.5093                12.3001                 4.0042

                     40                     41                     42
                      A                      A                      A
 Frequencies --    922.2168               926.6040               954.8163
 Red. masses --      2.5754                 1.7026                 2.1261
 Frc consts  --      1.2905                 0.8613                 1.1420
 IR Inten    --     25.5627                13.5665                 5.6504

                     43                     44                     45
                      A                      A                      A
 Frequencies --    983.5908              1018.6501              1021.0149
 Red. masses --      1.7635                 1.5301                 1.8775
 Frc consts  --      1.0052                 0.9354                 1.1532
 IR Inten    --      1.4247                 2.3637                 4.1653

                     46                     47                     48
                      A                      A                      A
 Frequencies --   1046.0894              1067.7965              1073.2389
 Red. masses --      2.8907                 2.1919                 1.7562
 Frc consts  --      1.8637                 1.4725                 1.1918
 IR Inten    --     14.9902                19.4353                 7.6008

                     49                     50                     51
                      A                      A                      A
 Frequencies --   1084.6333              1119.2216              1131.1729
 Red. masses --      2.6010                 3.0745                 1.9682
 Frc consts  --      1.8028                 2.2691                 1.4838
 IR Inten    --     14.0130                32.9918                24.8867

                     52                     53                     54
                      A                      A                      A
 Frequencies --   1138.9474              1145.9159              1163.9786
 Red. masses --      2.2267                 2.2673                 1.8082
 Frc consts  --      1.7019                 1.7542                 1.4434
 IR Inten    --     12.4894                38.4349                13.0837

                     55                     56                     57
                      A                      A                      A
 Frequencies --   1190.2438              1202.2625              1208.0211
 Red. masses --      1.6828                 1.3808                 1.6698
 Frc consts  --      1.4046                 1.1759                 1.4357
 IR Inten    --     78.5163                 6.0773                 4.2775

                     58                     59                     60
                      A                      A                      A
 Frequencies --   1218.8631              1249.5888              1263.3889
 Red. masses --      2.2126                 2.2480                 1.6130
 Frc consts  --      1.9367                 2.0681                 1.5169
 IR Inten    --     43.3642               261.3629                 7.4877

                     61                     62                     63
                      A                      A                      A
 Frequencies --   1278.9263              1296.9821              1318.3595
 Red. masses --      1.3611                 1.2150                 1.2900
 Frc consts  --      1.3117                 1.2042                 1.3210
 IR Inten    --     22.2884                 3.9915                 8.2141

                     64                     65                     66
                      A                      A                      A
 Frequencies --   1343.8909              1346.0212              1361.9782
 Red. masses --      1.1435                 1.3262                 1.3318
 Frc consts  --      1.2168                 1.4156                 1.4555
 IR Inten    --      6.1385                 5.6535                 8.7822

                     67                     68                     69
                      A                      A                      A
 Frequencies --   1365.7611              1384.3787              1394.9656
 Red. masses --      1.4568                 1.3921                 1.3366
 Frc consts  --      1.6011                 1.5719                 1.5324
 IR Inten    --      2.7194                 4.8958                 2.0274

                     70                     71                     72
                      A                      A                      A
 Frequencies --   1395.7438              1403.5013              1406.9912
 Red. masses --      1.4764                 1.4430                 1.5106
 Frc consts  --      1.6946                 1.6747                 1.7619
 IR Inten    --     42.0086                 6.1245                 4.3398

                     73                     74                     75
                      A                      A                      A
 Frequencies --   1416.3777              1424.4604              1429.2633
 Red. masses --      1.3228                 1.3826                 1.3947
 Frc consts  --      1.5635                 1.6529                 1.6786
 IR Inten    --      3.4364                17.1566                17.7323

                     76                     77                     78
                      A                      A                      A
 Frequencies --   1441.5365              1444.8017              1489.8262
 Red. masses --      1.3411                 1.3745                 1.0836
 Frc consts  --      1.6419                 1.6905                 1.4171
 IR Inten    --      9.3561                 7.0614                15.4366

                     79                     80                     81
                      A                      A                      A
 Frequencies --   1498.6292              1501.7468              1512.8753
 Red. masses --      1.0957                 1.0990                 1.0847
 Frc consts  --      1.4499                 1.4604                 1.4627
 IR Inten    --     14.0636                 8.7632                 1.1923

                     82                     83                     84
                      A                      A                      A
 Frequencies --   1514.8408              1518.6695              1520.0952
 Red. masses --      1.0594                 1.0809                 1.0815
 Frc consts  --      1.4323                 1.4688                 1.4724
 IR Inten    --      8.1090                 2.8908                 8.5027

                     85                     86                     87
                      A                      A                      A
 Frequencies --   1521.6730              1525.5418              1533.5536
 Red. masses --      1.0861                 1.0546                 1.0895
 Frc consts  --      1.4817                 1.4460                 1.5096
 IR Inten    --      7.1388                 1.6746                 4.4024

                     88                     89                     90
                      A                      A                      A
 Frequencies --   1535.4789              1542.0453              1813.5860
 Red. masses --      1.0596                 1.0677                10.7457
 Frc consts  --      1.4720                 1.4959                20.8239
 IR Inten    --     20.2010                 1.8380               149.0914

                     91                     92                     93
                      A                      A                      A
 Frequencies --   1820.3369              2947.4897              3005.0588
 Red. masses --     10.9466                 1.0722                 1.0830
 Frc consts  --     21.3714                 5.4883                 5.7622
 IR Inten    --    144.7772                31.2329                14.8310

                     94                     95                     96
                      A                      A                      A
 Frequencies --   3021.5181              3032.3709              3033.5198
 Red. masses --      1.0680                 1.0682                 1.0619
 Frc consts  --      5.7450                 5.7874                 5.7571
 IR Inten    --     24.8032                33.7654                 9.0599

                     97                     98                     99
                      A                      A                      A
 Frequencies --   3039.4994              3053.4080              3056.2940
 Red. masses --      1.0654                 1.0366                 1.0671
 Frc consts  --      5.7992                 5.6943                 5.8726
 IR Inten    --     43.3355                24.4817                12.3467

                    100                    101                    102
                      A                      A                      A
 Frequencies --   3060.7240              3064.4820              3069.5855
 Red. masses --      1.0657                 1.0372                 1.0958
 Frc consts  --      5.8823                 5.7391                 6.0835
 IR Inten    --      3.9736                20.4713                47.9967

                    103                    104                    105
                      A                      A                      A
 Frequencies --   3074.1180              3081.0502              3097.1281
 Red. masses --      1.0985                 1.1033                 1.0590
 Frc consts  --      6.1162                 6.1706                 5.9849
 IR Inten    --     41.2370                96.6559                26.1054

                    106                    107                    108
                      A                      A                      A
 Frequencies --   3099.5737              3117.0147              3118.2064
 Red. masses --      1.0833                 1.0983                 1.0965
 Frc consts  --      6.1322                 6.2868                 6.2817
 IR Inten    --      9.5650                58.6508                14.7005

                    109                    110                    111
                      A                      A                      A
 Frequencies --   3129.5665              3131.5592              3132.5223
 Red. masses --      1.1030                 1.1007                 1.0979
 Frc consts  --      6.3652                 6.3598                 6.3475
 IR Inten    --     29.4428                16.8963                 9.2752

                    112                    113                    114
                      A                      A                      A
 Frequencies --   3135.9306              3142.6491              3162.8097
 Red. masses --      1.0933                 1.1046                 1.1076
 Frc consts  --      6.3347                 6.4274                 6.5277
 IR Inten    --     17.9261                 7.2491                25.5964

 - Thermochemistry -
 -------------------
 Temperature   298.150 Kelvin.  Pressure   1.00000 Atm.
 Atom     1 has atomic number  6 and mass  12.00000

 Molecular mass:   241.16779 amu.
 Principal axes and moments of inertia in atomic units:
                           1         2         3
     Eigenvalues --  3238.139535155.697106786.56618
           X            0.99985  -0.01443   0.00955
           Y            0.01432   0.99983   0.01144
           Z           -0.00971  -0.01130   0.99989
 This molecule is an asymmetric top.
 Rotational symmetry number  1.
 Warning -- assumption of classical behavior for rotation
           may cause significant error
 Rotational temperatures (Kelvin)      0.02675     0.01680     0.01276
 Rotational constants (GHZ):           0.55734     0.35005     0.26593
 Zero-point vibrational energy     933611.9 (Joules/Mol)
                                  223.13860 (Kcal/Mol)
 Warning -- explicit consideration of  29 degrees of freedom as
           vibrations may cause significant error
 Vibrational temperatures:     32.59    56.53    70.36    85.02   104.51
          (Kelvin)            124.40   156.99   174.53   245.45   274.16
                              298.85   330.70   346.17   365.86   407.91
                              456.86   463.59   474.51   508.72   579.39
                              619.91   637.88   667.81   681.87   768.00
                              804.57   813.46   843.77   891.01   980.94
                             1125.08  1147.31  1187.69  1209.53  1215.96
                             1226.35  1254.93  1296.20  1311.93  1326.86
                             1333.18  1373.77  1415.17  1465.61  1469.01
                             1505.09  1536.32  1544.15  1560.55  1610.31
                             1627.51  1638.69  1648.72  1674.71  1712.50
                             1729.79  1738.07  1753.67  1797.88  1817.73
                             1840.09  1866.07  1896.83  1933.56  1936.62
                             1959.58  1965.03  1991.81  2007.04  2008.16
                             2019.33  2024.35  2037.85  2049.48  2056.39
                             2074.05  2078.75  2143.53  2156.19  2160.68
                             2176.69  2179.52  2185.03  2187.08  2189.35
                             2194.91  2206.44  2209.21  2218.66  2609.35
                             2619.06  4240.78  4323.61  4347.29  4362.91
                             4364.56  4373.16  4393.17  4397.33  4403.70
                             4409.11  4416.45  4422.97  4432.94  4456.08
                             4459.60  4484.69  4486.40  4502.75  4505.62
                             4507.00  4511.90  4521.57  4550.58

 Zero-point correction=                           0.355594 (Hartree/Particle)
 Thermal correction to Energy=                    0.373707
 Thermal correction to Enthalpy=                  0.374651
 Thermal correction to Gibbs Free Energy=         0.308280
 Sum of electronic and zero-point Energies=           -789.382845
 Sum of electronic and thermal Energies=              -789.364732
 Sum of electronic and thermal Enthalpies=            -789.363788
 Sum of electronic and thermal Free Energies=         -789.430159

                     E (Thermal)             CV                S
                      KCal/Mol        Cal/Mol-Kelvin    Cal/Mol-Kelvin
 Total                  234.505             68.070            139.690
 Electronic               0.000              0.000              0.000
 Translational            0.889              2.981             42.342
 Rotational               0.889              2.981             33.093
 Vibrational            232.727             62.108             64.255
 Vibration     1          0.593              1.985              6.387
 Vibration     2          0.594              1.981              5.294
 Vibration     3          0.595              1.978              4.861
 Vibration     4          0.596              1.974              4.487
 Vibration     5          0.599              1.967              4.081
 Vibration     6          0.601              1.959              3.739
 Vibration     7          0.606              1.942              3.285
 Vibration     8          0.609              1.931              3.079
 Vibration     9          0.626              1.879              2.429
 Vibration    10          0.634              1.853              2.222
 Vibration    11          0.641              1.829              2.064
 Vibration    12          0.652              1.795              1.880
 Vibration    13          0.658              1.778              1.798
 Vibration    14          0.665              1.756              1.701
 Vibration    15          0.682              1.704              1.512
 Vibration    16          0.704              1.640              1.323
 Vibration    17          0.707              1.631              1.299
 Vibration    18          0.713              1.616              1.261
 Vibration    19          0.730              1.568              1.150
 Vibration    20          0.768              1.464              0.953
 Vibration    21          0.792              1.403              0.856
 Vibration    22          0.803              1.376              0.816
 Vibration    23          0.822              1.330              0.754
 Vibration    24          0.831              1.308              0.727
 Vibration    25          0.889              1.175              0.579
 Vibration    26          0.915              1.120              0.525
 Vibration    27          0.921              1.106              0.513
 Vibration    28          0.944              1.061              0.474
 Vibration    29          0.979              0.991              0.418

 Optimization completed.
    -- Stationary point found.
 Normal termination of Gaussian 16 at Sun Dec 13 13:00:13 2020.

 ----------------------------------------------------------------------
 # B3LYP/6-311++G(d,p) empiricaldispersion=gd3bj scf=xqc pop=npa geom=c
 heck
 ----------------------------------------------------------------------

 ---------------------------------------
 CID_103484114_JID_7129_Energie_neutraal
 ---------------------------------------
 Structure from the checkpoint file:  "JID_7129.chk"
 Charge =  0 Multiplicity = 1

 SCF Done:  E(RB3LYP) =  -789.963811531     A.U. after   15 cycles
 Normal termination of Gaussian 16 at Sun Dec 13 13:09:14 2020.

 ----------------------------------------------------------------------
 # B3LYP/6-311++G(d,p) empiricaldispersion=gd3bj scf=xqc pop=npa geom=c
 heck
 ----------------------------------------------------------------------

 -------------------------------------
 CID_103484114_JID_7129_Energie_kation
 -------------------------------------
 Structure from the checkpoint file:  "JID_7129.chk"
 Charge =  1 Multiplicity = 2

 SCF Done:  E(UB3LYP) =  -789.683921524     A.U. after   20 cycles
 Normal termination of Gaussian 16 at Sun Dec 13 13:27:03 2020.
 Gaussian 16:  ES64L-G16RevA.03 25-Dec-2016

 ----------------------------------------------------------------------
 # B3LYP/6-311++G(d,p) empiricaldispersion=gd3bj scf=xqc pop=npa geom=c
 heck
 ----------------------------------------------------------------------

 ------------------------------------
 CID_103484114_JID_7129_Energie_anion
 ------------------------------------
 Structure from the checkpoint file:  "JID_7129.chk"
 Charge = -1 Multiplicity = 2

                         Standard orientation:
 ---------------------------------------------------------------------
 Center     Atomic      Atomic             Coordinates (Angstroms)
 Number     Number       Type             X           Y           Z
 ---------------------------------------------------------------------
      1          6           0       -1.855858   -2.767501    0.290645
      2          6           0       -3.172480   -2.034448    0.096303
      3          8           0       -2.968338   -0.727833   -0.499188
      4          6           0       -2.631497    0.266626    0.346921
      5          8           0       -2.461748    0.117119    1.539473
      6          6           0       -2.524371    1.595226   -0.377330
      7          6           0       -1.454962    2.520684    0.222604
      8          6           0       -0.016664    2.222422   -0.201231
      9          8           0        0.736421    3.125770   -0.503466
     10          6           0        0.409987    0.754843   -0.174079
     11          7           0        1.776046    0.542659   -0.602134
     12          6           0        2.764856    0.965549    0.397696
     13          6           0        2.871711    0.007427    1.596297
     14          6           0        3.152089   -1.424861    1.120820
     15          6           0        2.143726   -1.853929    0.045027
     16          6           0        2.086552   -0.813833   -1.090913
     17          6           0        1.175027   -1.245970   -2.239440
     18          1           0       -1.319514   -2.866655   -0.658110
     19          1           0       -2.044857   -3.772296    0.684772
     20          1           0       -1.221835   -2.232980    1.002531
     21          1           0       -3.821813   -2.552077   -0.613000
     22          1           0       -3.697264   -1.906755    1.045929
     23          1           0       -2.371679    1.422222   -1.446559
     24          1           0       -3.506235    2.076324   -0.277422
     25          1           0       -1.650093    3.561391   -0.047033
     26          1           0       -1.511783    2.441666    1.316272
     27          1           0        0.167633    0.372276    0.835773
     28          1           0       -0.264868    0.216411   -0.847078
     29          1           0        3.738054    1.017635   -0.109807
     30          1           0        2.520868    1.981380    0.715266
     31          1           0        1.936900    0.025939    2.173424
     32          1           0        3.661771    0.351686    2.275399
     33          1           0        3.137934   -2.124680    1.965289
     34          1           0        4.164802   -1.468341    0.693441
     35          1           0        1.143835   -1.960486    0.488675
     36          1           0        2.412454   -2.837302   -0.362565
     37          1           0        3.103618   -0.729334   -1.502774
     38          1           0        1.083503   -0.442552   -2.977691
     39          1           0        1.596825   -2.126503   -2.735538
     40          1           0        0.170042   -1.519449   -1.898719
 ---------------------------------------------------------------------

 SCF Done:  E(UB3LYP) =  -789.953136139     A.U. after   33 cycles
 SCF Done:  E(UB3LYP) =  -789.953136139     a.u. after    1 cycles

 The electronic state is 2-A.
 Alpha  occ. eigenvalues --  -19.07537 -19.01857 -19.00559 -14.20381 -10.20816
 Alpha  occ. eigenvalues --  -10.15082 -10.13095 -10.10348 -10.10074 -10.10039
 Alpha  occ. eigenvalues --  -10.09114 -10.08638 -10.07237 -10.07009 -10.06675
 Alpha  occ. eigenvalues --  -10.06671 -10.06540  -1.01468  -0.94136  -0.92850
 Alpha  occ. eigenvalues --   -0.83263  -0.71732  -0.69968  -0.67836  -0.67478
 Alpha  occ. eigenvalues --   -0.63087  -0.59942  -0.58895  -0.54720  -0.52825
 Alpha  occ. eigenvalues --   -0.50233  -0.47657  -0.45991  -0.42338  -0.41962
 Alpha  occ. eigenvalues --   -0.40541  -0.39312  -0.38931  -0.38217  -0.36550
 Alpha  occ. eigenvalues --   -0.35839  -0.35257  -0.34656  -0.33862  -0.33412
 Alpha  occ. eigenvalues --   -0.32367  -0.31758  -0.30908  -0.30178  -0.29795
 Alpha  occ. eigenvalues --   -0.29221  -0.28148  -0.27794  -0.27519  -0.26552
 Alpha  occ. eigenvalues --   -0.26286  -0.25219  -0.24951  -0.24662  -0.23899
 Alpha  occ. eigenvalues --   -0.22792  -0.22077  -0.21479  -0.19048  -0.15027
 Alpha  occ. eigenvalues --   -0.11325   0.04215
 Alpha virt. eigenvalues --    0.06199   0.06467   0.06685   0.07371   0.08060
 Alpha virt. eigenvalues --    0.08601   0.08945   0.09475   0.09681   0.10133
 Alpha virt. eigenvalues --    0.10450   0.11109   0.11272   0.11558   0.11830

  Beta  occ. eigenvalues --  -19.07533 -19.01819 -19.00443 -14.20382 -10.20769
  Beta  occ. eigenvalues --  -10.14967 -10.13068 -10.10345 -10.10078 -10.10019
  Beta  occ. eigenvalues --  -10.09112 -10.08642 -10.07225 -10.06998 -10.06660
  Beta  occ. eigenvalues --  -10.06633 -10.06525  -1.01422  -0.93915  -0.92799
  Beta  occ. eigenvalues --   -0.83256  -0.71663  -0.69943  -0.67820  -0.67416
  Beta  occ. eigenvalues --   -0.63014  -0.59882  -0.58848  -0.54635  -0.52791
  Beta  occ. eigenvalues --   -0.50199  -0.47579  -0.45926  -0.42269  -0.41814
  Beta  occ. eigenvalues --   -0.40472  -0.39238  -0.38864  -0.38132  -0.36512
  Beta  occ. eigenvalues --   -0.35797  -0.35136  -0.34597  -0.33822  -0.33359
  Beta  occ. eigenvalues --   -0.32277  -0.31649  -0.30861  -0.30130  -0.29717
  Beta  occ. eigenvalues --   -0.29155  -0.28115  -0.27741  -0.27447  -0.26506
  Beta  occ. eigenvalues --   -0.26221  -0.24934  -0.24916  -0.24579  -0.23852
  Beta  occ. eigenvalues --   -0.22750  -0.22026  -0.21396  -0.19009  -0.14938
  Beta  occ. eigenvalues --   -0.11302
  Beta virt. eigenvalues --    0.06289   0.06627   0.07278   0.07358   0.08067
  Beta virt. eigenvalues --    0.08497   0.08798   0.09183   0.09862   0.10091
  Beta virt. eigenvalues --    0.10468   0.10797   0.11219   0.11572   0.11676

 Mulliken charges and spin densities:
               1          2
     1  C    0.105517  -0.540490
     2  C    0.785925  -0.886446
     3  O    0.066871   0.031912
     4  C   -0.777926   0.132302
     5  O   -0.196391   0.018659
     6  C    0.438244  -0.323196
     7  C   -0.020254  -0.205684
     8  C    0.508481  -0.398654
     9  O   -0.289781   0.041434
    10  C   -1.113146   0.204029
    11  N    0.354102   0.018064
    12  C   -0.369988   0.090250
    13  C   -0.185860   0.012975
    14  C    0.203538  -0.805654
    15  C   -0.167083   0.050797
    16  C   -0.420079   0.643078
    17  C    0.106876  -0.784888
    18  H    0.187499  -0.035095
    19  H   -0.888135   1.051540
    20  H    0.014435   0.162110
    21  H   -0.632035   0.821773
    22  H    0.063471   0.096064
    23  H   -0.063729   0.303042
    24  H   -0.097409   0.300390
    25  H    0.212416  -0.024401
    26  H    0.092028   0.132882
    27  H   -0.156300   0.244113
    28  H    0.942510  -0.869453
    29  H    0.050944   0.096466
    30  H    0.186865  -0.012411
    31  H    0.133854   0.003541
    32  H   -0.065216   0.238906
    33  H   -0.241044   0.403491
    34  H    0.117045  -0.001174
    35  H    0.451688  -0.343249
    36  H   -0.349318   0.526381
    37  H    0.119377   0.050315
    38  H    0.092386   0.073610
    39  H   -0.296794   0.453714
    40  H    0.096416   0.028957
 Sum of Mulliken charges =  -1.00000   1.00000

 Dipole moment (field-independent basis, Debye):
    X=              1.9272    Y=              5.1254    Z=              0.0978  Tot=              5.4766
 Quadrupole moment (field-independent basis, Debye-Ang):
   XX=           -164.1629   YY=           -176.4170   ZZ=           -141.8905
   XY=            -15.3384   XZ=              0.3725   YZ=              2.2439

 Summary of Natural Population Analysis:

                                       Natural Population
                Natural  -----------------------------------------------
    Atom  No    Charge         Core      Valence    Rydberg      Total
 -----------------------------------------------------------------------
      C    1   -0.29914      0.99966     2.29407    0.00541     3.29914
      C    2   -0.01558      0.99957     2.00418    0.01183     3.01558
      O    3   -0.28250      0.99986     3.27301    0.00964     4.28250
      C    4    0.41360      0.99968     1.56013    0.02658     2.58640
      O    5   -0.30966      0.99987     3.30406    0.00573     4.30966
      C    6   -0.23887      0.99958     2.23046    0.00883     3.23887
      C    7   -0.23685      0.99958     2.22884    0.00842     3.23685
      C    8    0.30804      0.99967     1.67165    0.02064     2.69196
      O    9   -0.27803      0.99987     3.27163    0.00653     4.27803
      C   10   -0.14656      0.99954     2.13651    0.01051     3.14656
      N   11   -0.27546      0.99971     2.76261    0.01313     3.77546
      C   12   -0.08568      0.99961     2.07593    0.01015     3.08568
      C   13   -0.20200      0.99963     2.19466    0.00771     3.20200
      C   14   -0.18949      0.99963     2.18128    0.00858     3.18949
      C   15   -0.20082      0.99960     2.19243    0.00879     3.20082
      C   16   -0.00206      0.99959     1.98938    0.01309     3.00206
      C   17   -0.29140      0.99964     2.28588    0.00588     3.29140
      H   18    0.10021      0.00000     0.39818    0.00161     0.39979
      H   19    0.10667      0.00000     0.39121    0.00213     0.39333
      H   20    0.10419      0.00000     0.39417    0.00164     0.39581
      H   21    0.09324      0.00000     0.40465    0.00211     0.40676
      H   22    0.09373      0.00000     0.40494    0.00133     0.40627
      H   23    0.11171      0.00000     0.38704    0.00126     0.38829
      H   24    0.11524      0.00000     0.38389    0.00087     0.38476
      H   25    0.10807      0.00000     0.39070    0.00123     0.39193
      H   26    0.11877      0.00000     0.37985    0.00138     0.38123
      H   27    0.10138      0.00000     0.39678    0.00184     0.39862
      H   28    0.11011      0.00000     0.38768    0.00221     0.38989
      H   29    0.08987      0.00000     0.40903    0.00111     0.41013
      H   30    0.10565      0.00000     0.39328    0.00107     0.39435
      H   31    0.09539      0.00000     0.40343    0.00118     0.40461
      H   32    0.09747      0.00000     0.40162    0.00092     0.40253
      H   33    0.09913      0.00000     0.39988    0.00098     0.40087
      H   34    0.09012      0.00000     0.40860    0.00128     0.40988
      H   35    0.09694      0.00000     0.40118    0.00188     0.40306
      H   36    0.10022      0.00000     0.39857    0.00121     0.39978
      H   37    0.09013      0.00000     0.40846    0.00141     0.40987
      H   38    0.10361      0.00000     0.39533    0.00106     0.39639
      H   39    0.10270      0.00000     0.39657    0.00073     0.39730
      H   40    0.09791      0.00000     0.40054    0.00155     0.40209
 =======================================================================
   * Total *    0.00000     16.99430    48.79229    0.21341    66.00000

 Normal termination of Gaussian 16 at Sun Dec 13 13:55:45 2020.
