 Gaussian 16, Revision A.03,

 -----------------------------------------------------------
 # opt freq B3LYP/6-31G(d) empiricaldispersion=gd3bj scf=xqc
 -----------------------------------------------------------

 ------------------------------
 CID_91396420_JID_5558_neutraal
 ------------------------------
 Symbolic Z-matrix:
 Charge =  0 Multiplicity = 1

 SCF Done:  E(RB3LYP) =  -604.543386244     A.U. after   12 cycles
 SCF Done:  E(RB3LYP) =  -604.525245180     A.U. after   12 cycles
 SCF Done:  E(RB3LYP) =  -604.546837135     A.U. after   11 cycles
 SCF Done:  E(RB3LYP) =  -604.546245357     A.U. after   10 cycles
 SCF Done:  E(RB3LYP) =  -604.546106821     A.U. after   11 cycles
 SCF Done:  E(RB3LYP) =  -604.547526503     A.U. after   10 cycles
 SCF Done:  E(RB3LYP) =  -604.547571825     A.U. after   10 cycles
 SCF Done:  E(RB3LYP) =  -604.547728191     A.U. after   10 cycles
 SCF Done:  E(RB3LYP) =  -604.547763750     A.U. after    9 cycles
 SCF Done:  E(RB3LYP) =  -604.547782589     A.U. after    9 cycles
 SCF Done:  E(RB3LYP) =  -604.547824687     A.U. after    9 cycles
 SCF Done:  E(RB3LYP) =  -604.547829153     A.U. after    9 cycles
 SCF Done:  E(RB3LYP) =  -604.547833348     A.U. after    9 cycles
 SCF Done:  E(RB3LYP) =  -604.547834877     A.U. after    9 cycles
 SCF Done:  E(RB3LYP) =  -604.547835375     A.U. after    9 cycles
 SCF Done:  E(RB3LYP) =  -604.547835464     A.U. after    6 cycles
 Optimization completed.
    -- Stationary point found.
 Normal termination of Gaussian 16 at Thu Dec 10 16:04:43 2020.

 --------------------------------------------------------------------
 #N Geom=AllCheck Guess=TCheck SCRF=Check GenChk RB3LYP/6-31G(d) Freq
 --------------------------------------------------------------------

 Structure from the checkpoint file:  "JID_5558.chk"
 ------------------------------
 CID_91396420_JID_5558_neutraal
 ------------------------------
 Charge =  0 Multiplicity = 1

 SCF Done:  E(RB3LYP) =  -604.547835464     A.U. after    1 cycles

  Exact polarizability: 168.284   3.176 144.124   3.687   5.908 134.731
 Approx polarizability: 213.270   7.377 202.060   8.972  13.749 214.116

                      1                      2                      3
                      A                      A                      A
 Frequencies --     26.6647                40.8323                54.3444
 Red. masses --      2.9397                 3.4827                 2.8127
 Frc consts  --      0.0012                 0.0034                 0.0049
 IR Inten    --      0.0499                 0.0929                 0.0809

                      4                      5                      6
                      A                      A                      A
 Frequencies --     66.9342               100.2706               120.4492
 Red. masses --      3.1831                 2.9786                 3.2601
 Frc consts  --      0.0084                 0.0176                 0.0279
 IR Inten    --      0.0503                 0.9654                 0.2397

                      7                      8                      9
                      A                      A                      A
 Frequencies --    157.6472               166.1523               184.4918
 Red. masses --      2.0649                 2.7490                 2.6279
 Frc consts  --      0.0302                 0.0447                 0.0527
 IR Inten    --      0.0829                 0.5263                 1.8927

                     10                     11                     12
                      A                      A                      A
 Frequencies --    206.6957               218.3317               241.2163
 Red. masses --      2.1540                 2.3961                 2.0509
 Frc consts  --      0.0542                 0.0673                 0.0703
 IR Inten    --      0.2661                 0.6005                 0.8187

                     13                     14                     15
                      A                      A                      A
 Frequencies --    263.9472               276.9727               317.1102
 Red. masses --      1.6120                 1.7501                 1.2225
 Frc consts  --      0.0662                 0.0791                 0.0724
 IR Inten    --      0.0309                 4.2784                34.3000

                     16                     17                     18
                      A                      A                      A
 Frequencies --    339.0083               362.5325               379.0640
 Red. masses --      2.1215                 2.2498                 2.1709
 Frc consts  --      0.1437                 0.1742                 0.1838
 IR Inten    --      0.8632                 0.6863                 2.9001

                     19                     20                     21
                      A                      A                      A
 Frequencies --    387.1076               433.1998               451.5285
 Red. masses --      1.9326                 1.9746                 2.2898
 Frc consts  --      0.1706                 0.2183                 0.2751
 IR Inten    --      3.9816                 7.7798                 2.7214

                     22                     23                     24
                      A                      A                      A
 Frequencies --    492.8959               518.7638               548.1990
 Red. masses --      2.3955                 2.7218                 3.5510
 Frc consts  --      0.3429                 0.4316                 0.6288
 IR Inten    --      0.2925                 0.7554                 0.9024

                     25                     26                     27
                      A                      A                      A
 Frequencies --    623.3373               668.1348               690.4601
 Red. masses --      2.9364                 1.4090                 2.0694
 Frc consts  --      0.6722                 0.3706                 0.5813
 IR Inten    --      4.1454                29.4464                10.1359

                     28                     29                     30
                      A                      A                      A
 Frequencies --    742.6666               774.1844               803.1426
 Red. masses --      1.3550                 1.5951                 2.3669
 Frc consts  --      0.4403                 0.5633                 0.8995
 IR Inten    --      4.3785                 1.7472                 0.8574

                     31                     32                     33
                      A                      A                      A
 Frequencies --    809.9447               831.7184               854.9611
 Red. masses --      2.0024                 1.8455                 1.8881
 Frc consts  --      0.7739                 0.7522                 0.8131
 IR Inten    --      1.3112                 0.8637                 0.2493

                     34                     35                     36
                      A                      A                      A
 Frequencies --    872.6636               891.0267               902.2579
 Red. masses --      1.6180                 1.9605                 2.1598
 Frc consts  --      0.7260                 0.9171                 1.0359
 IR Inten    --     99.3331                50.0096                12.0174

                     37                     38                     39
                      A                      A                      A
 Frequencies --    920.3879               932.5082               957.7940
 Red. masses --      1.9290                 1.9933                 2.0069
 Frc consts  --      0.9628                 1.0212                 1.0847
 IR Inten    --     12.8217                 7.0019                 1.6216

                     40                     41                     42
                      A                      A                      A
 Frequencies --    964.7498               981.0696              1003.7009
 Red. masses --      1.9999                 2.1828                 1.2308
 Frc consts  --      1.0967                 1.2379                 0.7305
 IR Inten    --      1.4788                 3.5565                 0.7461

                     43                     44                     45
                      A                      A                      A
 Frequencies --   1008.5668              1018.9712              1045.5651
 Red. masses --      1.7192                 1.9752                 2.3920
 Frc consts  --      1.0303                 1.2083                 1.5407
 IR Inten    --      0.8394                 2.3897                14.3755

                     46                     47                     48
                      A                      A                      A
 Frequencies --   1067.7123              1070.4496              1089.7916
 Red. masses --      1.8358                 1.6968                 2.1695
 Frc consts  --      1.2330                 1.1456                 1.5181
 IR Inten    --      2.9652                 4.0683                 3.2375

                     49                     50                     51
                      A                      A                      A
 Frequencies --   1095.9034              1113.5283              1123.1175
 Red. masses --      1.6054                 2.0142                 2.2635
 Frc consts  --      1.1360                 1.4715                 1.6822
 IR Inten    --      0.9473                 0.3357                 4.1929

                     52                     53                     54
                      A                      A                      A
 Frequencies --   1132.9913              1150.6004              1169.7952
 Red. masses --      2.0967                 2.0123                 1.9211
 Frc consts  --      1.5858                 1.5696                 1.5489
 IR Inten    --      1.0270                 2.9984                 1.1805

                     55                     56                     57
                      A                      A                      A
 Frequencies --   1188.3550              1201.1406              1222.6281
 Red. masses --      1.0487                 1.4297                 1.1538
 Frc consts  --      0.8726                 1.2153                 1.0162
 IR Inten    --      0.3940                 1.5866                 0.7125

                     58                     59                     60
                      A                      A                      A
 Frequencies --   1236.3038              1258.8304              1269.5176
 Red. masses --      1.1651                 1.1838                 1.1829
 Frc consts  --      1.0492                 1.1052                 1.1233
 IR Inten    --      2.3560                 2.3270                 1.5422

                     61                     62                     63
                      A                      A                      A
 Frequencies --   1273.6055              1298.8066              1320.5759
 Red. masses --      1.2968                 1.3409                 1.2255
 Frc consts  --      1.2393                 1.3327                 1.2592
 IR Inten    --      1.7173                 4.0147                 1.2614

                     64                     65                     66
                      A                      A                      A
 Frequencies --   1326.6038              1348.7046              1367.4710
 Red. masses --      1.2218                 1.1585                 1.2464
 Frc consts  --      1.2669                 1.2416                 1.3732
 IR Inten    --      1.1904                 4.0146                 1.6460

                     67                     68                     69
                      A                      A                      A
 Frequencies --   1370.2688              1373.8777              1380.3484
 Red. masses --      1.3549                 1.3289                 1.2950
 Frc consts  --      1.4989                 1.4779                 1.4538
 IR Inten    --      1.7220                 2.8564                 2.1722

                     70                     71                     72
                      A                      A                      A
 Frequencies --   1392.7387              1394.9232              1403.3209
 Red. masses --      1.4286                 1.3474                 1.3395
 Frc consts  --      1.6326                 1.5447                 1.5542
 IR Inten    --      2.2435                 6.0370                 0.9382

                     73                     74                     75
                      A                      A                      A
 Frequencies --   1410.1622              1412.4573              1417.3309
 Red. masses --      1.3962                 1.3709                 1.3977
 Frc consts  --      1.6358                 1.6114                 1.6543
 IR Inten    --      1.4518                 2.7384                 6.1115

                     76                     77                     78
                      A                      A                      A
 Frequencies --   1431.6722              1440.3349              1443.1663
 Red. masses --      1.4315                 1.3512                 1.2794
 Frc consts  --      1.7288                 1.6516                 1.5699
 IR Inten    --      1.7481                 3.4005                 5.4423

                     79                     80                     81
                      A                      A                      A
 Frequencies --   1445.6574              1454.2733              1504.8154
 Red. masses --      1.4719                 1.4547                 1.0902
 Frc consts  --      1.8124                 1.8126                 1.4545
 IR Inten    --      1.0579                 4.8817                 6.4285

                     82                     83                     84
                      A                      A                      A
 Frequencies --   1507.8559              1513.5663              1514.0132
 Red. masses --      1.0862                 1.0816                 1.0764
 Frc consts  --      1.4550                 1.4599                 1.4538
 IR Inten    --      5.8035                 1.0553                 0.0803

                     85                     86                     87
                      A                      A                      A
 Frequencies --   1523.5631              1525.3228              1527.9877
 Red. masses --      1.0653                 1.0894                 1.0657
 Frc consts  --      1.4569                 1.4934                 1.4660
 IR Inten    --      0.4470                 4.1115                 4.7082

                     88                     89                     90
                      A                      A                      A
 Frequencies --   1530.8872              1535.5435              1544.9095
 Red. masses --      1.0812                 1.0763                 1.0673
 Frc consts  --      1.4929                 1.4952                 1.5009
 IR Inten    --      6.7791                 5.7702                 2.2158

                     91                     92                     93
                      A                      A                      A
 Frequencies --   1549.0303              1704.8705              1741.7569
 Red. masses --      1.0861                 1.0868                 6.1363
 Frc consts  --      1.5355                 1.8612                10.9681
 IR Inten    --      4.4047                27.0405                 2.2661

                     94                     95                     96
                      A                      A                      A
 Frequencies --   2955.5129              2996.8915              3010.6715
 Red. masses --      1.0729                 1.0795                 1.0732
 Frc consts  --      5.5216                 5.7125                 5.7313
 IR Inten    --     78.8079                16.4815                15.0282

                     97                     98                     99
                      A                      A                      A
 Frequencies --   3020.3450              3027.9209              3028.8454
 Red. masses --      1.0798                 1.0665                 1.0752
 Frc consts  --      5.8036                 5.7612                 5.8116
 IR Inten    --     23.7112                24.8853                43.6884

                    100                    101                    102
                      A                      A                      A
 Frequencies --   3037.5305              3041.7933              3043.4513
 Red. masses --      1.0632                 1.0516                 1.0705
 Frc consts  --      5.7796                 5.7326                 5.8423
 IR Inten    --     19.5668                19.4112                30.7404

                    103                    104                    105
                      A                      A                      A
 Frequencies --   3045.3293              3048.0258              3049.4167
 Red. masses --      1.0660                 1.0621                 1.0852
 Frc consts  --      5.8248                 5.8138                 5.9458
 IR Inten    --      4.0751                62.6257                24.8283

                    106                    107                    108
                      A                      A                      A
 Frequencies --   3055.9055              3065.0985              3067.0254
 Red. masses --      1.0778                 1.0931                 1.0816
 Frc consts  --      5.9305                 6.0506                 5.9945
 IR Inten    --     58.4267                 8.2191                81.2013

                    109                    110                    111
                      A                      A                      A
 Frequencies --   3076.9371              3083.7979              3085.7404
 Red. masses --      1.0949                 1.0991                 1.0926
 Frc consts  --      6.1074                 6.1581                 6.1295
 IR Inten    --     51.5679                82.0686                19.3422

                    112                    113                    114
                      A                      A                      A
 Frequencies --   3093.0127              3106.1537              3108.6329
 Red. masses --      1.0945                 1.0866                 1.1014
 Frc consts  --      6.1694                 6.1767                 6.2709
 IR Inten    --     12.5485                21.1787                51.2028

                    115                    116                    117
                      A                      A                      A
 Frequencies --   3111.6247              3115.5654              3143.6955
 Red. masses --      1.0938                 1.1019                 1.0840
 Frc consts  --      6.2399                 6.3016                 6.3117
 IR Inten    --     37.1274                59.4212                10.8369

                    118                    119                    120
                      A                      A                      A
 Frequencies --   3167.7182              3470.2929              3555.0428
 Red. masses --      1.0962                 1.0496                 1.0923
 Frc consts  --      6.4809                 7.4472                 8.1336
 IR Inten    --     47.0782                 2.9209                 2.7027

 - Thermochemistry -
 -------------------
 Temperature   298.150 Kelvin.  Pressure   1.00000 Atm.
 Atom     1 has atomic number  6 and mass  12.00000

 Molecular mass:   209.21435 amu.
 Principal axes and moments of inertia in atomic units:
                           1         2         3
     Eigenvalues --  2353.403384482.706495744.09634
           X            0.99993   0.01121   0.00272
           Y           -0.01123   0.99993   0.00405
           Z           -0.00267  -0.00408   0.99999
 This molecule is an asymmetric top.
 Rotational symmetry number  1.
 Warning -- assumption of classical behavior for rotation
           may cause significant error
 Rotational temperatures (Kelvin)      0.03680     0.01932     0.01508
 Rotational constants (GHZ):           0.76686     0.40260     0.31419
 Zero-point vibrational energy    1038270.3 (Joules/Mol)
                                  248.15255 (Kcal/Mol)
 Warning -- explicit consideration of  24 degrees of freedom as
           vibrations may cause significant error
 Vibrational temperatures:     38.36    58.75    78.19    96.30   144.27
          (Kelvin)            173.30   226.82   239.06   265.44   297.39
                              314.13   347.06   379.76   398.50   456.25
                              487.76   521.60   545.39   556.96   623.28
                              649.65   709.17   746.39   788.74   896.84
                              961.30   993.42  1068.53  1113.88  1155.54
                             1165.33  1196.66  1230.10  1255.57  1281.99
                             1298.15  1324.23  1341.67  1378.05  1388.06
                             1411.54  1444.10  1451.10  1466.07  1504.34
                             1536.20  1540.14  1567.97  1576.76  1602.12
                             1615.92  1630.12  1655.46  1683.07  1709.78
                             1728.17  1759.09  1778.77  1811.18  1826.55
                             1832.43  1868.69  1900.01  1908.69  1940.49
                             1967.49  1971.51  1976.70  1986.01  2003.84
                             2006.98  2019.07  2028.91  2032.21  2039.22
                             2059.86  2072.32  2076.39  2079.98  2092.37
                             2165.09  2169.47  2177.68  2178.33  2192.07
                             2194.60  2198.43  2202.61  2209.30  2222.78
                             2228.71  2452.93  2506.00  4252.32  4311.86
                             4331.68  4345.60  4356.50  4357.83  4370.33
                             4376.46  4378.85  4381.55  4385.43  4387.43
                             4396.77  4409.99  4412.77  4427.03  4436.90
                             4439.69  4450.16  4469.06  4472.63  4476.93
                             4482.60  4523.08  4557.64  4992.98  5114.91

 Zero-point correction=                           0.395456 (Hartree/Particle)
 Thermal correction to Energy=                    0.412267
 Thermal correction to Enthalpy=                  0.413211
 Thermal correction to Gibbs Free Energy=         0.350680
 Sum of electronic and zero-point Energies=           -604.152379
 Sum of electronic and thermal Energies=              -604.135569
 Sum of electronic and thermal Enthalpies=            -604.134625
 Sum of electronic and thermal Free Energies=         -604.197156

                     E (Thermal)             CV                S
                      KCal/Mol        Cal/Mol-Kelvin    Cal/Mol-Kelvin
 Total                  258.701             64.838            131.607
 Electronic               0.000              0.000              0.000
 Translational            0.889              2.981             41.918
 Rotational               0.889              2.981             32.472
 Vibrational            256.924             58.877             57.217
 Vibration     1          0.593              1.984              6.063
 Vibration     2          0.594              1.981              5.218
 Vibration     3          0.596              1.976              4.653
 Vibration     4          0.598              1.970              4.242
 Vibration     5          0.604              1.949              3.449
 Vibration     6          0.609              1.932              3.093
 Vibration     7          0.621              1.894              2.578
 Vibration     8          0.624              1.884              2.479
 Vibration     9          0.631              1.861              2.282
 Vibration    10          0.641              1.830              2.073
 Vibration    11          0.646              1.813              1.973
 Vibration    12          0.658              1.777              1.794
 Vibration    13          0.671              1.739              1.636
 Vibration    14          0.678              1.716              1.552
 Vibration    15          0.704              1.641              1.325
 Vibration    16          0.719              1.598              1.217
 Vibration    17          0.736              1.549              1.111
 Vibration    18          0.749              1.515              1.043
 Vibration    19          0.756              1.498              1.011
 Vibration    20          0.794              1.398              0.848
 Vibration    21          0.810              1.358              0.791
 Vibration    22          0.849              1.266              0.676
 Vibration    23          0.874              1.208              0.613
 Vibration    24          0.903              1.144              0.548

 Optimization completed.
    -- Stationary point found.
 Normal termination of Gaussian 16 at Thu Dec 10 16:21:30 2020.

 ----------------------------------------------------------------------
 # B3LYP/6-311++G(d,p) empiricaldispersion=gd3bj scf=xqc pop=npa geom=c
 heck
 ----------------------------------------------------------------------

 --------------------------------------
 CID_91396420_JID_5558_Energie_neutraal
 --------------------------------------
 Structure from the checkpoint file:  "JID_5558.chk"
 Charge =  0 Multiplicity = 1

 SCF Done:  E(RB3LYP) =  -604.720895781     A.U. after   14 cycles
 Normal termination of Gaussian 16 at Thu Dec 10 16:28:57 2020.

 ----------------------------------------------------------------------
 # B3LYP/6-311++G(d,p) empiricaldispersion=gd3bj scf=xqc pop=npa geom=c
 heck
 ----------------------------------------------------------------------

 ------------------------------------
 CID_91396420_JID_5558_Energie_kation
 ------------------------------------
 Structure from the checkpoint file:  "JID_5558.chk"
 Charge =  1 Multiplicity = 2

 SCF Done:  E(UB3LYP) =  -604.413278538     A.U. after   22 cycles
 Normal termination of Gaussian 16 at Thu Dec 10 16:50:09 2020.
 Gaussian 16:  ES64L-G16RevA.03 25-Dec-2016

 ----------------------------------------------------------------------
 # B3LYP/6-311++G(d,p) empiricaldispersion=gd3bj scf=xqc pop=npa geom=c
 heck
 ----------------------------------------------------------------------

 -----------------------------------
 CID_91396420_JID_5558_Energie_anion
 -----------------------------------
 Structure from the checkpoint file:  "JID_5558.chk"
 Charge = -1 Multiplicity = 2

                         Standard orientation:
 ---------------------------------------------------------------------
 Center     Atomic      Atomic             Coordinates (Angstroms)
 Number     Number       Type             X           Y           Z
 ---------------------------------------------------------------------
      1          6           0       -4.294948   -1.075624    0.249688
      2          6           0       -3.836205    0.193135   -0.474907
      3          6           0       -2.843636    1.052663    0.325011
      4          6           0       -1.560786    0.332496    0.779176
      5          6           0       -0.680658   -0.220447   -0.358525
      6          6           0        0.111616    0.862779   -1.168704
      7          6           0        0.285607    2.286718   -0.599180
      8          6           0        1.356786    2.481209    0.473105
      9          7           0        2.698292    2.316228   -0.097086
     10          6           0        0.092777   -1.496258    0.103776
     11          6           0        0.935732   -1.440536    1.396725
     12          6           0        2.342617   -0.839274    1.263487
     13          6           0        3.005219   -1.177215   -0.042881
     14          6           0        2.363912   -1.743721   -1.069405
     15          6           0        0.910430   -2.139460   -1.039452
     16          1           0       -3.468908   -1.780608    0.395460
     17          1           0       -5.073980   -1.595258   -0.319174
     18          1           0       -4.705200   -0.838405    1.239321
     19          1           0       -3.399863   -0.080182   -1.444531
     20          1           0       -4.712371    0.812342   -0.707925
     21          1           0       -2.589216    1.933746   -0.276567
     22          1           0       -3.355410    1.433335    1.220301
     23          1           0       -0.980176    1.010824    1.414917
     24          1           0       -1.850833   -0.501023    1.431749
     25          1           0       -1.377069   -0.646261   -1.092172
     26          1           0        1.095220    0.465343   -1.439172
     27          1           0       -0.408594    0.987651   -2.125916
     28          1           0        0.554755    2.943685   -1.435548
     29          1           0       -0.667705    2.657576   -0.210227
     30          1           0        1.288720    3.508015    0.853709
     31          1           0        1.144028    1.818303    1.331141
     32          1           0        3.403291    2.422969    0.630213
     33          1           0        2.809427    1.371777   -0.462369
     34          1           0       -0.720723   -2.198180    0.335180
     35          1           0        0.382654   -0.922269    2.187713
     36          1           0        1.049294   -2.478391    1.736828
     37          1           0        2.317669    0.248965    1.377983
     38          1           0        2.967430   -1.198221    2.093624
     39          1           0        4.064227   -0.938468   -0.137943
     40          1           0        2.911535   -1.968446   -1.983884
     41          1           0        0.857614   -3.235906   -0.953887
     42          1           0        0.445366   -1.905292   -2.006708
 ---------------------------------------------------------------------

 SCF Done:  E(UB3LYP) =  -604.708054117     A.U. after   31 cycles

 The electronic state is 2-A.
 Alpha  occ. eigenvalues --  -14.19613 -10.09512 -10.07212 -10.07149 -10.07111
 Alpha  occ. eigenvalues --  -10.06948 -10.06943 -10.06904 -10.06840 -10.06813
 Alpha  occ. eigenvalues --  -10.06730 -10.06478 -10.06374 -10.06360 -10.06156
 Alpha  occ. eigenvalues --   -0.78833  -0.74276  -0.71301  -0.68301  -0.65577
 Alpha  occ. eigenvalues --   -0.64539  -0.62863  -0.59550  -0.56062  -0.52656
 Alpha  occ. eigenvalues --   -0.52367  -0.48985  -0.47282  -0.43744  -0.40920
 Alpha  occ. eigenvalues --   -0.39997  -0.39226  -0.39014  -0.36783  -0.35789
 Alpha  occ. eigenvalues --   -0.35145  -0.33832  -0.33166  -0.31896  -0.31507
 Alpha  occ. eigenvalues --   -0.30427  -0.30203  -0.29782  -0.28304  -0.28214
 Alpha  occ. eigenvalues --   -0.27385  -0.27153  -0.26317  -0.25157  -0.24218
 Alpha  occ. eigenvalues --   -0.23958  -0.22887  -0.22783  -0.21860  -0.20017
 Alpha  occ. eigenvalues --   -0.19618  -0.19505  -0.15065  -0.14697   0.04146
 Alpha virt. eigenvalues --    0.06008   0.06592   0.07104   0.07838   0.08149
 Alpha virt. eigenvalues --    0.08428   0.09168   0.09397   0.09983   0.10417
 Alpha virt. eigenvalues --    0.10462   0.10818   0.11429   0.12034   0.12184

  Beta  occ. eigenvalues --  -14.19598 -10.09499 -10.07205 -10.07142 -10.07102
  Beta  occ. eigenvalues --  -10.06929 -10.06927 -10.06893 -10.06830 -10.06794
  Beta  occ. eigenvalues --  -10.06724 -10.06469 -10.06364 -10.06343 -10.06124
  Beta  occ. eigenvalues --   -0.78807  -0.74248  -0.71277  -0.68273  -0.65550
  Beta  occ. eigenvalues --   -0.64502  -0.62829  -0.59514  -0.56021  -0.52609
  Beta  occ. eigenvalues --   -0.52317  -0.48953  -0.47233  -0.43709  -0.40888
  Beta  occ. eigenvalues --   -0.39947  -0.39191  -0.38986  -0.36754  -0.35754
  Beta  occ. eigenvalues --   -0.35118  -0.33804  -0.33139  -0.31872  -0.31476
  Beta  occ. eigenvalues --   -0.30400  -0.30173  -0.29757  -0.28267  -0.28181
  Beta  occ. eigenvalues --   -0.27353  -0.27131  -0.26292  -0.25134  -0.24190
  Beta  occ. eigenvalues --   -0.23930  -0.22857  -0.22752  -0.21838  -0.19994
  Beta  occ. eigenvalues --   -0.19586  -0.19477  -0.15044  -0.14676
  Beta virt. eigenvalues --    0.06095   0.06798   0.07102   0.07498   0.08293
  Beta virt. eigenvalues --    0.08546   0.08819   0.09517   0.09573   0.10361
  Beta virt. eigenvalues --    0.10476   0.10787   0.11145   0.11674   0.12213

 Mulliken charges and spin densities:
               1          2
     1  C    0.934765  -1.580947
     2  C   -0.996101   0.789416
     3  C    0.685985  -1.102278
     4  C   -0.216225   0.113037
     5  C   -0.380612   0.242498
     6  C   -0.135865  -0.273062
     7  C   -0.549477   0.075773
     8  C    0.424373  -0.823386
     9  N   -0.412680   0.052594
    10  C    0.701353  -0.052474
    11  C   -0.477909   0.005222
    12  C    0.184173  -0.569459
    13  C   -0.163538  -0.134766
    14  C   -0.155826   0.031215
    15  C    0.286017  -0.964256
    16  H   -0.229162   0.383248
    17  H   -0.281836   0.415059
    18  H   -0.056640   0.188669
    19  H   -0.172467   0.312196
    20  H   -0.192673   0.352893
    21  H   -0.030826   0.131784
    22  H   -0.195394   0.358124
    23  H    0.180312  -0.053609
    24  H    0.106711   0.074782
    25  H    0.563716  -0.339470
    26  H    0.222361  -0.066650
    27  H   -0.039931   0.197065
    28  H    0.053886   0.132098
    29  H    0.261319  -0.167858
    30  H   -0.037006   0.216681
    31  H   -0.146761   0.262442
    32  H    0.039447   0.193827
    33  H    0.298011  -0.033459
    34  H    0.184693   0.050226
    35  H   -0.150215   0.302206
    36  H   -0.123258   0.298005
    37  H    0.316298  -0.172882
    38  H   -0.400678   0.588599
    39  H   -0.279915   0.455024
    40  H   -0.153010   0.329160
    41  H   -0.311357   0.479467
    42  H   -0.154059   0.303245
 Sum of Mulliken charges =  -1.00000   1.00000

 Dipole moment (field-independent basis, Debye):
    X=              0.1793    Y=              2.8181    Z=             -0.4384  Tot=              2.8576
 Quadrupole moment (field-independent basis, Debye-Ang):
   XX=           -181.4826   YY=           -150.8247   ZZ=           -135.9677
   XY=             -3.8469   XZ=             -2.3589   YZ=              1.5298

 Summary of Natural Population Analysis:

                                       Natural Population
                Natural  -----------------------------------------------
    Atom  No    Charge         Core      Valence    Rydberg      Total
 -----------------------------------------------------------------------
      C    1   -0.28589      0.99967     2.28180    0.00443     3.28589
      C    2   -0.19086      0.99964     2.18343    0.00779     3.19086
      C    3   -0.18647      0.99962     2.17846    0.00838     3.18647
      C    4   -0.19448      0.99961     2.18611    0.00876     3.19448
      C    5   -0.10818      0.99956     2.09682    0.01180     3.10818
      C    6   -0.19646      0.99960     2.18836    0.00851     3.19646
      C    7   -0.19492      0.99962     2.18741    0.00789     3.19492
      C    8   -0.09029      0.99963     2.08071    0.00996     3.09029
      N    9   -0.42549      0.99977     2.91610    0.00962     3.92549
      C   10   -0.10129      0.99957     2.08946    0.01226     3.10129
      C   11   -0.18918      0.99961     2.18045    0.00913     3.18918
      C   12   -0.21286      0.99960     2.20369    0.00958     3.21286
      C   13   -0.10227      0.99952     2.09199    0.01077     3.10227
      C   14   -0.09301      0.99951     2.08340    0.01009     3.09301
      C   15   -0.20950      0.99959     2.19996    0.00995     3.20950
      H   16    0.09810      0.00000     0.40051    0.00140     0.40190
      H   17    0.09884      0.00000     0.40002    0.00114     0.40116
      H   18    0.09447      0.00000     0.40430    0.00122     0.40553
      H   19    0.09341      0.00000     0.40533    0.00126     0.40659
      H   20    0.09464      0.00000     0.40432    0.00104     0.40536
      H   21    0.09411      0.00000     0.40461    0.00128     0.40589
      H   22    0.09368      0.00000     0.40539    0.00094     0.40632
      H   23    0.09794      0.00000     0.40061    0.00145     0.40206
      H   24    0.09956      0.00000     0.39890    0.00154     0.40044
      H   25    0.09602      0.00000     0.40161    0.00236     0.40398
      H   26    0.10283      0.00000     0.39541    0.00175     0.39717
      H   27    0.09746      0.00000     0.40141    0.00113     0.40254
      H   28    0.09976      0.00000     0.39908    0.00117     0.40024
      H   29    0.09722      0.00000     0.40151    0.00127     0.40278
      H   30    0.08833      0.00000     0.41068    0.00099     0.41167
      H   31    0.07675      0.00000     0.42120    0.00205     0.42325
      H   32    0.17390      0.00000     0.32446    0.00164     0.32610
      H   33    0.17785      0.00000     0.31964    0.00252     0.32215
      H   34    0.09873      0.00000     0.39901    0.00226     0.40127
      H   35    0.10101      0.00000     0.39774    0.00125     0.39899
      H   36    0.09841      0.00000     0.40021    0.00138     0.40159
      H   37    0.10137      0.00000     0.39643    0.00220     0.39863
      H   38    0.10321      0.00000     0.39534    0.00145     0.39679
      H   39    0.09703      0.00000     0.40181    0.00116     0.40297
      H   40    0.09632      0.00000     0.40279    0.00090     0.40368
      H   41    0.10722      0.00000     0.39152    0.00126     0.39278
      H   42    0.10298      0.00000     0.39573    0.00128     0.39702
 =======================================================================
   * Total *    0.00000     14.99411    43.82768    0.17821    59.00000

 Normal termination of Gaussian 16 at Thu Dec 10 17:30:28 2020.
