 Gaussian 16, Revision A.03,

 -----------------------------------------------------------
 # opt freq B3LYP/6-31G(d) empiricaldispersion=gd3bj scf=xqc
 -----------------------------------------------------------

 -------------------------------
 CID_131129156_JID_3719_neutraal
 -------------------------------
 Symbolic Z-matrix:
 Charge =  0 Multiplicity = 1

 SCF Done:  E(RB3LYP) =  -561.801302600     A.U. after   13 cycles
 SCF Done:  E(RB3LYP) =  -561.811517404     A.U. after   11 cycles
 SCF Done:  E(RB3LYP) =  -561.813529416     A.U. after   11 cycles
 SCF Done:  E(RB3LYP) =  -561.813250110     A.U. after   11 cycles
 SCF Done:  E(RB3LYP) =  -561.814472948     A.U. after   10 cycles
 SCF Done:  E(RB3LYP) =  -561.814667477     A.U. after   10 cycles
 SCF Done:  E(RB3LYP) =  -561.814844784     A.U. after   10 cycles
 SCF Done:  E(RB3LYP) =  -561.814925452     A.U. after    9 cycles
 SCF Done:  E(RB3LYP) =  -561.815069546     A.U. after   10 cycles
 SCF Done:  E(RB3LYP) =  -561.815128551     A.U. after   10 cycles
 SCF Done:  E(RB3LYP) =  -561.815330713     A.U. after   10 cycles
 SCF Done:  E(RB3LYP) =  -561.815482869     A.U. after   10 cycles
 SCF Done:  E(RB3LYP) =  -561.815481512     A.U. after    8 cycles
 SCF Done:  E(RB3LYP) =  -561.815486555     A.U. after    9 cycles
 SCF Done:  E(RB3LYP) =  -561.815487922     A.U. after    8 cycles
 SCF Done:  E(RB3LYP) =  -561.815488227     A.U. after    7 cycles
 Optimization completed.
    -- Stationary point found.
 Normal termination of Gaussian 16 at Sun Dec 13 20:13:08 2020.

 --------------------------------------------------------------------
 #N Geom=AllCheck Guess=TCheck SCRF=Check GenChk RB3LYP/6-31G(d) Freq
 --------------------------------------------------------------------

 Structure from the checkpoint file:  "JID_3719.chk"
 -------------------------------
 CID_131129156_JID_3719_neutraal
 -------------------------------
 Charge =  0 Multiplicity = 1

 SCF Done:  E(RB3LYP) =  -561.815488227     A.U. after    1 cycles

  Exact polarizability: 145.816   0.739 114.398   0.723  -1.338 104.776
 Approx polarizability: 169.311   0.848 165.949   1.158   2.369 163.558

                      1                      2                      3
                      A                      A                      A
 Frequencies --     55.6800                63.2085                84.5463
 Red. masses --      2.7799                 2.8773                 3.2057
 Frc consts  --      0.0051                 0.0068                 0.0135
 IR Inten    --      0.1419                 0.0177                 0.4255

                      4                      5                      6
                      A                      A                      A
 Frequencies --     87.6256               150.6937               187.8480
 Red. masses --      2.2155                 2.3892                 2.8411
 Frc consts  --      0.0100                 0.0320                 0.0591
 IR Inten    --      0.3424                 0.6637                 0.6635

                      7                      8                      9
                      A                      A                      A
 Frequencies --    193.7723               216.4486               237.2518
 Red. masses --      2.1577                 1.1131                 1.3272
 Frc consts  --      0.0477                 0.0307                 0.0440
 IR Inten    --      0.4320                 0.0135                 0.7190

                     10                     11                     12
                      A                      A                      A
 Frequencies --    283.3935               302.7797               336.0993
 Red. masses --      2.7649                 2.7705                 2.3756
 Frc consts  --      0.1308                 0.1496                 0.1581
 IR Inten    --      0.2693                 0.5445                 0.3784

                     13                     14                     15
                      A                      A                      A
 Frequencies --    351.4886               382.2063               411.1938
 Red. masses --      2.9002                 3.0331                 2.2506
 Frc consts  --      0.2111                 0.2611                 0.2242
 IR Inten    --      2.3616                 8.8647                 1.5480

                     16                     17                     18
                      A                      A                      A
 Frequencies --    433.7705               454.7325               484.2355
 Red. masses --      1.9806                 2.2908                 2.7154
 Frc consts  --      0.2196                 0.2791                 0.3751
 IR Inten    --      3.2669                 9.1682                 1.1166

                     19                     20                     21
                      A                      A                      A
 Frequencies --    593.5534               644.4058               652.7360
 Red. masses --      1.1323                 3.2077                 2.0999
 Frc consts  --      0.2350                 0.7848                 0.5271
 IR Inten    --     73.2247                 7.1268                 4.9599

                     22                     23                     24
                      A                      A                      A
 Frequencies --    711.0826               763.7838               790.0971
 Red. masses --      3.7736                 2.7909                 1.6692
 Frc consts  --      1.1242                 0.9593                 0.6139
 IR Inten    --      5.3891                 1.9998                 0.9490

                     25                     26                     27
                      A                      A                      A
 Frequencies --    807.2284               844.1190               890.3883
 Red. masses --      2.4050                 1.8371                 2.3276
 Frc consts  --      0.9233                 0.7712                 1.0872
 IR Inten    --      8.9392                 5.5350                 5.2820

                     28                     29                     30
                      A                      A                      A
 Frequencies --    901.2258               912.4538               915.9227
 Red. masses --      1.4981                 2.3304                 1.5288
 Frc consts  --      0.7169                 1.1431                 0.7556
 IR Inten    --      1.4020                 1.6314                 2.2415

                     31                     32                     33
                      A                      A                      A
 Frequencies --    938.9263               956.6691               982.0267
 Red. masses --      1.6639                 1.8846                 1.7021
 Frc consts  --      0.8643                 1.0162                 0.9671
 IR Inten    --      9.9373                 7.5962                 4.9725

                     34                     35                     36
                      A                      A                      A
 Frequencies --    987.9892              1005.0530              1025.3005
 Red. masses --      2.1943                 2.3885                 1.9283
 Frc consts  --      1.2620                 1.4215                 1.1943
 IR Inten    --      4.1626                 0.6016                14.5761

                     37                     38                     39
                      A                      A                      A
 Frequencies --   1056.3792              1078.2289              1097.8913
 Red. masses --      2.1340                 1.7594                 1.8880
 Frc consts  --      1.4031                 1.2052                 1.3408
 IR Inten    --     28.4274                10.5796                15.4386

                     40                     41                     42
                      A                      A                      A
 Frequencies --   1101.6572              1119.1418              1130.2999
 Red. masses --      1.7347                 2.2942                 1.3424
 Frc consts  --      1.2404                 1.6930                 1.0105
 IR Inten    --      2.6681                 2.4777                 1.3953

                     43                     44                     45
                      A                      A                      A
 Frequencies --   1153.6819              1167.7352              1174.7786
 Red. masses --      1.4524                 1.8441                 1.9716
 Frc consts  --      1.1389                 1.4816                 1.6032
 IR Inten    --      0.9855                 5.4823                 9.7525

                     46                     47                     48
                      A                      A                      A
 Frequencies --   1216.8723              1229.3671              1232.6399
 Red. masses --      2.3417                 1.8671                 2.4011
 Frc consts  --      2.0430                 1.6626                 2.1495
 IR Inten    --     13.7778                20.9201                19.8784

                     49                     50                     51
                      A                      A                      A
 Frequencies --   1236.6234              1243.8392              1269.4474
 Red. masses --      1.6372                 1.5910                 1.2769
 Frc consts  --      1.4751                 1.4502                 1.2124
 IR Inten    --      0.8612                 0.5417                 4.7803

                     52                     53                     54
                      A                      A                      A
 Frequencies --   1291.3511              1300.9464              1306.9182
 Red. masses --      1.3340                 1.3058                 1.3474
 Frc consts  --      1.3106                 1.3021                 1.3559
 IR Inten    --      3.8340                 3.0538                 8.8506

                     55                     56                     57
                      A                      A                      A
 Frequencies --   1324.0832              1328.1229              1342.8064
 Red. masses --      1.3448                 1.4106                 1.3721
 Frc consts  --      1.3891                 1.4660                 1.4577
 IR Inten    --     32.3995                27.3764                18.9850

                     58                     59                     60
                      A                      A                      A
 Frequencies --   1348.0872              1368.0769              1375.7478
 Red. masses --      1.4918                 1.4506                 1.3856
 Frc consts  --      1.5974                 1.5996                 1.5451
 IR Inten    --      8.7348                21.4790                 1.3715

                     61                     62                     63
                      A                      A                      A
 Frequencies --   1396.4863              1413.3324              1441.4689
 Red. masses --      1.4443                 1.5782                 1.2426
 Frc consts  --      1.6596                 1.8574                 1.5212
 IR Inten    --      8.8803                18.0206                 7.6683

                     64                     65                     66
                      A                      A                      A
 Frequencies --   1443.4778              1457.4832              1505.9099
 Red. masses --      1.3064                 1.6255                 1.0873
 Frc consts  --      1.6038                 2.0344                 1.4527
 IR Inten    --      3.4455                68.6699                 5.3591

                     67                     68                     69
                      A                      A                      A
 Frequencies --   1510.0613              1515.2140              1525.8711
 Red. masses --      1.0800                 1.0852                 1.0519
 Frc consts  --      1.4509                 1.4679                 1.4430
 IR Inten    --      4.6036                 8.8323                 0.9251

                     70                     71                     72
                      A                      A                      A
 Frequencies --   1526.5844              1529.9631              1532.9688
 Red. masses --      1.0468                 1.0611                 1.0727
 Frc consts  --      1.4374                 1.4634                 1.4852
 IR Inten    --      4.5708                 2.6889                 3.8713

                     73                     74                     75
                      A                      A                      A
 Frequencies --   1538.0250              1543.0873              1558.2633
 Red. masses --      1.0558                 1.0952                 1.1163
 Frc consts  --      1.4715                 1.5365                 1.5971
 IR Inten    --      2.5403                 3.4264                12.7438

                     76                     77                     78
                      A                      A                      A
 Frequencies --   2980.5679              2985.1002              2992.2936
 Red. masses --      1.0668                 1.0693                 1.0694
 Frc consts  --      5.5838                 5.6138                 5.6415
 IR Inten    --     57.5112                11.1159                75.4401

                     79                     80                     81
                      A                      A                      A
 Frequencies --   3042.2589              3050.0107              3055.5239
 Red. masses --      1.0356                 1.0387                 1.0667
 Frc consts  --      5.6472                 5.6928                 5.8674
 IR Inten    --     33.8951                19.3015                14.7730

                     82                     83                     84
                      A                      A                      A
 Frequencies --   3057.1623              3065.6124              3073.0291
 Red. masses --      1.0805                 1.0651                 1.0870
 Frc consts  --      5.9497                 5.8975                 6.0482
 IR Inten    --     39.1233                51.3297                 2.5397

                     85                     86                     87
                      A                      A                      A
 Frequencies --   3074.8658              3076.3751              3085.6645
 Red. masses --      1.0917                 1.0674                 1.0946
 Frc consts  --      6.0817                 5.9520                 6.1406
 IR Inten    --     38.2711                22.5720                48.8087

                     88                     89                     90
                      A                      A                      A
 Frequencies --   3093.4950              3100.4770              3108.5268
 Red. masses --      1.0958                 1.1002                 1.1021
 Frc consts  --      6.1785                 6.2314                 6.2747
 IR Inten    --     25.1879                12.3973                23.7831

                     91                     92                     93
                      A                      A                      A
 Frequencies --   3110.4060              3112.9518              3120.4041
 Red. masses --      1.1008                 1.1009                 1.1016
 Frc consts  --      6.2745                 6.2856                 6.3195
 IR Inten    --     42.8304                70.6900                 3.5641

                     94                     95                     96
                      A                      A                      A
 Frequencies --   3124.0716              3129.7111              3585.0028
 Red. masses --      1.0998                 1.1018                 1.0645
 Frc consts  --      6.3242                 6.3587                 8.0605
 IR Inten    --     48.4778                51.5207               130.6214

 - Thermochemistry -
 -------------------
 Temperature   298.150 Kelvin.  Pressure   1.00000 Atm.
 Atom     1 has atomic number  6 and mass  12.00000

 Molecular mass:   183.16231 amu.
 Principal axes and moments of inertia in atomic units:
                           1         2         3
     Eigenvalues --   994.669194304.314474682.77826
           X            1.00000   0.00122   0.00070
           Y           -0.00121   0.99982  -0.01883
           Z           -0.00072   0.01883   0.99982
 This molecule is an asymmetric top.
 Rotational symmetry number  1.
 Warning -- assumption of classical behavior for rotation
           may cause significant error
 Rotational temperatures (Kelvin)      0.08708     0.02012     0.01850
 Rotational constants (GHZ):           1.81441     0.41929     0.38540
 Zero-point vibrational energy     819420.2 (Joules/Mol)
                                  195.84614 (Kcal/Mol)
 Warning -- explicit consideration of  19 degrees of freedom as
           vibrations may cause significant error
 Vibrational temperatures:     80.11    90.94   121.64   126.07   216.81
          (Kelvin)            270.27   278.80   311.42   341.35   407.74
                              435.63   483.57   505.71   549.91   591.62
                              624.10   654.26   696.71   853.99   927.16
                              939.14  1023.09  1098.91  1136.77  1161.42
                             1214.50  1281.07  1296.66  1312.82  1317.81
                             1350.91  1376.43  1412.92  1421.50  1446.05
                             1475.18  1519.89  1551.33  1579.62  1585.04
                             1610.20  1626.25  1659.89  1680.11  1690.24
                             1750.81  1768.79  1773.49  1779.23  1789.61
                             1826.45  1857.97  1871.77  1880.36  1905.06
                             1910.87  1932.00  1939.60  1968.36  1979.39
                             2009.23  2033.47  2073.95  2076.84  2096.99
                             2166.67  2172.64  2180.05  2195.39  2196.41
                             2201.28  2205.60  2212.87  2220.16  2241.99
                             4288.37  4294.89  4305.24  4377.13  4388.29
                             4396.22  4398.57  4410.73  4421.40  4424.05
                             4426.22  4439.58  4450.85  4460.89  4472.48
                             4475.18  4478.84  4489.57  4494.84  4502.96
                             5158.02

 Zero-point correction=                           0.312101 (Hartree/Particle)
 Thermal correction to Energy=                    0.325681
 Thermal correction to Enthalpy=                  0.326625
 Thermal correction to Gibbs Free Energy=         0.272237
 Sum of electronic and zero-point Energies=           -561.503388
 Sum of electronic and thermal Energies=              -561.489807
 Sum of electronic and thermal Enthalpies=            -561.488863
 Sum of electronic and thermal Free Energies=         -561.543251

                     E (Thermal)             CV                S
                      KCal/Mol        Cal/Mol-Kelvin    Cal/Mol-Kelvin
 Total                  204.368             53.078            114.469
 Electronic               0.000              0.000              0.000
 Translational            0.889              2.981             41.522
 Rotational               0.889              2.981             31.373
 Vibrational            202.591             47.116             41.575
 Vibration     1          0.596              1.975              4.605
 Vibration     2          0.597              1.972              4.354
 Vibration     3          0.601              1.960              3.782
 Vibration     4          0.601              1.958              3.712
 Vibration     5          0.618              1.902              2.663
 Vibration     6          0.633              1.857              2.249
 Vibration     7          0.635              1.849              2.191
 Vibration     8          0.645              1.816              1.989
 Vibration     9          0.656              1.784              1.823
 Vibration    10          0.682              1.704              1.513
 Vibration    11          0.694              1.668              1.401
 Vibration    12          0.717              1.603              1.231
 Vibration    13          0.728              1.572              1.160
 Vibration    14          0.752              1.508              1.030
 Vibration    15          0.775              1.446              0.922
 Vibration    16          0.795              1.397              0.846
 Vibration    17          0.813              1.350              0.782
 Vibration    18          0.840              1.285              0.699
 Vibration    19          0.951              1.046              0.461

 Optimization completed.
    -- Stationary point found.
 Normal termination of Gaussian 16 at Sun Dec 13 20:23:37 2020.

 ----------------------------------------------------------------------
 # B3LYP/6-311++G(d,p) empiricaldispersion=gd3bj scf=xqc pop=npa geom=c
 heck
 ----------------------------------------------------------------------

 ---------------------------------------
 CID_131129156_JID_3719_Energie_neutraal
 ---------------------------------------
 Structure from the checkpoint file:  "JID_3719.chk"
 Charge =  0 Multiplicity = 1

 SCF Done:  E(RB3LYP) =  -561.978012733     A.U. after   13 cycles
 Normal termination of Gaussian 16 at Sun Dec 13 20:28:21 2020.

 ----------------------------------------------------------------------
 # B3LYP/6-311++G(d,p) empiricaldispersion=gd3bj scf=xqc pop=npa geom=c
 heck
 ----------------------------------------------------------------------

 -------------------------------------
 CID_131129156_JID_3719_Energie_kation
 -------------------------------------
 Structure from the checkpoint file:  "JID_3719.chk"
 Charge =  1 Multiplicity = 2

 SCF Done:  E(UB3LYP) =  -561.671501093     A.U. after   21 cycles
 Normal termination of Gaussian 16 at Sun Dec 13 20:39:08 2020.
 Gaussian 16:  ES64L-G16RevA.03 25-Dec-2016

 ----------------------------------------------------------------------
 # B3LYP/6-311++G(d,p) empiricaldispersion=gd3bj scf=xqc pop=npa geom=c
 heck
 ----------------------------------------------------------------------

 ------------------------------------
 CID_131129156_JID_3719_Energie_anion
 ------------------------------------
 Structure from the checkpoint file:  "JID_3719.chk"
 Charge = -1 Multiplicity = 2

                         Standard orientation:
 ---------------------------------------------------------------------
 Center     Atomic      Atomic             Coordinates (Angstroms)
 Number     Number       Type             X           Y           Z
 ---------------------------------------------------------------------
      1          6           0        1.344696    1.998142    0.593075
      2          6           0        1.514429    0.893252   -0.457549
      3          6           0        2.993747    0.705647   -0.847305
      4          6           0        3.588439   -0.165733    0.285994
      5          6           0        2.382678   -0.940490    0.883439
      6          6           0        1.156354   -0.534435    0.044974
      7          6           0       -0.170438   -0.687421    0.802212
      8          7           0       -1.294644   -0.576521   -0.117608
      9          6           0       -2.605514   -1.129235    0.285243
     10          6           0       -3.297757    0.040485   -0.457740
     11          6           0       -1.919917    0.740820   -0.377047
     12          6           0       -4.499711    0.710109    0.184888
     13          8           0        1.101252   -1.417299   -1.079877
     14          1           0        0.296947    2.150582    0.869855
     15          1           0        1.724907    2.950144    0.205237
     16          1           0        1.899737    1.774540    1.511657
     17          1           0        0.902769    1.135682   -1.334919
     18          1           0        3.042210    0.161595   -1.794323
     19          1           0        3.521415    1.657438   -0.974501
     20          1           0        4.061553    0.459462    1.051028
     21          1           0        4.361600   -0.840891   -0.091880
     22          1           0        2.224953   -0.674696    1.935455
     23          1           0        2.501878   -2.025804    0.831847
     24          1           0       -0.196466   -1.700690    1.220866
     25          1           0       -0.246300    0.021096    1.644309
     26          1           0       -2.794911   -2.154881   -0.051219
     27          1           0       -2.776459   -1.071321    1.373508
     28          1           0       -3.519134   -0.244942   -1.491480
     29          1           0       -1.862061    1.414013    0.494792
     30          1           0       -1.545297    1.270699   -1.259164
     31          1           0       -4.787522    1.616154   -0.361479
     32          1           0       -5.367072    0.039442    0.197132
     33          1           0       -4.283088    0.997568    1.220644
     34          1           0        0.170807   -1.347993   -1.376186
 ---------------------------------------------------------------------

 SCF Done:  E(UB3LYP) =  -561.962932765     A.U. after   31 cycles

 The electronic state is 2-A.
 Alpha  occ. eigenvalues --  -19.00863 -14.21175 -10.12244 -10.09519 -10.09505
 Alpha  occ. eigenvalues --  -10.09304 -10.07732 -10.07146 -10.07065 -10.06763
 Alpha  occ. eigenvalues --  -10.06414 -10.06047 -10.05701  -0.91984  -0.84671
 Alpha  occ. eigenvalues --   -0.73824  -0.68848  -0.64500  -0.62998  -0.58980
 Alpha  occ. eigenvalues --   -0.58027  -0.56039  -0.51082  -0.47127  -0.45387
 Alpha  occ. eigenvalues --   -0.44681  -0.40448  -0.40197  -0.38642  -0.37397
 Alpha  occ. eigenvalues --   -0.36693  -0.34857  -0.32885  -0.31726  -0.30415
 Alpha  occ. eigenvalues --   -0.30037  -0.29880  -0.29399  -0.27987  -0.27042
 Alpha  occ. eigenvalues --   -0.25641  -0.24793  -0.24501  -0.23858  -0.23537
 Alpha  occ. eigenvalues --   -0.22868  -0.21845  -0.21357  -0.20609  -0.16680
 Alpha  occ. eigenvalues --   -0.13486   0.04483
 Alpha virt. eigenvalues --    0.06321   0.07438   0.07667   0.08396   0.08714
 Alpha virt. eigenvalues --    0.08776   0.10035   0.10140   0.10615   0.10960
 Alpha virt. eigenvalues --    0.11425   0.11784   0.12258   0.13044   0.13360

  Beta  occ. eigenvalues --  -19.00860 -14.21164 -10.12243 -10.09509 -10.09486
  Beta  occ. eigenvalues --  -10.09282 -10.07719 -10.07139 -10.07056 -10.06753
  Beta  occ. eigenvalues --  -10.06408 -10.06020 -10.05653  -0.91978  -0.84644
  Beta  occ. eigenvalues --   -0.73811  -0.68822  -0.64474  -0.62962  -0.58940
  Beta  occ. eigenvalues --   -0.57972  -0.55996  -0.51023  -0.47099  -0.45309
  Beta  occ. eigenvalues --   -0.44652  -0.40415  -0.40166  -0.38610  -0.37372
  Beta  occ. eigenvalues --   -0.36659  -0.34835  -0.32858  -0.31696  -0.30382
  Beta  occ. eigenvalues --   -0.30006  -0.29841  -0.29357  -0.27967  -0.27017
  Beta  occ. eigenvalues --   -0.25601  -0.24750  -0.24480  -0.23841  -0.23511
  Beta  occ. eigenvalues --   -0.22847  -0.21824  -0.21317  -0.20588  -0.16667
  Beta  occ. eigenvalues --   -0.13432
  Beta virt. eigenvalues --    0.06553   0.07256   0.07935   0.08114   0.08794
  Beta virt. eigenvalues --    0.09191   0.09311   0.10390   0.10446   0.11081
  Beta virt. eigenvalues --    0.11362   0.11719   0.12187   0.12591   0.13412

 Mulliken charges and spin densities:
               1          2
     1  C    0.813797  -1.600069
     2  C   -0.242585   1.041438
     3  C   -0.386029  -0.141362
     4  C   -0.089035  -0.324247
     5  C   -0.226537  -0.214105
     6  C   -0.265811   0.089431
     7  C   -0.183553  -0.398959
     8  N   -0.177134   0.180729
     9  C    1.380366  -1.976820
    10  C   -2.701591   3.253412
    11  C    1.259329  -1.743995
    12  C    1.892097  -2.508778
    13  O   -0.153082   0.002918
    14  H   -0.242369   0.359249
    15  H   -0.171112   0.310777
    16  H   -0.164570   0.344073
    17  H    0.011367   0.224218
    18  H    0.128789   0.029031
    19  H   -0.088144   0.231868
    20  H    0.022259   0.115738
    21  H    0.080813   0.061102
    22  H   -0.158816   0.310317
    23  H    0.187285  -0.027352
    24  H    0.121112   0.067141
    25  H    0.080906   0.101617
    26  H   -0.066312   0.230821
    27  H   -0.228706   0.352640
    28  H   -0.425145   0.611581
    29  H    0.093028   0.018922
    30  H   -0.061061   0.228998
    31  H   -0.394965   0.538341
    32  H   -0.489766   0.636057
    33  H   -0.395761   0.534247
    34  H    0.240939   0.061019
 Sum of Mulliken charges =  -1.00000   1.00000

 Dipole moment (field-independent basis, Debye):
    X=              6.7774    Y=             -2.6074    Z=             -0.4700  Tot=              7.2769
 Quadrupole moment (field-independent basis, Debye-Ang):
   XX=           -174.5477   YY=           -125.4106   ZZ=           -119.0320
   XY=              2.1272   XZ=             -0.9122   YZ=             -3.2058

 Summary of Natural Population Analysis:

                                       Natural Population
                Natural  -----------------------------------------------
    Atom  No    Charge         Core      Valence    Rydberg      Total
 -----------------------------------------------------------------------
      C    1   -0.28959      0.99964     2.28341    0.00653     3.28959
      C    2   -0.12223      0.99955     2.11062    0.01206     3.12223
      C    3   -0.19080      0.99962     2.18272    0.00846     3.19080
      C    4   -0.19318      0.99965     2.18641    0.00712     3.19318
      C    5   -0.19926      0.99958     2.19087    0.00881     3.19926
      C    6    0.13173      0.99949     1.85238    0.01640     2.86827
      C    7   -0.09318      0.99955     2.08182    0.01181     3.09318
      N    8   -0.29565      0.99972     2.78266    0.01328     3.79565
      C    9   -0.06998      0.99963     2.05987    0.01049     3.06998
      C   10   -0.11676      0.99960     2.10601    0.01115     3.11676
      C   11   -0.07369      0.99962     2.06301    0.01106     3.07369
      C   12   -0.28622      0.99965     2.28092    0.00566     3.28622
      O   13   -0.38910      0.99989     3.38292    0.00629     4.38910
      H   14    0.10216      0.00000     0.39661    0.00123     0.39784
      H   15    0.10055      0.00000     0.39841    0.00104     0.39945
      H   16    0.09706      0.00000     0.40156    0.00138     0.40294
      H   17    0.10221      0.00000     0.39599    0.00179     0.39779
      H   18    0.10359      0.00000     0.39520    0.00121     0.39641
      H   19    0.09683      0.00000     0.40228    0.00089     0.40317
      H   20    0.09525      0.00000     0.40348    0.00127     0.40475
      H   21    0.09704      0.00000     0.40196    0.00100     0.40296
      H   22    0.10033      0.00000     0.39865    0.00102     0.39967
      H   23    0.10623      0.00000     0.39269    0.00108     0.39377
      H   24    0.09932      0.00000     0.39940    0.00129     0.40068
      H   25    0.09216      0.00000     0.40632    0.00152     0.40784
      H   26    0.09257      0.00000     0.40600    0.00142     0.40743
      H   27    0.08405      0.00000     0.41460    0.00135     0.41595
      H   28    0.09887      0.00000     0.39967    0.00146     0.40113
      H   29    0.08483      0.00000     0.41342    0.00175     0.41517
      H   30    0.09410      0.00000     0.40411    0.00179     0.40590
      H   31    0.10244      0.00000     0.39582    0.00174     0.39756
      H   32    0.10194      0.00000     0.39613    0.00192     0.39806
      H   33    0.09827      0.00000     0.39991    0.00182     0.40173
      H   34    0.23813      0.00000     0.25865    0.00323     0.26187
 =======================================================================
   * Total *    0.00000     12.99519    37.84449    0.16033    51.00000

 Normal termination of Gaussian 16 at Sun Dec 13 20:54:42 2020.
