 Gaussian 16, Revision A.03,

 -----------------------------------------------------------
 # opt freq B3LYP/6-31G(d) empiricaldispersion=gd3bj scf=xqc
 -----------------------------------------------------------

 ------------------------------
 CID_81754073_JID_5422_neutraal
 ------------------------------
 Symbolic Z-matrix:
 Charge =  0 Multiplicity = 1

 SCF Done:  E(RB3LYP) =  -634.214646458     A.U. after   13 cycles
 SCF Done:  E(RB3LYP) =  -634.220408508     A.U. after   12 cycles
 SCF Done:  E(RB3LYP) =  -634.219431674     A.U. after   12 cycles
 SCF Done:  E(RB3LYP) =  -634.220517066     A.U. after   12 cycles
 SCF Done:  E(RB3LYP) =  -634.221568718     A.U. after   11 cycles
 SCF Done:  E(RB3LYP) =  -634.221586623     A.U. after   11 cycles
 SCF Done:  E(RB3LYP) =  -634.221602784     A.U. after   11 cycles
 SCF Done:  E(RB3LYP) =  -634.221655456     A.U. after   10 cycles
 SCF Done:  E(RB3LYP) =  -634.221663400     A.U. after    9 cycles
 SCF Done:  E(RB3LYP) =  -634.221664488     A.U. after    8 cycles
 SCF Done:  E(RB3LYP) =  -634.221664707     A.U. after    8 cycles
 SCF Done:  E(RB3LYP) =  -634.221664818     A.U. after    8 cycles
 SCF Done:  E(RB3LYP) =  -634.221664852     A.U. after    7 cycles
 Optimization completed.
    -- Stationary point found.
 Normal termination of Gaussian 16 at Thu Dec 10 15:59:54 2020.

 --------------------------------------------------------------------
 #N Geom=AllCheck Guess=TCheck SCRF=Check GenChk RB3LYP/6-31G(d) Freq
 --------------------------------------------------------------------

 Structure from the checkpoint file:  "JID_5422.chk"
 ------------------------------
 CID_81754073_JID_5422_neutraal
 ------------------------------
 Charge =  0 Multiplicity = 1

 SCF Done:  E(RB3LYP) =  -634.221664852     A.U. after    1 cycles

  Exact polarizability: 157.487  -1.940 149.064 -17.094  -0.146 117.745
 Approx polarizability: 217.820  -3.401 232.688 -38.579  -1.756 177.962

                      1                      2                      3
                      A                      A                      A
 Frequencies --     25.7834                72.2307                84.8609
 Red. masses --      3.4821                 3.9137                 3.2799
 Frc consts  --      0.0014                 0.0120                 0.0139
 IR Inten    --      0.2003                 0.3835                 0.2742

                      4                      5                      6
                      A                      A                      A
 Frequencies --     92.4948               142.0312               153.1823
 Red. masses --      3.0253                 1.3843                 2.9047
 Frc consts  --      0.0152                 0.0165                 0.0402
 IR Inten    --      4.1646                 0.1311                 0.6807

                      7                      8                      9
                      A                      A                      A
 Frequencies --    170.3348               177.4425               195.5126
 Red. masses --      2.2691                 2.6728                 2.0830
 Frc consts  --      0.0388                 0.0496                 0.0469
 IR Inten    --      0.2376                 1.9283                 0.9597

                     10                     11                     12
                      A                      A                      A
 Frequencies --    206.3473               224.8676               237.2287
 Red. masses --      2.1622                 1.1962                 1.1132
 Frc consts  --      0.0542                 0.0356                 0.0369
 IR Inten    --      1.8079                 1.6557                 0.2491

                     13                     14                     15
                      A                      A                      A
 Frequencies --    258.1260               270.4494               294.0517
 Red. masses --      1.8566                 2.7848                 2.0683
 Frc consts  --      0.0729                 0.1200                 0.1054
 IR Inten    --     21.8785                 2.4598                 9.5065

                     16                     17                     18
                      A                      A                      A
 Frequencies --    306.7952               317.2840               349.3811
 Red. masses --      1.8485                 2.1594                 3.1072
 Frc consts  --      0.1025                 0.1281                 0.2235
 IR Inten    --     25.3020                 0.4661                 1.1050

                     19                     20                     21
                      A                      A                      A
 Frequencies --    412.9077               446.0468               494.5495
 Red. masses --      3.3199                 3.5714                 3.2203
 Frc consts  --      0.3335                 0.4187                 0.4641
 IR Inten    --      2.5033                 3.2741                 8.2543

                     22                     23                     24
                      A                      A                      A
 Frequencies --    516.4882               544.1271               588.2908
 Red. masses --      3.8533                 3.6796                 3.4619
 Frc consts  --      0.6056                 0.6419                 0.7059
 IR Inten    --      7.5734                 4.2875                 8.0561

                     25                     26                     27
                      A                      A                      A
 Frequencies --    612.6041               645.2284               729.2438
 Red. masses --      4.6734                 3.2922                 2.6047
 Frc consts  --      1.0333                 0.8076                 0.8161
 IR Inten    --      7.7905                 0.9832                 2.1083

                     28                     29                     30
                      A                      A                      A
 Frequencies --    772.0739               781.1888               806.0663
 Red. masses --      2.5102                 2.6969                 1.3998
 Frc consts  --      0.8816                 0.9697                 0.5359
 IR Inten    --      6.3666                 7.2586                 5.6227

                     31                     32                     33
                      A                      A                      A
 Frequencies --    830.2621               861.7149               869.4080
 Red. masses --      3.0363                 1.5902                 1.4163
 Frc consts  --      1.2332                 0.6957                 0.6307
 IR Inten    --     16.2367                 3.4127                21.3471

                     34                     35                     36
                      A                      A                      A
 Frequencies --    891.9696               930.1929               956.0499
 Red. masses --      1.3302                 1.6793                 1.4012
 Frc consts  --      0.6235                 0.8561                 0.7546
 IR Inten    --     91.2730                 8.5691                 0.5493

                     37                     38                     39
                      A                      A                      A
 Frequencies --    968.0571               992.1280              1016.0640
 Red. masses --      2.8032                 1.3872                 1.8736
 Frc consts  --      1.5478                 0.8045                 1.1397
 IR Inten    --     34.0409                 1.4172                13.4424

                     40                     41                     42
                      A                      A                      A
 Frequencies --   1025.5842              1036.0667              1059.7104
 Red. masses --      1.9564                 1.3142                 2.3318
 Frc consts  --      1.2124                 0.8312                 1.5428
 IR Inten    --      6.2177                 1.5834                 3.0891

                     43                     44                     45
                      A                      A                      A
 Frequencies --   1070.0141              1089.4709              1117.7874
 Red. masses --      2.4598                 2.3183                 2.1536
 Frc consts  --      1.6593                 1.6212                 1.5854
 IR Inten    --      8.3165                19.3364                20.3064

                     46                     47                     48
                      A                      A                      A
 Frequencies --   1143.1066              1155.9697              1162.8173
 Red. masses --      1.8266                 1.9767                 1.4212
 Frc consts  --      1.4063                 1.5563                 1.1322
 IR Inten    --      0.4088                 4.5131                 6.6815

                     49                     50                     51
                      A                      A                      A
 Frequencies --   1177.7158              1189.6931              1200.8958
 Red. masses --      2.2507                 1.6954                 1.8106
 Frc consts  --      1.8393                 1.4138                 1.5384
 IR Inten    --      6.9887                24.5988                 6.9667

                     52                     53                     54
                      A                      A                      A
 Frequencies --   1209.4863              1253.3475              1281.4188
 Red. masses --      2.6432                 1.5607                 2.4536
 Frc consts  --      2.2781                 1.4445                 2.3737
 IR Inten    --     16.4547                 6.2685                 8.6095

                     55                     56                     57
                      A                      A                      A
 Frequencies --   1290.9122              1301.3946              1319.3246
 Red. masses --      1.4278                 2.9306                 1.6550
 Frc consts  --      1.4019                 2.9243                 1.6973
 IR Inten    --      7.1573                16.3388                19.0966

                     58                     59                     60
                      A                      A                      A
 Frequencies --   1326.2343              1352.9887              1363.0744
 Red. masses --      1.1893                 1.4371                 1.3746
 Frc consts  --      1.2324                 1.5499                 1.5047
 IR Inten    --      9.8349                 2.9342                10.4990

                     61                     62                     63
                      A                      A                      A
 Frequencies --   1377.5661              1406.9611              1432.5964
 Red. masses --      1.4702                 1.3518                 1.4667
 Frc consts  --      1.6438                 1.5766                 1.7736
 IR Inten    --      1.6092                 2.1088                12.0250

                     64                     65                     66
                      A                      A                      A
 Frequencies --   1436.3635              1442.8778              1448.4076
 Red. masses --      1.3964                 1.2508                 1.2272
 Frc consts  --      1.6975                 1.5342                 1.5169
 IR Inten    --      7.3975                 5.4548                 8.9402

                     67                     68                     69
                      A                      A                      A
 Frequencies --   1456.2627              1486.6344              1511.7744
 Red. masses --      1.9804                 1.1816                 1.0670
 Frc consts  --      2.4744                 1.5386                 1.4368
 IR Inten    --     28.5570                 3.5601                12.4487

                     70                     71                     72
                      A                      A                      A
 Frequencies --   1520.9401              1524.0197              1530.2532
 Red. masses --      1.0580                 1.1173                 1.1510
 Frc consts  --      1.4419                 1.5290                 1.5880
 IR Inten    --      6.4721                 8.5898                 4.9756

                     73                     74                     75
                      A                      A                      A
 Frequencies --   1533.3192              1537.7372              1538.3787
 Red. masses --      1.2237                 1.0580                 1.2093
 Frc consts  --      1.6951                 1.4740                 1.6862
 IR Inten    --     12.5679                 4.9557                 4.8170

                     76                     77                     78
                      A                      A                      A
 Frequencies --   1544.3600              1547.0848              1551.4952
 Red. masses --      1.2342                 1.0552                 1.0948
 Frc consts  --      1.7344                 1.4880                 1.5526
 IR Inten    --      5.5468                 3.6760                 3.6126

                     79                     80                     81
                      A                      A                      A
 Frequencies --   1610.8084              1642.6561              1694.2408
 Red. masses --      6.7971                 5.4558                 1.0970
 Frc consts  --     10.3911                 8.6736                 1.8553
 IR Inten    --      3.4423                15.2444                31.7811

                     82                     83                     84
                      A                      A                      A
 Frequencies --   2982.1271              3014.5919              3024.0222
 Red. masses --      1.0564                 1.0669                 1.0806
 Frc consts  --      5.5350                 5.7124                 5.8220
 IR Inten    --     61.3517                34.5077                11.2284

                     85                     86                     87
                      A                      A                      A
 Frequencies --   3045.3421              3049.8382              3058.8355
 Red. masses --      1.0603                 1.0439                 1.0623
 Frc consts  --      5.7939                 5.7210                 5.8558
 IR Inten    --     29.6539                40.0315                41.0632

                     88                     89                     90
                      A                      A                      A
 Frequencies --   3063.1774              3070.5580              3072.1185
 Red. masses --      1.0459                 1.0882                 1.0959
 Frc consts  --      5.7822                 6.0450                 6.0938
 IR Inten    --     13.9787                19.4785                38.8046

                     91                     92                     93
                      A                      A                      A
 Frequencies --   3075.3798              3100.1252              3113.8268
 Red. masses --      1.0819                 1.0987                 1.1024
 Frc consts  --      6.0287                 6.2215                 6.2977
 IR Inten    --     42.1619                 7.0262                32.2065

                     94                     95                     96
                      A                      A                      A
 Frequencies --   3117.7596              3129.9274              3132.9499
 Red. masses --      1.1005                 1.1011                 1.1010
 Frc consts  --      6.3029                 6.3553                 6.3672
 IR Inten    --     55.9464                36.6357                26.6341

                     97                     98                     99
                      A                      A                      A
 Frequencies --   3157.5889              3172.1398              3176.1363
 Red. masses --      1.0981                 1.0879                 1.0911
 Frc consts  --      6.4505                 6.4499                 6.4851
 IR Inten    --     24.0536                46.2423                13.5537

                    100                    101                    102
                      A                      A                      A
 Frequencies --   3225.4481              3468.0704              3556.0330
 Red. masses --      1.0924                 1.0501                 1.0925
 Frc consts  --      6.6960                 7.4412                 8.1395
 IR Inten    --      5.6274                 1.4167                 0.1978

 - Thermochemistry -
 -------------------
 Temperature   298.150 Kelvin.  Pressure   1.00000 Atm.
 Atom     1 has atomic number  6 and mass  12.00000

 Molecular mass:   207.17355 amu.
 Principal axes and moments of inertia in atomic units:
                           1         2         3
     Eigenvalues --  2445.148473749.954584616.36758
           X            0.99964   0.02419   0.01151
           Y           -0.02408   0.99966  -0.00971
           Z           -0.01174   0.00943   0.99989
 This molecule is an asymmetric top.
 Rotational symmetry number  1.
 Warning -- assumption of classical behavior for rotation
           may cause significant error
 Rotational temperatures (Kelvin)      0.03542     0.02310     0.01876
 Rotational constants (GHZ):           0.73809     0.48127     0.39094
 Zero-point vibrational energy     849054.4 (Joules/Mol)
                                  202.92888 (Kcal/Mol)
 Warning -- explicit consideration of  25 degrees of freedom as
           vibrations may cause significant error
 Vibrational temperatures:     37.10   103.92   122.10   133.08   204.35
          (Kelvin)            220.40   245.07   255.30   281.30   296.89
                              323.53   341.32   371.39   389.12   423.07
                              441.41   456.50   502.68   594.08   641.76
                              711.55   743.11   782.88   846.42   881.40
                              928.34  1049.22  1110.84  1123.96  1159.75
                             1194.56  1239.82  1250.88  1283.35  1338.34
                             1375.54  1392.82  1427.45  1461.89  1475.59
                             1490.67  1524.69  1539.51  1567.51  1608.25
                             1644.68  1663.18  1673.03  1694.47  1711.70
                             1727.82  1740.18  1803.29  1843.68  1857.33
                             1872.42  1898.21  1908.16  1946.65  1961.16
                             1982.01  2024.30  2061.19  2066.61  2075.98
                             2083.94  2095.24  2138.94  2175.11  2188.29
                             2192.72  2201.69  2206.10  2212.46  2213.38
                             2221.99  2225.91  2232.26  2317.59  2363.42
                             2437.63  4290.62  4337.33  4350.89  4381.57
                             4388.04  4400.98  4407.23  4417.85  4420.09
                             4424.79  4460.39  4480.10  4485.76  4503.27
                             4507.62  4543.07  4564.00  4569.75  4640.70
                             4989.78  5116.34

 Zero-point correction=                           0.323388 (Hartree/Particle)
 Thermal correction to Energy=                    0.339538
 Thermal correction to Enthalpy=                  0.340482
 Thermal correction to Gibbs Free Energy=         0.280355
 Sum of electronic and zero-point Energies=           -633.898277
 Sum of electronic and thermal Energies=              -633.882127
 Sum of electronic and thermal Enthalpies=            -633.881183
 Sum of electronic and thermal Free Energies=         -633.941310

                     E (Thermal)             CV                S
                      KCal/Mol        Cal/Mol-Kelvin    Cal/Mol-Kelvin
 Total                  213.063             61.297            126.548
 Electronic               0.000              0.000              0.000
 Translational            0.889              2.981             41.889
 Rotational               0.889              2.981             32.115
 Vibrational            211.286             55.336             52.544
 Vibration     1          0.593              1.985              6.130
 Vibration     2          0.598              1.967              4.092
 Vibration     3          0.601              1.960              3.775
 Vibration     4          0.602              1.955              3.607
 Vibration     5          0.615              1.911              2.776
 Vibration     6          0.619              1.899              2.632
 Vibration     7          0.625              1.879              2.432
 Vibration     8          0.628              1.870              2.355
 Vibration     9          0.636              1.846              2.175
 Vibration    10          0.641              1.831              2.076
 Vibration    11          0.650              1.803              1.920
 Vibration    12          0.656              1.784              1.824
 Vibration    13          0.667              1.749              1.674
 Vibration    14          0.674              1.728              1.593
 Vibration    15          0.689              1.685              1.451
 Vibration    16          0.697              1.661              1.380
 Vibration    17          0.704              1.641              1.324
 Vibration    18          0.727              1.577              1.169
 Vibration    19          0.777              1.442              0.916
 Vibration    20          0.805              1.370              0.808
 Vibration    21          0.850              1.262              0.672
 Vibration    22          0.872              1.213              0.618
 Vibration    23          0.899              1.153              0.556
 Vibration    24          0.945              1.057              0.470
 Vibration    25          0.972              1.005              0.428

 Optimization completed.
    -- Stationary point found.
 Normal termination of Gaussian 16 at Thu Dec 10 16:13:25 2020.

 ----------------------------------------------------------------------
 # B3LYP/6-311++G(d,p) empiricaldispersion=gd3bj scf=xqc pop=npa geom=c
 heck
 ----------------------------------------------------------------------

 --------------------------------------
 CID_81754073_JID_5422_Energie_neutraal
 --------------------------------------
 Structure from the checkpoint file:  "JID_5422.chk"
 Charge =  0 Multiplicity = 1

 SCF Done:  E(RB3LYP) =  -634.399022989     A.U. after   15 cycles
 Normal termination of Gaussian 16 at Thu Dec 10 16:19:02 2020.

 ----------------------------------------------------------------------
 # B3LYP/6-311++G(d,p) empiricaldispersion=gd3bj scf=xqc pop=npa geom=c
 heck
 ----------------------------------------------------------------------

 ------------------------------------
 CID_81754073_JID_5422_Energie_kation
 ------------------------------------
 Structure from the checkpoint file:  "JID_5422.chk"
 Charge =  1 Multiplicity = 2

 SCF Done:  E(UB3LYP) =  -634.120440949     A.U. after   23 cycles
 Normal termination of Gaussian 16 at Thu Dec 10 16:36:19 2020.
 Gaussian 16:  ES64L-G16RevA.03 25-Dec-2016

 ----------------------------------------------------------------------
 # B3LYP/6-311++G(d,p) empiricaldispersion=gd3bj scf=xqc pop=npa geom=c
 heck
 ----------------------------------------------------------------------

 -----------------------------------
 CID_81754073_JID_5422_Energie_anion
 -----------------------------------
 Structure from the checkpoint file:  "JID_5422.chk"
 Charge = -1 Multiplicity = 2

                         Standard orientation:
 ---------------------------------------------------------------------
 Center     Atomic      Atomic             Coordinates (Angstroms)
 Number     Number       Type             X           Y           Z
 ---------------------------------------------------------------------
      1          6           0       -3.224259    1.685698   -0.988774
      2          6           0       -1.832478    1.338811   -0.450575
      3          6           0       -1.838819    0.160868    0.531298
      4          6           0       -2.396602   -1.147010   -0.091556
      5          6           0       -1.912250   -1.510351   -1.501684
      6          7           0       -0.533154    0.023367    1.229469
      7          6           0       -0.662855   -0.619915    2.534857
      8          6           0        0.590468   -0.432443    0.467193
      9          6           0        1.484991    0.479573   -0.123860
     10          6           0        2.555352   -0.046834   -0.855810
     11          6           0        2.717030   -1.424759   -0.949187
     12          7           0        1.907122   -2.306342   -0.345936
     13          6           0        0.880926   -1.801089    0.341527
     14          6           0        1.357045    1.975531    0.065385
     15          7           0        2.676897    2.619659    0.060170
     16          1           0       -3.652051    0.873961   -1.585520
     17          1           0       -3.182651    2.576425   -1.624886
     18          1           0       -3.920858    1.895878   -0.167831
     19          1           0       -1.153376    1.127686   -1.285146
     20          1           0       -1.425999    2.207599    0.076317
     21          1           0       -2.530501    0.437002    1.338559
     22          1           0       -2.181285   -1.976960    0.592849
     23          1           0       -3.491108   -1.065536   -0.112054
     24          1           0       -0.826069   -1.603915   -1.559274
     25          1           0       -2.343562   -2.469705   -1.808887
     26          1           0       -2.221133   -0.763635   -2.240514
     27          1           0       -1.067585   -1.645731    2.509026
     28          1           0        0.318810   -0.658221    3.014692
     29          1           0       -1.329327   -0.017696    3.162785
     30          1           0        3.265425    0.633290   -1.313457
     31          1           0        3.541863   -1.845353   -1.521638
     32          1           0        0.233215   -2.528695    0.826152
     33          1           0        0.787798    2.404075   -0.768374
     34          1           0        0.758142    2.149234    0.971585
     35          1           0        2.558061    3.628652    0.125830
     36          1           0        3.194849    2.336376    0.890980
 ---------------------------------------------------------------------

 SCF Done:  E(UB3LYP) =  -634.390348694     A.U. after   33 cycles
 SCF Done:  E(UB3LYP) =  -634.390348694     a.u. after    1 cycles

 The electronic state is 2-A.
 Alpha  occ. eigenvalues --  -14.20962 -14.19592 -14.18728 -10.10141 -10.10036
 Alpha  occ. eigenvalues --  -10.09431 -10.09390 -10.09248 -10.08579 -10.07844
 Alpha  occ. eigenvalues --  -10.06727 -10.06436 -10.06131 -10.05956 -10.05797
 Alpha  occ. eigenvalues --   -0.84348  -0.81922  -0.77950  -0.70307  -0.68788
 Alpha  occ. eigenvalues --   -0.64865  -0.64593  -0.59608  -0.57629  -0.56026
 Alpha  occ. eigenvalues --   -0.52244  -0.50485  -0.49158  -0.45216  -0.40713
 Alpha  occ. eigenvalues --   -0.39652  -0.38772  -0.38524  -0.36828  -0.35644
 Alpha  occ. eigenvalues --   -0.33859  -0.32926  -0.32652  -0.32220  -0.30710
 Alpha  occ. eigenvalues --   -0.30521  -0.30271  -0.29700  -0.28126  -0.27274
 Alpha  occ. eigenvalues --   -0.26484  -0.26175  -0.25573  -0.25458  -0.23865
 Alpha  occ. eigenvalues --   -0.22525  -0.22160  -0.17509  -0.16482  -0.15215
 Alpha  occ. eigenvalues --   -0.13914  -0.10998   0.04178
 Alpha virt. eigenvalues --    0.06415   0.07065   0.07441   0.08061   0.08614
 Alpha virt. eigenvalues --    0.08741   0.09066   0.09517   0.09869   0.10507
 Alpha virt. eigenvalues --    0.11421   0.11505   0.11963   0.12240   0.12698

  Beta  occ. eigenvalues --  -14.20962 -14.19470 -14.18673 -10.10133 -10.10031
  Beta  occ. eigenvalues --  -10.09428 -10.09379 -10.09224 -10.08569 -10.07752
  Beta  occ. eigenvalues --  -10.06712 -10.06414 -10.06123 -10.05922 -10.05783
  Beta  occ. eigenvalues --   -0.84254  -0.81829  -0.77837  -0.70246  -0.68662
  Beta  occ. eigenvalues --   -0.64825  -0.64526  -0.59571  -0.57502  -0.55974
  Beta  occ. eigenvalues --   -0.52188  -0.50438  -0.49047  -0.45160  -0.40641
  Beta  occ. eigenvalues --   -0.39592  -0.38730  -0.38472  -0.36759  -0.35608
  Beta  occ. eigenvalues --   -0.33819  -0.32900  -0.32597  -0.32167  -0.30652
  Beta  occ. eigenvalues --   -0.30484  -0.30140  -0.29665  -0.27939  -0.27215
  Beta  occ. eigenvalues --   -0.26439  -0.26073  -0.25531  -0.25416  -0.23820
  Beta  occ. eigenvalues --   -0.22498  -0.22128  -0.17170  -0.16258  -0.15030
  Beta  occ. eigenvalues --   -0.13807  -0.10938
  Beta virt. eigenvalues --    0.06392   0.07355   0.07530   0.08124   0.08324
  Beta virt. eigenvalues --    0.08693   0.09028   0.09341   0.09937   0.10103
  Beta virt. eigenvalues --    0.10721   0.11777   0.11860   0.12171   0.12360

 Mulliken charges and spin densities:
               1          2
     1  C    1.064423  -1.827421
     2  C   -1.562055   1.372806
     3  C    0.170435   0.018044
     4  C    0.218750  -0.608396
     5  C   -0.255996  -0.275980
     6  N    0.242793   0.092069
     7  C    0.388305  -0.560781
     8  C   -0.328128  -0.179958
     9  C    0.149990   0.741531
    10  C   -0.720954   0.688694
    11  C   -0.419042   0.082207
    12  N   -0.011462   0.067990
    13  C    0.035810  -0.873676
    14  C    1.109395  -1.989572
    15  N   -0.515829   0.211861
    16  H    0.057621   0.077037
    17  H   -0.342942   0.491184
    18  H   -0.263472   0.405934
    19  H    0.282600  -0.134626
    20  H    0.146225   0.032233
    21  H    0.009433   0.176679
    22  H    0.017763   0.090883
    23  H   -0.170372   0.333525
    24  H    0.189308  -0.016407
    25  H    0.018035   0.113124
    26  H   -0.003970   0.141544
    27  H   -0.045254   0.169738
    28  H    0.112434   0.045044
    29  H   -0.148067   0.278644
    30  H    0.162476   0.055888
    31  H    0.116900   0.030100
    32  H    0.154691  -0.008797
    33  H   -0.346844   0.608471
    34  H   -0.232811   0.412731
    35  H   -0.242345   0.485686
    36  H   -0.037843   0.251968
 Sum of Mulliken charges =  -1.00000   1.00000

 Dipole moment (field-independent basis, Debye):
    X=              0.0642    Y=             -4.7209    Z=              0.5447  Tot=              4.7527
 Quadrupole moment (field-independent basis, Debye-Ang):
   XX=           -151.5356   YY=           -155.0344   ZZ=           -123.1227
   XY=             -1.1090   XZ=             -1.0853   YZ=              0.3221

 Summary of Natural Population Analysis:

                                       Natural Population
                Natural  -----------------------------------------------
    Atom  No    Charge         Core      Valence    Rydberg      Total
 -----------------------------------------------------------------------
      C    1   -0.28452      0.99966     2.28000    0.00486     3.28452
      C    2   -0.19977      0.99961     2.19047    0.00969     3.19977
      C    3    0.00701      0.99955     1.97989    0.01355     2.99299
      C    4   -0.20333      0.99961     2.19534    0.00838     3.20333
      C    5   -0.29144      0.99966     2.28609    0.00569     3.29144
      N    6   -0.28639      0.99969     2.77229    0.01442     3.78639
      C    7   -0.17382      0.99963     2.16594    0.00824     3.17382
      C    8    0.06626      0.99940     1.92233    0.01200     2.93374
      C    9    0.01129      0.99945     1.97841    0.01085     2.98871
      C   10   -0.11913      0.99951     2.11030    0.00932     3.11913
      C   11    0.01766      0.99959     1.96879    0.01395     2.98234
      N   12   -0.22520      0.99971     2.71401    0.01148     3.72520
      C   13    0.01707      0.99953     1.96986    0.01355     2.98293
      C   14   -0.10408      0.99958     2.09244    0.01206     3.10408
      N   15   -0.42188      0.99978     2.91177    0.01033     3.92188
      H   16    0.09515      0.00000     0.40387    0.00099     0.40485
      H   17    0.10111      0.00000     0.39800    0.00089     0.39889
      H   18    0.09643      0.00000     0.40242    0.00115     0.40357
      H   19    0.09702      0.00000     0.40071    0.00227     0.40298
      H   20    0.10448      0.00000     0.39357    0.00195     0.39552
      H   21    0.09392      0.00000     0.40454    0.00154     0.40608
      H   22    0.09724      0.00000     0.40159    0.00117     0.40276
      H   23    0.09826      0.00000     0.40072    0.00102     0.40174
      H   24    0.10473      0.00000     0.39413    0.00114     0.39527
      H   25    0.09674      0.00000     0.40255    0.00071     0.40326
      H   26    0.09605      0.00000     0.40314    0.00081     0.40395
      H   27    0.08012      0.00000     0.41862    0.00127     0.41988
      H   28    0.09858      0.00000     0.40063    0.00079     0.40142
      H   29    0.09486      0.00000     0.40419    0.00096     0.40514
      H   30    0.11316      0.00000     0.38555    0.00130     0.38684
      H   31    0.08527      0.00000     0.41363    0.00110     0.41473
      H   32    0.08844      0.00000     0.40926    0.00231     0.41156
      H   33    0.10229      0.00000     0.39566    0.00205     0.39771
      H   34    0.09459      0.00000     0.40298    0.00243     0.40541
      H   35    0.17961      0.00000     0.31642    0.00397     0.32039
      H   36    0.17223      0.00000     0.32585    0.00192     0.32777
 =======================================================================
   * Total *   -0.00000     14.99396    41.81593    0.19011    57.00000

 Normal termination of Gaussian 16 at Thu Dec 10 17:16:13 2020.
