 Gaussian 16, Revision A.03,

 -----------------------------------------------------------
 # opt freq B3LYP/6-31G(d) empiricaldispersion=gd3bj scf=xqc
 -----------------------------------------------------------

 ------------------------------
 CID_54539728_JID_4588_neutraal
 ------------------------------
 Symbolic Z-matrix:
 Charge =  0 Multiplicity = 1

 SCF Done:  E(RB3LYP) =  -723.714618736     A.U. after   15 cycles
 SCF Done:  E(RB3LYP) =  -723.721336438     A.U. after   12 cycles
 SCF Done:  E(RB3LYP) =  -723.722098529     A.U. after   13 cycles
 SCF Done:  E(RB3LYP) =  -723.723083537     A.U. after   12 cycles
 SCF Done:  E(RB3LYP) =  -723.723307099     A.U. after   12 cycles
 SCF Done:  E(RB3LYP) =  -723.723391069     A.U. after   12 cycles
 SCF Done:  E(RB3LYP) =  -723.723492564     A.U. after   10 cycles
 SCF Done:  E(RB3LYP) =  -723.723532800     A.U. after   11 cycles
 SCF Done:  E(RB3LYP) =  -723.723545285     A.U. after   10 cycles
 SCF Done:  E(RB3LYP) =  -723.723551845     A.U. after   10 cycles
 SCF Done:  E(RB3LYP) =  -723.725207806     A.U. after   11 cycles
 SCF Done:  E(RB3LYP) =  -723.725207742     A.U. after    9 cycles
 SCF Done:  E(RB3LYP) =  -723.725208743     A.U. after   10 cycles
 SCF Done:  E(RB3LYP) =  -723.725208939     A.U. after    9 cycles
 Optimization completed.
    -- Stationary point found.
 Normal termination of Gaussian 16 at Thu Dec 10 10:33:45 2020.

 --------------------------------------------------------------------
 #N Geom=AllCheck Guess=TCheck SCRF=Check GenChk RB3LYP/6-31G(d) Freq
 --------------------------------------------------------------------

 Structure from the checkpoint file:  "JID_4588.chk"
 ------------------------------
 CID_54539728_JID_4588_neutraal
 ------------------------------
 Charge =  0 Multiplicity = 1

 SCF Done:  E(RB3LYP) =  -723.725208939     A.U. after    1 cycles

  Exact polarizability: 122.898  -1.615 111.098   5.052  -3.598  82.707
 Approx polarizability: 144.137  -6.330 179.802  11.175 -14.364 126.797

                      1                      2                      3
                      A                      A                      A
 Frequencies --     25.0753                47.8147                51.5038
 Red. masses --      4.6088                 5.6239                 4.1587
 Frc consts  --      0.0017                 0.0076                 0.0065
 IR Inten    --      1.8406                 0.1884                 1.6155

                      4                      5                      6
                      A                      A                      A
 Frequencies --     59.7083                77.2990               133.2930
 Red. masses --      5.2127                 5.4110                 3.9839
 Frc consts  --      0.0109                 0.0190                 0.0417
 IR Inten    --      2.5290                 4.9621                16.8649

                      7                      8                      9
                      A                      A                      A
 Frequencies --    148.0152               158.6306               194.9456
 Red. masses --      3.5088                 2.6013                 4.1529
 Frc consts  --      0.0453                 0.0386                 0.0930
 IR Inten    --      2.1914                 5.9849                 3.4461

                     10                     11                     12
                      A                      A                      A
 Frequencies --    244.1245               250.2807               290.1504
 Red. masses --      2.2481                 1.2118                 6.1979
 Frc consts  --      0.0789                 0.0447                 0.3074
 IR Inten    --     28.6564                98.7486                 0.9834

                     13                     14                     15
                      A                      A                      A
 Frequencies --    324.1992               350.7065               391.9728
 Red. masses --      1.1189                 3.3923                 3.4074
 Frc consts  --      0.0693                 0.2458                 0.3085
 IR Inten    --    114.1637                 3.8444                14.5617

                     16                     17                     18
                      A                      A                      A
 Frequencies --    415.4954               429.4955               464.7056
 Red. masses --      3.0764                 5.9697                 6.8958
 Frc consts  --      0.3129                 0.6488                 0.8774
 IR Inten    --     12.1428                26.5706                 4.5338

                     19                     20                     21
                      A                      A                      A
 Frequencies --    518.0361               527.0015               569.7857
 Red. masses --      3.3506                 2.3236                 2.3110
 Frc consts  --      0.5298                 0.3802                 0.4420
 IR Inten    --     12.6986                 6.3842                 2.4574

                     22                     23                     24
                      A                      A                      A
 Frequencies --    649.1859               679.7905               699.9583
 Red. masses --      3.6516                 3.0582                 1.5795
 Frc consts  --      0.9067                 0.8327                 0.4559
 IR Inten    --      2.4792                16.2702                88.6898

                     25                     26                     27
                      A                      A                      A
 Frequencies --    735.7675               815.1560               844.8916
 Red. masses --      3.5505                 4.4677                 2.4388
 Frc consts  --      1.1324                 1.7491                 1.0257
 IR Inten    --     22.3635                 9.6482                11.8326

                     28                     29                     30
                      A                      A                      A
 Frequencies --    867.6102               901.6852               929.1552
 Red. masses --      2.4435                 2.5114                 3.1569
 Frc consts  --      1.0837                 1.2030                 1.6058
 IR Inten    --      1.3988                 3.0129                 7.1601

                     31                     32                     33
                      A                      A                      A
 Frequencies --    966.6047              1010.0969              1018.3953
 Red. masses --      2.0525                 1.9819                 1.9985
 Frc consts  --      1.1299                 1.1914                 1.2212
 IR Inten    --     16.0803                17.9401                 4.4027

                     34                     35                     36
                      A                      A                      A
 Frequencies --   1061.5311              1094.9587              1098.6198
 Red. masses --      2.5479                 2.5233                 3.5154
 Frc consts  --      1.6916                 1.7825                 2.4999
 IR Inten    --     21.0999                29.5084                35.7262

                     37                     38                     39
                      A                      A                      A
 Frequencies --   1106.6221              1128.5121              1164.4865
 Red. masses --      3.3181                 2.1125                 2.1484
 Frc consts  --      2.3941                 1.5851                 1.7165
 IR Inten    --     51.3133                 9.5522                42.8117

                     40                     41                     42
                      A                      A                      A
 Frequencies --   1196.4286              1206.3872              1260.0856
 Red. masses --      1.4018                 1.2428                 1.1847
 Frc consts  --      1.1822                 1.0657                 1.1083
 IR Inten    --     30.1144                38.8032                36.3391

                     43                     44                     45
                      A                      A                      A
 Frequencies --   1272.3908              1275.2467              1288.2064
 Red. masses --      1.1633                 1.1040                 1.5677
 Frc consts  --      1.1096                 1.0578                 1.5328
 IR Inten    --     11.7707                16.1858                32.7997

                     46                     47                     48
                      A                      A                      A
 Frequencies --   1309.3412              1321.6041              1324.6502
 Red. masses --      1.4889                 1.2389                 1.5839
 Frc consts  --      1.5039                 1.2750                 1.6375
 IR Inten    --     36.1351                47.0723                25.2801

                     49                     50                     51
                      A                      A                      A
 Frequencies --   1370.6973              1372.8064              1396.5801
 Red. masses --      1.9096                 1.5544                 1.4440
 Frc consts  --      2.1138                 1.7259                 1.6594
 IR Inten    --    139.1190                41.8753                 3.5973

                     52                     53                     54
                      A                      A                      A
 Frequencies --   1416.8517              1417.9617              1469.2621
 Red. masses --      1.7012                 1.3296                 1.4850
 Frc consts  --      2.0122                 1.5751                 1.8888
 IR Inten    --     21.7124                18.7198                 1.4572

                     55                     56                     57
                      A                      A                      A
 Frequencies --   1469.8923              1478.8540              1499.5440
 Red. masses --      1.4593                 1.3428                 2.0741
 Frc consts  --      1.8577                 1.7302                 2.7479
 IR Inten    --      4.8185                42.1251               114.1028

                     58                     59                     60
                      A                      A                      A
 Frequencies --   1504.0550              1510.2569              1540.3996
 Red. masses --      1.2339                 1.1223                 1.6841
 Frc consts  --      1.6446                 1.5082                 2.3545
 IR Inten    --      4.0524                 2.7790                24.1314

                     61                     62                     63
                      A                      A                      A
 Frequencies --   1547.8627              1555.7968              1761.6267
 Red. masses --      1.1096                 1.0836                10.1560
 Frc consts  --      1.5663                 1.5454                18.5695
 IR Inten    --      6.5479                 3.6544               266.3269

                     64                     65                     66
                      A                      A                      A
 Frequencies --   1805.4432              3000.1756              3007.8741
 Red. masses --      9.2349                 1.0644                 1.0570
 Frc consts  --     17.7358                 5.6448                 5.6343
 IR Inten    --    407.0645                75.5091                46.1045

                     67                     68                     69
                      A                      A                      A
 Frequencies --   3021.3420              3039.9050              3056.4021
 Red. masses --      1.0725                 1.1064                 1.0938
 Frc consts  --      5.7683                 6.0238                 6.0202
 IR Inten    --     29.7650                51.5417                15.7053

                     70                     71                     72
                      A                      A                      A
 Frequencies --   3056.5857              3080.6252              3117.0556
 Red. masses --      1.0668                 1.0692                 1.0948
 Frc consts  --      5.8722                 5.9785                 6.2670
 IR Inten    --     22.4235                53.6338                 8.4877

                     73                     74                     75
                      A                      A                      A
 Frequencies --   3133.4162              3137.8764              3146.4970
 Red. masses --      1.0898                 1.0899                 1.1017
 Frc consts  --      6.3044                 6.3229                 6.4263
 IR Inten    --     16.5479                 2.9677                 5.9702

                     76                     77                     78
                      A                      A                      A
 Frequencies --   3587.0567              3759.6244              3765.9403
 Red. masses --      1.0760                 1.0665                 1.0666
 Frc consts  --      8.1572                 8.8819                 8.9125
 IR Inten    --     30.1658                22.7822                21.0727

 - Thermochemistry -
 -------------------
 Temperature   298.150 Kelvin.  Pressure   1.00000 Atm.
 Atom     1 has atomic number  6 and mass  12.00000

 Molecular mass:   202.09536 amu.
 Principal axes and moments of inertia in atomic units:
                           1         2         3
     Eigenvalues --  1567.859664109.482125162.45201
           X            0.99999   0.00144  -0.00491
           Y           -0.00141   0.99998   0.00639
           Z            0.00492  -0.00638   0.99997
 This molecule is an asymmetric top.
 Rotational symmetry number  1.
 Warning -- assumption of classical behavior for rotation
           may cause significant error
 Rotational temperatures (Kelvin)      0.05524     0.02108     0.01678
 Rotational constants (GHZ):           1.15109     0.43917     0.34959
 Zero-point vibrational energy     615645.4 (Joules/Mol)
                                  147.14278 (Kcal/Mol)
 Warning -- explicit consideration of  21 degrees of freedom as
           vibrations may cause significant error
 Vibrational temperatures:     36.08    68.79    74.10    85.91   111.22
          (Kelvin)            191.78   212.96   228.23   280.48   351.24
                              360.10   417.46   466.45   504.59   563.96
                              597.81   617.95   668.61   745.34   758.24
                              819.79   934.03   978.07  1007.08  1058.61
                             1172.83  1215.61  1248.30  1297.32  1336.85
                             1390.73  1453.30  1465.24  1527.31  1575.40
                             1580.67  1592.18  1623.68  1675.44  1721.39
                             1735.72  1812.98  1830.69  1834.80  1853.44
                             1883.85  1901.49  1905.88  1972.13  1975.16
                             2009.37  2038.53  2040.13  2113.94  2114.85
                             2127.74  2157.51  2164.00  2172.92  2216.29
                             2227.03  2238.44  2534.59  2597.63  4316.58
                             4327.66  4347.04  4373.75  4397.48  4397.75
                             4432.33  4484.75  4508.29  4514.70  4527.11
                             5160.97  5409.26  5418.35

 Zero-point correction=                           0.234487 (Hartree/Particle)
 Thermal correction to Energy=                    0.249119
 Thermal correction to Enthalpy=                  0.250063
 Thermal correction to Gibbs Free Energy=         0.191073
 Sum of electronic and zero-point Energies=           -723.490722
 Sum of electronic and thermal Energies=              -723.476090
 Sum of electronic and thermal Enthalpies=            -723.475146
 Sum of electronic and thermal Free Energies=         -723.534136

                     E (Thermal)             CV                S
                      KCal/Mol        Cal/Mol-Kelvin    Cal/Mol-Kelvin
 Total                  156.325             52.591            124.156
 Electronic               0.000              0.000              0.000
 Translational            0.889              2.981             41.815
 Rotational               0.889              2.981             31.876
 Vibrational            154.547             46.629             50.465
 Vibration     1          0.593              1.985              6.185
 Vibration     2          0.595              1.978              4.906
 Vibration     3          0.596              1.977              4.759
 Vibration     4          0.597              1.974              4.467
 Vibration     5          0.599              1.964              3.958
 Vibration     6          0.613              1.920              2.898
 Vibration     7          0.617              1.905              2.698
 Vibration     8          0.621              1.893              2.566
 Vibration     9          0.636              1.847              2.180
 Vibration    10          0.659              1.772              1.773
 Vibration    11          0.663              1.762              1.729
 Vibration    12          0.686              1.692              1.473
 Vibration    13          0.709              1.627              1.289
 Vibration    14          0.728              1.574              1.163
 Vibration    15          0.759              1.487              0.993
 Vibration    16          0.779              1.437              0.907
 Vibration    17          0.791              1.406              0.860
 Vibration    18          0.822              1.328              0.753
 Vibration    19          0.873              1.210              0.615
 Vibration    20          0.882              1.190              0.594
 Vibration    21          0.926              1.097              0.505

                           ! Non-Optimized Parameters !
 Normal termination of Gaussian 16 at Thu Dec 10 10:42:33 2020.

 ----------------------------------------------------------------------
 # B3LYP/6-311++G(d,p) empiricaldispersion=gd3bj scf=xqc pop=npa geom=c
 heck
 ----------------------------------------------------------------------

 --------------------------------------
 CID_54539728_JID_4588_Energie_neutraal
 --------------------------------------
 Structure from the checkpoint file:  "JID_4588.chk"
 Charge =  0 Multiplicity = 1

 SCF Done:  E(RB3LYP) =  -723.963940658     A.U. after   14 cycles
 Normal termination of Gaussian 16 at Thu Dec 10 10:46:13 2020.

 ----------------------------------------------------------------------
 # B3LYP/6-311++G(d,p) empiricaldispersion=gd3bj scf=xqc pop=npa geom=c
 heck
 ----------------------------------------------------------------------

 ------------------------------------
 CID_54539728_JID_4588_Energie_kation
 ------------------------------------
 Structure from the checkpoint file:  "JID_4588.chk"
 Charge =  1 Multiplicity = 2

 SCF Done:  E(UB3LYP) =  -723.642522671     A.U. after   33 cycles
 SCF Done:  E(UB3LYP) =  -723.642522671     a.u. after    1 cycles
 Normal termination of Gaussian 16 at Thu Dec 10 10:58:35 2020.
 Gaussian 16:  ES64L-G16RevA.03 25-Dec-2016

 ----------------------------------------------------------------------
 # B3LYP/6-311++G(d,p) empiricaldispersion=gd3bj scf=xqc pop=npa geom=c
 heck
 ----------------------------------------------------------------------

 -----------------------------------
 CID_54539728_JID_4588_Energie_anion
 -----------------------------------
 Structure from the checkpoint file:  "JID_4588.chk"
 Charge = -1 Multiplicity = 2

                         Standard orientation:
 ---------------------------------------------------------------------
 Center     Atomic      Atomic             Coordinates (Angstroms)
 Number     Number       Type             X           Y           Z
 ---------------------------------------------------------------------
      1          6           0       -0.908677    1.140760   -0.725454
      2          6           0        0.288984    1.763798   -0.022540
      3          8           0        0.453462    2.975962   -0.036562
      4          7           0        1.117726    0.897378    0.615228
      5          6           0        1.127345   -0.545771    0.433133
      6          6           0       -0.255198   -1.111606    0.137087
      7          8           0       -0.492717   -2.296106    0.362998
      8          7           0       -1.158343   -0.268429   -0.434284
      9          6           0       -2.469865   -0.806800   -0.787988
     10          6           0       -3.479107   -0.681281    0.343488
     11          8           0       -3.728738    0.704864    0.561234
     12          6           0        2.105982   -1.009337   -0.673083
     13          6           0        3.456950   -0.310903   -0.579070
     14          8           0        3.881722   -0.349580    0.783526
     15          1           0       -1.785184    1.716746   -0.421923
     16          1           0       -0.774530    1.292768   -1.806941
     17          1           0        1.941977    1.304183    1.042696
     18          1           0        1.446401   -0.995182    1.374630
     19          1           0       -2.836301   -0.270042   -1.669666
     20          1           0       -2.342677   -1.861959   -1.038912
     21          1           0       -4.401867   -1.213355    0.061069
     22          1           0       -3.065348   -1.164997    1.238596
     23          1           0       -4.203143    0.801608    1.399756
     24          1           0        2.218706   -2.093764   -0.580697
     25          1           0        1.679047   -0.802891   -1.663070
     26          1           0        4.178947   -0.814725   -1.238227
     27          1           0        3.359667    0.729568   -0.923836
     28          1           0        4.760318    0.055122    0.836910
 ---------------------------------------------------------------------

 SCF Done:  E(UB3LYP) =  -723.957616857     A.U. after   33 cycles
 SCF Done:  E(UB3LYP) =  -723.957616857     a.u. after    1 cycles

 The electronic state is 2-A.
 Alpha  occ. eigenvalues --  -19.03560 -19.03008 -19.00042 -18.99925 -14.26376
 Alpha  occ. eigenvalues --  -14.25068 -10.18924 -10.18653 -10.13334 -10.13086
 Alpha  occ. eigenvalues --  -10.12890 -10.12472 -10.12115 -10.08733  -0.95961
 Alpha  occ. eigenvalues --   -0.94902  -0.93640  -0.93035  -0.86429  -0.83740
 Alpha  occ. eigenvalues --   -0.69891  -0.68149  -0.64598  -0.60840  -0.56205
 Alpha  occ. eigenvalues --   -0.52453  -0.50434  -0.46155  -0.43823  -0.43351
 Alpha  occ. eigenvalues --   -0.43196  -0.41959  -0.39704  -0.37981  -0.37284
 Alpha  occ. eigenvalues --   -0.35301  -0.34291  -0.34044  -0.33071  -0.32624
 Alpha  occ. eigenvalues --   -0.31340  -0.30741  -0.29728  -0.29238  -0.27769
 Alpha  occ. eigenvalues --   -0.26888  -0.25840  -0.24292  -0.19568  -0.18918
 Alpha  occ. eigenvalues --   -0.18277  -0.17455  -0.16436  -0.15854   0.03771
 Alpha virt. eigenvalues --    0.04994   0.06735   0.07834   0.08301   0.09262
 Alpha virt. eigenvalues --    0.09656   0.09860   0.10142   0.10832   0.11291
 Alpha virt. eigenvalues --    0.11703   0.12161   0.13031   0.13389   0.14267

  Beta  occ. eigenvalues --  -19.03512 -19.02949 -19.00040 -18.99921 -14.26374
  Beta  occ. eigenvalues --  -14.25057 -10.18923 -10.18651 -10.13330 -10.13060
  Beta  occ. eigenvalues --  -10.12878 -10.12431 -10.12109 -10.08724  -0.95953
  Beta  occ. eigenvalues --   -0.94895  -0.93542  -0.92911  -0.86421  -0.83725
  Beta  occ. eigenvalues --   -0.69850  -0.68109  -0.64557  -0.60775  -0.56160
  Beta  occ. eigenvalues --   -0.52397  -0.50379  -0.46118  -0.43720  -0.43317
  Beta  occ. eigenvalues --   -0.43097  -0.41898  -0.39682  -0.37950  -0.37253
  Beta  occ. eigenvalues --   -0.35277  -0.34266  -0.34023  -0.33042  -0.32606
  Beta  occ. eigenvalues --   -0.31309  -0.30711  -0.29699  -0.29211  -0.27744
  Beta  occ. eigenvalues --   -0.26856  -0.25785  -0.24232  -0.19523  -0.18860
  Beta  occ. eigenvalues --   -0.18264  -0.17443  -0.16425  -0.15844
  Beta virt. eigenvalues --    0.06176   0.06733   0.07368   0.08461   0.08730
  Beta virt. eigenvalues --    0.09435   0.09840   0.10005   0.10252   0.11153
  Beta virt. eigenvalues --    0.11660   0.12050   0.12128   0.13247   0.13477

 Mulliken charges and spin densities:
               1          2
     1  C   -0.290309  -0.117805
     2  C    0.389740  -0.340207
     3  O   -0.341613   0.006095
     4  N   -0.217263   0.032079
     5  C    1.807975  -1.634626
     6  C   -1.369823   0.762929
     7  O   -0.323891   0.005061
     8  N    0.239843  -0.017493
     9  C   -1.196026   1.049750
    10  C    1.271844  -1.612673
    11  O   -0.306715   0.002709
    12  C   -2.057841   1.896845
    13  C    2.280349  -2.733047
    14  O   -0.316588   0.043935
    15  H    0.294816  -0.030197
    16  H    0.049307   0.156913
    17  H    0.340913   0.025455
    18  H    0.200050   0.079288
    19  H    0.004371   0.177444
    20  H    0.130577   0.063191
    21  H   -0.323207   0.472705
    22  H   -0.126180   0.318340
    23  H   -0.180784   0.457575
    24  H    0.143209   0.053115
    25  H   -0.052066   0.203099
    26  H   -0.565913   0.739676
    27  H   -0.177247   0.354214
    28  H   -0.307529   0.585628
 Sum of Mulliken charges =  -1.00000   1.00000

 Dipole moment (field-independent basis, Debye):
    X=             -3.1325    Y=             -1.5792    Z=             -2.5334  Tot=              4.3272
 Quadrupole moment (field-independent basis, Debye-Ang):
   XX=           -183.6590   YY=           -128.1955   ZZ=           -107.0957
   XY=              1.1287   XZ=              7.5994   YZ=              1.4826

 Summary of Natural Population Analysis:

                                       Natural Population
                Natural  -----------------------------------------------
    Atom  No    Charge         Core      Valence    Rydberg      Total
 -----------------------------------------------------------------------
      C    1   -0.12628      0.99957     2.11762    0.00910     3.12628
      C    2    0.33997      0.99967     1.63864    0.02172     2.66003
      O    3   -0.32190      0.99988     3.31589    0.00614     4.32190
      N    4   -0.31545      0.99966     2.80620    0.00959     3.81545
      C    5   -0.04541      0.99955     2.03278    0.01309     3.04541
      C    6    0.34786      0.99960     1.62996    0.02258     2.65214
      O    7   -0.32910      0.99988     3.32396    0.00526     4.32910
      N    8   -0.25002      0.99963     2.73979    0.01060     3.75002
      C    9   -0.09574      0.99960     2.08545    0.01069     3.09574
      C   10   -0.01403      0.99960     2.00188    0.01255     3.01403
      O   11   -0.37585      0.99989     3.36895    0.00701     4.37585
      C   12   -0.19789      0.99960     2.18875    0.00953     3.19789
      C   13   -0.01133      0.99960     1.99893    0.01280     3.01133
      O   14   -0.37922      0.99989     3.37209    0.00724     4.37922
      H   15    0.12568      0.00000     0.37260    0.00172     0.37432
      H   16    0.10204      0.00000     0.39658    0.00139     0.39796
      H   17    0.20546      0.00000     0.29219    0.00235     0.29454
      H   18    0.11750      0.00000     0.38106    0.00144     0.38250
      H   19    0.09700      0.00000     0.40180    0.00120     0.40300
      H   20    0.11353      0.00000     0.38525    0.00122     0.38647
      H   21    0.07806      0.00000     0.42025    0.00168     0.42194
      H   22    0.08620      0.00000     0.41224    0.00156     0.41380
      H   23    0.23781      0.00000     0.25222    0.00996     0.26219
      H   24    0.10807      0.00000     0.39080    0.00113     0.39193
      H   25    0.09936      0.00000     0.39938    0.00126     0.40064
      H   26    0.08483      0.00000     0.41289    0.00228     0.41517
      H   27    0.07844      0.00000     0.41936    0.00220     0.42156
      H   28    0.24042      0.00000     0.24357    0.01601     0.25958
 =======================================================================
   * Total *   -0.00000     13.99562    39.80108    0.20329    54.00000

 Normal termination of Gaussian 16 at Thu Dec 10 11:10:40 2020.
