 Gaussian 16, Revision A.03,

 -----------------------------------------------------------
 # opt freq B3LYP/6-31G(d) empiricaldispersion=gd3bj scf=xqc
 -----------------------------------------------------------

 ------------------------------
 CID_47097467_JID_9193_neutraal
 ------------------------------
 Symbolic Z-matrix:
 Charge =  0 Multiplicity = 1

 SCF Done:  E(RB3LYP) =  -877.173325373     A.U. after   15 cycles
 SCF Done:  E(RB3LYP) =  -877.185824509     A.U. after   13 cycles
 SCF Done:  E(RB3LYP) =  -877.184114526     A.U. after   14 cycles
 SCF Done:  E(RB3LYP) =  -877.185869413     A.U. after   12 cycles
 SCF Done:  E(RB3LYP) =  -877.186067849     A.U. after   14 cycles
 SCF Done:  E(RB3LYP) =  -877.187135295     A.U. after   12 cycles
 SCF Done:  E(RB3LYP) =  -877.187367980     A.U. after   11 cycles
 SCF Done:  E(RB3LYP) =  -877.187550664     A.U. after   11 cycles
 SCF Done:  E(RB3LYP) =  -877.187628503     A.U. after   11 cycles
 SCF Done:  E(RB3LYP) =  -877.187657085     A.U. after   11 cycles
 SCF Done:  E(RB3LYP) =  -877.187693245     A.U. after    9 cycles
 SCF Done:  E(RB3LYP) =  -877.187696258     A.U. after    9 cycles
 SCF Done:  E(RB3LYP) =  -877.187696808     A.U. after    8 cycles
 SCF Done:  E(RB3LYP) =  -877.187697044     A.U. after    8 cycles
 SCF Done:  E(RB3LYP) =  -877.187697078     A.U. after    7 cycles
 SCF Done:  E(RB3LYP) =  -877.187697103     A.U. after    8 cycles
 Optimization completed.
    -- Stationary point found.
 Normal termination of Gaussian 16 at Sun Dec 13 12:45:18 2020.

 --------------------------------------------------------------------
 #N Geom=AllCheck Guess=TCheck SCRF=Check GenChk RB3LYP/6-31G(d) Freq
 --------------------------------------------------------------------

 Structure from the checkpoint file:  "JID_9193.chk"
 ------------------------------
 CID_47097467_JID_9193_neutraal
 ------------------------------
 Charge =  0 Multiplicity = 1

 SCF Done:  E(RB3LYP) =  -877.187697103     A.U. after    1 cycles

  Exact polarizability: 242.910  -6.620 165.132  18.582  16.323  99.395
 Approx polarizability: 356.208  -4.509 275.883  48.438  47.489 164.399

                      1                      2                      3
                      A                      A                      A
 Frequencies --     19.5601                40.6647                52.0815
 Red. masses --      5.8240                 5.0177                 1.0256
 Frc consts  --      0.0013                 0.0049                 0.0016
 IR Inten    --      0.5877                 0.7341                 0.0225

                      4                      5                      6
                      A                      A                      A
 Frequencies --     65.2857                84.4493               103.8700
 Red. masses --      6.2579                 2.7985                 4.2662
 Frc consts  --      0.0157                 0.0118                 0.0271
 IR Inten    --      0.9371                 0.6418                 2.2107

                      7                      8                      9
                      A                      A                      A
 Frequencies --    117.2983               128.2377               157.5034
 Red. masses --      2.2395                 4.4068                10.1658
 Frc consts  --      0.0182                 0.0427                 0.1486
 IR Inten    --      0.2147                 4.6400                 3.6408

                     10                     11                     12
                      A                      A                      A
 Frequencies --    177.0988               212.1425               230.1383
 Red. masses --      4.8684                 5.2234                 5.2323
 Frc consts  --      0.0900                 0.1385                 0.1633
 IR Inten    --      0.5578                 1.3138                 0.7210

                     13                     14                     15
                      A                      A                      A
 Frequencies --    271.5436               295.9450               298.9135
 Red. masses --      3.4975                 4.3316                 3.5746
 Frc consts  --      0.1519                 0.2235                 0.1882
 IR Inten    --      2.6134                 1.0283                 2.8547

                     16                     17                     18
                      A                      A                      A
 Frequencies --    318.2020               354.1613               390.6355
 Red. masses --      7.7305                 5.5778                 7.8329
 Frc consts  --      0.4612                 0.4122                 0.7042
 IR Inten    --      9.0836                 8.0449                27.5120

                     19                     20                     21
                      A                      A                      A
 Frequencies --    429.0910               505.9121               522.3889
 Red. masses --      3.2532                 5.0645                 5.1577
 Frc consts  --      0.3529                 0.7637                 0.8293
 IR Inten    --      2.7285                 6.2698                14.3728

                     22                     23                     24
                      A                      A                      A
 Frequencies --    549.9985               593.2371               614.0098
 Red. masses --      4.9247                 5.5272                 2.9500
 Frc consts  --      0.8777                 1.1461                 0.6553
 IR Inten    --      5.3793                 3.4571                18.1083

                     25                     26                     27
                      A                      A                      A
 Frequencies --    617.8886               629.7531               683.6121
 Red. masses --      2.4884                 2.7926                 3.2393
 Frc consts  --      0.5597                 0.6525                 0.8919
 IR Inten    --     44.1429                30.3797                 5.7478

                     28                     29                     30
                      A                      A                      A
 Frequencies --    718.0649               727.7939               741.8177
 Red. masses --      2.9610                 4.1917                 8.6872
 Frc consts  --      0.8995                 1.3082                 2.8166
 IR Inten    --     38.6580                32.6303                18.3133

                     31                     32                     33
                      A                      A                      A
 Frequencies --    744.4852               764.0235               777.4137
 Red. masses --      5.7187                 1.8082                 6.8774
 Frc consts  --      1.8675                 0.6219                 2.4490
 IR Inten    --      2.7089                 4.0015                 0.0605

                     34                     35                     36
                      A                      A                      A
 Frequencies --    799.8796               841.3698               856.8827
 Red. masses --      1.2567                 2.6056                 1.9043
 Frc consts  --      0.4737                 1.0868                 0.8238
 IR Inten    --      0.8803                 2.5151                23.7761

                     37                     38                     39
                      A                      A                      A
 Frequencies --    889.9142               906.0414               943.6472
 Red. masses --      2.5665                 1.4396                 2.8617
 Frc consts  --      1.1976                 0.6963                 1.5014
 IR Inten    --      1.4067                10.3790                 5.8452

                     40                     41                     42
                      A                      A                      A
 Frequencies --    950.2273               964.9468               968.6714
 Red. masses --      2.2997                 3.1281                 1.3608
 Frc consts  --      1.2234                 1.7161                 0.7523
 IR Inten    --      1.9079                 8.5825                 0.7841

                     43                     44                     45
                      A                      A                      A
 Frequencies --    984.4285              1014.3146              1036.7614
 Red. masses --      1.4326                 2.9096                 2.4311
 Frc consts  --      0.8180                 1.7637                 1.5396
 IR Inten    --      1.4979                22.0078                40.2245

                     46                     47                     48
                      A                      A                      A
 Frequencies --   1044.6133              1068.2386              1120.5945
 Red. masses --      2.5310                 2.4800                 2.9033
 Frc consts  --      1.6273                 1.6674                 2.1480
 IR Inten    --      9.6470                10.7085                18.9458

                     49                     50                     51
                      A                      A                      A
 Frequencies --   1137.2996              1167.0327              1176.6346
 Red. masses --      2.2654                 1.2917                 1.8519
 Frc consts  --      1.7264                 1.0365                 1.5106
 IR Inten    --      3.7979                 0.3605                29.4097

                     52                     53                     54
                      A                      A                      A
 Frequencies --   1221.9308              1223.7623              1239.1193
 Red. masses --      1.3284                 2.1433                 1.5087
 Frc consts  --      1.1686                 1.8911                 1.3648
 IR Inten    --      7.4211                 5.3118                28.5259

                     55                     56                     57
                      A                      A                      A
 Frequencies --   1252.8254              1266.8520              1271.4023
 Red. masses --      1.6600                 1.3257                 1.3123
 Frc consts  --      1.5351                 1.2536                 1.2498
 IR Inten    --    102.8958                12.0910                 1.2905

                     58                     59                     60
                      A                      A                      A
 Frequencies --   1280.9207              1292.3276              1295.9821
 Red. masses --      2.3099                 1.7198                 1.7338
 Frc consts  --      2.2330                 1.6923                 1.7158
 IR Inten    --     41.1929                62.1568                26.7496

                     61                     62                     63
                      A                      A                      A
 Frequencies --   1303.8449              1316.8600              1385.2916
 Red. masses --      1.5804                 1.7365                 4.8830
 Frc consts  --      1.5829                 1.7742                 5.5210
 IR Inten    --     32.2785               241.8553                 1.0740

                     64                     65                     66
                      A                      A                      A
 Frequencies --   1390.6458              1421.4377              1472.0022
 Red. masses --      2.3377                 4.4253                 1.7011
 Frc consts  --      2.6636                 5.2681                 2.1717
 IR Inten    --    270.7292               292.7412                19.5292

                     67                     68                     69
                      A                      A                      A
 Frequencies --   1483.6573              1511.7281              1517.4156
 Red. masses --      2.0824                 1.0878                 1.0425
 Frc consts  --      2.7008                 1.4647                 1.4143
 IR Inten    --    152.6395                 0.3203                 8.1673

                     70                     71                     72
                      A                      A                      A
 Frequencies --   1517.4601              1522.6964              1536.8498
 Red. masses --      1.0845                 2.1514                 1.0722
 Frc consts  --      1.4713                 2.9390                 1.4921
 IR Inten    --      2.9699                20.2478                 9.5173

                     73                     74                     75
                      A                      A                      A
 Frequencies --   1540.1897              1542.6549              1656.8050
 Red. masses --      3.1014                 1.1739                 7.4318
 Frc consts  --      4.3347                 1.6459                12.0196
 IR Inten    --    112.9138                10.6801                10.0857

                     76                     77                     78
                      A                      A                      A
 Frequencies --   1674.9438              1784.4198              1806.8189
 Red. masses --      7.2279                 8.3604                12.8446
 Frc consts  --     11.9471                15.6845                24.7059
 IR Inten    --    163.5799               404.1282               561.9225

                     79                     80                     81
                      A                      A                      A
 Frequencies --   1855.9243              3073.7670              3074.0446
 Red. masses --     12.2654                 1.0715                 1.0386
 Frc consts  --     24.8915                 5.9644                 5.7826
 IR Inten    --     79.2073                46.8483                24.9647

                     82                     83                     84
                      A                      A                      A
 Frequencies --   3078.5648              3080.8979              3097.6362
 Red. masses --      1.0616                 1.0660                 1.0604
 Frc consts  --      5.9280                 5.9614                 5.9952
 IR Inten    --     31.3850                20.2759                30.3126

                     85                     86                     87
                      A                      A                      A
 Frequencies --   3123.4768              3137.9485              3141.4331
 Red. masses --      1.1073                 1.1061                 1.1066
 Frc consts  --      6.3649                 6.4171                 6.4340
 IR Inten    --     10.6722                14.9938                26.3845

                     88                     89                     90
                      A                      A                      A
 Frequencies --   3153.5243              3179.6577              3192.8333
 Red. masses --      1.1076                 1.1037                 1.0894
 Frc consts  --      6.4895                 6.5745                 6.5432
 IR Inten    --     31.2321                 1.0460                 8.5497

                     91                     92                     93
                      A                      A                      A
 Frequencies --   3222.8185              3262.5305              3574.7688
 Red. masses --      1.0937                 1.0905                 1.0754
 Frc consts  --      6.6931                 6.8392                 8.0971
 IR Inten    --      4.1900                 2.0862                31.1476

 - Thermochemistry -
 -------------------
 Temperature   298.150 Kelvin.  Pressure   1.00000 Atm.
 Atom     1 has atomic number  6 and mass  12.00000

 Molecular mass:   258.10044 amu.
 Principal axes and moments of inertia in atomic units:
                           1         2         3
     Eigenvalues --  2407.370108622.42196**********
           X            0.99996   0.00639  -0.00685
           Y           -0.00645   0.99994  -0.00853
           Z            0.00679   0.00858   0.99994
 This molecule is an asymmetric top.
 Rotational symmetry number  1.
 Warning -- assumption of classical behavior for rotation
           may cause significant error
 Rotational temperatures (Kelvin)      0.03598     0.01005     0.00855
 Rotational constants (GHZ):           0.74967     0.20931     0.17808
 Zero-point vibrational energy     692574.3 (Joules/Mol)
                                  165.52924 (Kcal/Mol)
 Warning -- explicit consideration of  25 degrees of freedom as
           vibrations may cause significant error
 Vibrational temperatures:     28.14    58.51    74.93    93.93   121.50
          (Kelvin)            149.45   168.77   184.51   226.61   254.81
                              305.23   331.12   390.69   425.80   430.07
                              457.82   509.56   562.04   617.37   727.89
                              751.60   791.33   853.54   883.42   889.00
                              906.07   983.57  1033.14  1047.13  1067.31
                             1071.15  1099.26  1118.52  1150.85  1210.54
                             1232.86  1280.39  1303.59  1357.70  1367.17
                             1388.34  1393.70  1416.37  1459.37  1491.67
                             1502.97  1536.96  1612.29  1636.32  1679.10
                             1692.91  1758.09  1760.72  1782.82  1802.54
                             1822.72  1829.26  1842.96  1859.37  1864.63
                             1875.94  1894.67  1993.13  2000.83  2045.13
                             2117.88  2134.65  2175.04  2183.22  2183.29
                             2190.82  2211.18  2215.99  2219.54  2383.77
                             2409.87  2567.38  2599.61  2670.26  4422.47
                             4422.86  4429.37  4432.72  4456.81  4493.99
                             4514.81  4519.82  4537.22  4574.82  4593.77
                             4636.92  4694.05  5143.29

 Zero-point correction=                           0.263788 (Hartree/Particle)
 Thermal correction to Energy=                    0.280704
 Thermal correction to Enthalpy=                  0.281648
 Thermal correction to Gibbs Free Energy=         0.217093
 Sum of electronic and zero-point Energies=           -876.923909
 Sum of electronic and thermal Energies=              -876.906993
 Sum of electronic and thermal Enthalpies=            -876.906049
 Sum of electronic and thermal Free Energies=         -876.970605

                     E (Thermal)             CV                S
                      KCal/Mol        Cal/Mol-Kelvin    Cal/Mol-Kelvin
 Total                  176.144             63.258            135.869
 Electronic               0.000              0.000              0.000
 Translational            0.889              2.981             42.544
 Rotational               0.889              2.981             33.708
 Vibrational            174.367             57.296             59.617
 Vibration     1          0.593              1.986              6.678
 Vibration     2          0.594              1.981              5.226
 Vibration     3          0.596              1.977              4.737
 Vibration     4          0.597              1.971              4.291
 Vibration     5          0.601              1.960              3.785
 Vibration     6          0.605              1.946              3.380
 Vibration     7          0.608              1.935              3.144
 Vibration     8          0.611              1.925              2.972
 Vibration     9          0.621              1.894              2.580
 Vibration    10          0.628              1.871              2.359
 Vibration    11          0.643              1.822              2.025
 Vibration    12          0.652              1.795              1.878
 Vibration    13          0.675              1.726              1.586
 Vibration    14          0.690              1.681              1.440
 Vibration    15          0.692              1.676              1.423
 Vibration    16          0.705              1.639              1.319
 Vibration    17          0.730              1.567              1.148
 Vibration    18          0.758              1.490              0.998
 Vibration    19          0.790              1.407              0.862
 Vibration    20          0.861              1.237              0.644
 Vibration    21          0.877              1.200              0.604
 Vibration    22          0.905              1.140              0.544
 Vibration    23          0.951              1.046              0.461
 Vibration    24          0.973              1.002              0.426
 Vibration    25          0.978              0.994              0.420

 Optimization completed.
    -- Stationary point found.
 Normal termination of Gaussian 16 at Sun Dec 13 13:00:53 2020.

 ----------------------------------------------------------------------
 # B3LYP/6-311++G(d,p) empiricaldispersion=gd3bj scf=xqc pop=npa geom=c
 heck
 ----------------------------------------------------------------------

 --------------------------------------
 CID_47097467_JID_9193_Energie_neutraal
 --------------------------------------
 Structure from the checkpoint file:  "JID_9193.chk"
 Charge =  0 Multiplicity = 1

 SCF Done:  E(RB3LYP) =  -877.429585964     A.U. after   16 cycles
 Normal termination of Gaussian 16 at Sun Dec 13 13:07:38 2020.

 ----------------------------------------------------------------------
 # B3LYP/6-311++G(d,p) empiricaldispersion=gd3bj scf=xqc pop=npa geom=c
 heck
 ----------------------------------------------------------------------

 ------------------------------------
 CID_47097467_JID_9193_Energie_kation
 ------------------------------------
 Structure from the checkpoint file:  "JID_9193.chk"
 Charge =  1 Multiplicity = 2

 SCF Done:  E(UB3LYP) =  -877.114624798     A.U. after   25 cycles
 Normal termination of Gaussian 16 at Sun Dec 13 13:22:39 2020.
 Gaussian 16:  ES64L-G16RevA.03 25-Dec-2016

 ----------------------------------------------------------------------
 # B3LYP/6-311++G(d,p) empiricaldispersion=gd3bj scf=xqc pop=npa geom=c
 heck
 ----------------------------------------------------------------------

 -----------------------------------
 CID_47097467_JID_9193_Energie_anion
 -----------------------------------
 Structure from the checkpoint file:  "JID_9193.chk"
 Charge = -1 Multiplicity = 2

                         Standard orientation:
 ---------------------------------------------------------------------
 Center     Atomic      Atomic             Coordinates (Angstroms)
 Number     Number       Type             X           Y           Z
 ---------------------------------------------------------------------
      1          6           0        4.605898   -1.617260   -0.148565
      2          7           0        3.420234   -0.784132   -0.113894
      3          6           0        3.404601    0.520226    0.413315
      4          8           0        4.367417    1.086972    0.889363
      5          6           0        2.005743    0.999209    0.250185
      6          6           0        1.261941   -0.015196   -0.353066
      7          6           0        2.166385   -1.179892   -0.596984
      8          8           0        1.902139   -2.254677   -1.098196
      9          6           0       -0.077718    0.124906   -0.658458
     10          6           0       -0.704392    1.335297   -0.303466
     11          6           0        0.052828    2.362850    0.297914
     12          6           0        1.411419    2.210179    0.574058
     13          7           0       -2.055265    1.595609   -0.568737
     14          6           0       -3.192085    0.788821   -0.558413
     15          8           0       -4.272658    1.313559   -0.779496
     16          6           0       -3.058908   -0.678943   -0.218411
     17          6           0       -2.441556   -1.088274    1.156961
     18          6           0       -3.578215   -2.132960    1.303229
     19          6           0       -4.369140   -1.395577    0.191738
     20          1           0        5.391308   -1.136616   -0.738694
     21          1           0        4.981913   -1.785690    0.864531
     22          1           0        4.325352   -2.567443   -0.604950
     23          1           0       -0.606366   -0.667698   -1.169566
     24          1           0       -0.448143    3.290940    0.559447
     25          1           0        1.982888    3.008003    1.037142
     26          1           0       -2.311923    2.573159   -0.651939
     27          1           0       -2.569273   -1.209009   -1.042378
     28          1           0       -1.411516   -1.451537    1.157089
     29          1           0       -2.525412   -0.276708    1.887012
     30          1           0       -4.053805   -2.216172    2.284373
     31          1           0       -3.252556   -3.129105    0.987715
     32          1           0       -5.091465   -0.678750    0.588423
     33          1           0       -4.861771   -2.000866   -0.573371
 ---------------------------------------------------------------------

 SCF Done:  E(UB3LYP) =  -877.470194981     A.U. after   23 cycles

 The electronic state is 2-A.
 Alpha  occ. eigenvalues --  -18.99030 -18.95085 -18.94937 -14.23939 -14.21365
 Alpha  occ. eigenvalues --  -10.17249 -10.12150 -10.11999 -10.09324 -10.09192
 Alpha  occ. eigenvalues --  -10.08638 -10.08330 -10.08011 -10.07968 -10.05661
 Alpha  occ. eigenvalues --  -10.05385 -10.05012 -10.03450 -10.03032  -0.94410
 Alpha  occ. eigenvalues --   -0.91386  -0.89409  -0.82818  -0.80785  -0.76001
 Alpha  occ. eigenvalues --   -0.72864  -0.65410  -0.62995  -0.60731  -0.58373
 Alpha  occ. eigenvalues --   -0.57265  -0.52479  -0.51415  -0.48263  -0.47852
 Alpha  occ. eigenvalues --   -0.45127  -0.43434  -0.41322  -0.39635  -0.39361
 Alpha  occ. eigenvalues --   -0.36280  -0.35130  -0.34846  -0.33880  -0.33061
 Alpha  occ. eigenvalues --   -0.32029  -0.31169  -0.30449  -0.30038  -0.29753
 Alpha  occ. eigenvalues --   -0.29060  -0.28646  -0.27328  -0.26929  -0.26073
 Alpha  occ. eigenvalues --   -0.25074  -0.24770  -0.24124  -0.23610  -0.22429
 Alpha  occ. eigenvalues --   -0.22231  -0.18891  -0.16253  -0.14469  -0.13895
 Alpha  occ. eigenvalues --   -0.13417  -0.11648  -0.10668   0.01847
 Alpha virt. eigenvalues --    0.07003   0.08276   0.08559   0.08719   0.08953
 Alpha virt. eigenvalues --    0.09740   0.10286   0.10899   0.11816   0.12023
 Alpha virt. eigenvalues --    0.12399   0.12680   0.12889   0.13102   0.14271

  Beta  occ. eigenvalues --  -18.98962 -18.94673 -18.94530 -14.23970 -14.21465
  Beta  occ. eigenvalues --  -10.17199 -10.11945 -10.11800 -10.09196 -10.09131
  Beta  occ. eigenvalues --  -10.08635 -10.08329 -10.08011 -10.07966 -10.05714
  Beta  occ. eigenvalues --  -10.05441 -10.04874 -10.03212 -10.02813  -0.94296
  Beta  occ. eigenvalues --   -0.90817  -0.88690  -0.82708  -0.80511  -0.75995
  Beta  occ. eigenvalues --   -0.72594  -0.65040  -0.62758  -0.60677  -0.58236
  Beta  occ. eigenvalues --   -0.57249  -0.51889  -0.51071  -0.48216  -0.47564
  Beta  occ. eigenvalues --   -0.45083  -0.43284  -0.41205  -0.39551  -0.39229
  Beta  occ. eigenvalues --   -0.36118  -0.34999  -0.34460  -0.33610  -0.32897
  Beta  occ. eigenvalues --   -0.31916  -0.30917  -0.30309  -0.29990  -0.29551
  Beta  occ. eigenvalues --   -0.28761  -0.27773  -0.27042  -0.26858  -0.25850
  Beta  occ. eigenvalues --   -0.24182  -0.24029  -0.23470  -0.22958  -0.22349
  Beta  occ. eigenvalues --   -0.22173  -0.18260  -0.16198  -0.13498  -0.13062
  Beta  occ. eigenvalues --   -0.12646  -0.11244  -0.09652
  Beta virt. eigenvalues --    0.06941   0.07742   0.08402   0.08672   0.08908
  Beta virt. eigenvalues --    0.09104   0.09789   0.10497   0.11031   0.11898
  Beta virt. eigenvalues --    0.12312   0.12444   0.12675   0.12889   0.13114

 Mulliken charges and spin densities:
               1          2
     1  C   -0.285278   0.001873
     2  N    0.017704  -0.064498
     3  C   -0.223189   0.105811
     4  O   -0.444476   0.143080
     5  C    0.348560   0.143002
     6  C    0.851786   0.181527
     7  C   -0.075683   0.124465
     8  O   -0.432150   0.143549
     9  C   -0.244837  -0.052672
    10  C   -0.134709   0.087411
    11  C   -0.504896   0.146536
    12  C   -0.640856  -0.007493
    13  N   -0.205297  -0.017999
    14  C   -0.335016   0.017946
    15  O   -0.332264   0.022962
    16  C    0.575254   0.020277
    17  C   -0.416579  -0.008372
    18  C   -0.288280   0.002205
    19  C   -0.502113  -0.003619
    20  H    0.157580  -0.001464
    21  H    0.157312  -0.001450
    22  H    0.165449  -0.001183
    23  H    0.196740   0.005838
    24  H    0.113892  -0.011141
    25  H    0.157702   0.003032
    26  H    0.281558   0.010508
    27  H    0.155201   0.004227
    28  H    0.178649  -0.001989
    29  H    0.152060   0.004486
    30  H    0.130385   0.002138
    31  H    0.130428  -0.000619
    32  H    0.163435  -0.000964
    33  H    0.131931   0.002589
 Sum of Mulliken charges =  -1.00000   1.00000

 Dipole moment (field-independent basis, Debye):
    X=             -4.7311    Y=             -1.2526    Z=              1.2127  Tot=              5.0422
 Quadrupole moment (field-independent basis, Debye-Ang):
   XX=           -181.3682   YY=           -130.2102   ZZ=           -122.1117
   XY=              1.5222   XZ=             -9.8695   YZ=             -4.4844

 Summary of Natural Population Analysis:

                                       Natural Population
                Natural  -----------------------------------------------
    Atom  No    Charge         Core      Valence    Rydberg      Total
 -----------------------------------------------------------------------
      C    1   -0.17869      0.99966     2.17132    0.00770     3.17869
      N    2   -0.27924      0.99962     2.77053    0.00910     3.77924
      C    3    0.36813      0.99963     1.61028    0.02196     2.63187
      O    4   -0.27363      0.99987     3.26776    0.00600     4.27363
      C    5   -0.02212      0.99943     2.01442    0.00827     3.02212
      C    6   -0.00212      0.99944     1.99420    0.00848     3.00212
      C    7    0.37022      0.99963     1.60835    0.02180     2.62978
      O    8   -0.27567      0.99987     3.26974    0.00606     4.27567
      C    9   -0.11429      0.99945     2.10670    0.00814     3.11429
      C   10    0.10062      0.99950     1.89012    0.00976     2.89938
      C   11   -0.09358      0.99955     2.08579    0.00824     3.09358
      C   12   -0.09251      0.99954     2.08389    0.00909     3.09251
      N   13   -0.31059      0.99964     2.80036    0.01059     3.81059
      C   14    0.35215      0.99964     1.62662    0.02159     2.64785
      O   15   -0.32127      0.99988     3.31494    0.00645     4.32127
      C   16   -0.15163      0.99957     2.14303    0.00904     3.15163
      C   17   -0.18439      0.99964     2.17789    0.00686     3.18439
      C   18   -0.19225      0.99966     2.18642    0.00617     3.19225
      C   19   -0.18347      0.99965     2.17631    0.00750     3.18347
      H   20    0.09288      0.00000     0.40594    0.00118     0.40712
      H   21    0.09288      0.00000     0.40595    0.00117     0.40712
      H   22    0.10585      0.00000     0.39294    0.00120     0.39415
      H   23    0.10260      0.00000     0.39552    0.00189     0.39740
      H   24    0.08995      0.00000     0.40901    0.00104     0.41005
      H   25    0.10164      0.00000     0.39712    0.00124     0.39836
      H   26    0.19349      0.00000     0.30460    0.00191     0.30651
      H   27    0.11174      0.00000     0.38720    0.00106     0.38826
      H   28    0.10977      0.00000     0.38924    0.00099     0.39023
      H   29    0.09834      0.00000     0.40070    0.00096     0.40166
      H   30    0.09227      0.00000     0.40669    0.00104     0.40773
      H   31    0.09439      0.00000     0.40447    0.00114     0.40561
      H   32    0.10453      0.00000     0.39430    0.00116     0.39547
      H   33    0.09399      0.00000     0.40503    0.00098     0.40601
 =======================================================================
   * Total *    0.00000     18.99287    48.79737    0.20976    68.00000

 Normal termination of Gaussian 16 at Sun Dec 13 13:36:52 2020.
