 Gaussian 16, Revision A.03,

 -----------------------------------------------------------
 # opt freq B3LYP/6-31G(d) empiricaldispersion=gd3bj scf=xqc
 -----------------------------------------------------------

 -------------------------------
 CID_85795735_JID_10724_neutraal
 -------------------------------
 Symbolic Z-matrix:
 Charge =  0 Multiplicity = 1

 SCF Done:  E(RB3LYP) =  -846.026952910     A.U. after   14 cycles
 SCF Done:  E(RB3LYP) =  -846.031782933     A.U. after   12 cycles
 SCF Done:  E(RB3LYP) =  -846.032658595     A.U. after   12 cycles
 SCF Done:  E(RB3LYP) =  -846.033339956     A.U. after   12 cycles
 SCF Done:  E(RB3LYP) =  -846.033634960     A.U. after   12 cycles
 SCF Done:  E(RB3LYP) =  -846.033774223     A.U. after   12 cycles
 SCF Done:  E(RB3LYP) =  -846.034000685     A.U. after   12 cycles
 SCF Done:  E(RB3LYP) =  -846.034415226     A.U. after   12 cycles
 SCF Done:  E(RB3LYP) =  -846.034711380     A.U. after   11 cycles
 SCF Done:  E(RB3LYP) =  -846.035128384     A.U. after   12 cycles
 SCF Done:  E(RB3LYP) =  -846.035563866     A.U. after   10 cycles
 SCF Done:  E(RB3LYP) =  -846.035604899     A.U. after   11 cycles
 SCF Done:  E(RB3LYP) =  -846.035609696     A.U. after    9 cycles
 SCF Done:  E(RB3LYP) =  -846.035610530     A.U. after    8 cycles
 SCF Done:  E(RB3LYP) =  -846.035610615     A.U. after    7 cycles
 SCF Done:  E(RB3LYP) =  -846.035610625     A.U. after    6 cycles
 Optimization completed.
    -- Stationary point found.
 Normal termination of Gaussian 16 at Sun Dec 13 20:48:14 2020.

 --------------------------------------------------------------------
 #N Geom=AllCheck Guess=TCheck SCRF=Check GenChk RB3LYP/6-31G(d) Freq
 --------------------------------------------------------------------

 Structure from the checkpoint file:  "JID_10724.chk"
 -------------------------------
 CID_85795735_JID_10724_neutraal
 -------------------------------
 Charge =  0 Multiplicity = 1

 SCF Done:  E(RB3LYP) =  -846.035610625     A.U. after    1 cycles

  Exact polarizability: 279.112  19.748 173.872 -40.414  -0.677 127.893
 Approx polarizability: 389.359  26.667 313.193 -88.506   0.404 226.569

                      1                      2                      3
                      A                      A                      A
 Frequencies --     12.1048                36.4716                48.7716
 Red. masses --      4.6409                 4.1226                 3.6994
 Frc consts  --      0.0004                 0.0032                 0.0052
 IR Inten    --      0.0582                 0.1120                 0.1992

                      4                      5                      6
                      A                      A                      A
 Frequencies --     74.2423                88.4256               118.8934
 Red. masses --      3.5601                 4.3435                 4.6022
 Frc consts  --      0.0116                 0.0200                 0.0383
 IR Inten    --      0.2829                 0.1783                 0.8412

                      7                      8                      9
                      A                      A                      A
 Frequencies --    133.4355               189.1576               219.0627
 Red. masses --      4.4394                 4.2554                 5.5739
 Frc consts  --      0.0466                 0.0897                 0.1576
 IR Inten    --      0.6532                 0.4766                 1.3422

                     10                     11                     12
                      A                      A                      A
 Frequencies --    239.6372               286.4526               305.7915
 Red. masses --      1.0437                 5.0127                 4.6689
 Frc consts  --      0.0353                 0.2423                 0.2572
 IR Inten    --      0.5634                 0.8255                 0.2088

                     13                     14                     15
                      A                      A                      A
 Frequencies --    309.4136               366.2824               392.7003
 Red. masses --      2.8356                 3.3147                 5.9588
 Frc consts  --      0.1599                 0.2620                 0.5414
 IR Inten    --      2.0294                 2.5731                 1.4503

                     16                     17                     18
                      A                      A                      A
 Frequencies --    401.1119               425.9779               435.5798
 Red. masses --      4.8688                 3.2281                 3.3406
 Frc consts  --      0.4615                 0.3451                 0.3734
 IR Inten    --      2.1399                 4.1438                 2.2753

                     19                     20                     21
                      A                      A                      A
 Frequencies --    443.7253               468.6527               470.1214
 Red. masses --      3.5075                 3.0906                 2.4673
 Frc consts  --      0.4069                 0.3999                 0.3213
 IR Inten    --      0.4229                 0.3322                 1.6573

                     22                     23                     24
                      A                      A                      A
 Frequencies --    514.7941               531.2123               548.6189
 Red. masses --      2.9608                 5.0362                 4.5542
 Frc consts  --      0.4623                 0.8373                 0.8076
 IR Inten    --      0.1258                 3.1253                 1.3513

                     25                     26                     27
                      A                      A                      A
 Frequencies --    575.7089               627.5363               639.6496
 Red. masses --      4.0659                 2.9466                 3.9438
 Frc consts  --      0.7940                 0.6837                 0.9507
 IR Inten    --      0.7338                 5.0361                14.0962

                     28                     29                     30
                      A                      A                      A
 Frequencies --    647.5623               663.0047               705.8603
 Red. masses --      3.1985                 2.6856                 2.0387
 Frc consts  --      0.7902                 0.6955                 0.5985
 IR Inten    --      1.4045                 3.6381                 1.5907

                     31                     32                     33
                      A                      A                      A
 Frequencies --    736.3807               747.0130               753.5396
 Red. masses --      3.9255                 5.3533                 2.2170
 Frc consts  --      1.2541                 1.7601                 0.7417
 IR Inten    --      0.9731                 8.5249                 3.0785

                     34                     35                     36
                      A                      A                      A
 Frequencies --    758.7259               768.4251               799.5215
 Red. masses --      2.5280                 1.8966                 1.3231
 Frc consts  --      0.8574                 0.6598                 0.4983
 IR Inten    --     21.1975                29.8254                 1.7434

                     37                     38                     39
                      A                      A                      A
 Frequencies --    822.7466               841.3837               866.9771
 Red. masses --      5.3052                 1.5167                 1.4012
 Frc consts  --      2.1158                 0.6326                 0.6205
 IR Inten    --     14.6533                21.1739                 0.3164

                     40                     41                     42
                      A                      A                      A
 Frequencies --    867.4811               884.8883               910.3728
 Red. masses --      6.2842                 1.5416                 5.5070
 Frc consts  --      2.7863                 0.7112                 2.6891
 IR Inten    --     22.6929                11.7765                 4.7683

                     43                     44                     45
                      A                      A                      A
 Frequencies --    931.9412               934.2657               939.5292
 Red. masses --      1.3532                 1.3889                 1.3985
 Frc consts  --      0.6924                 0.7142                 0.7273
 IR Inten    --      1.5465                48.8089                43.1159

                     46                     47                     48
                      A                      A                      A
 Frequencies --    949.2657               952.8708               971.9467
 Red. masses --      1.2932                 2.1852                 1.2348
 Frc consts  --      0.6866                 1.1690                 0.6873
 IR Inten    --      0.0431                 6.0111                 0.0385

                     49                     50                     51
                      A                      A                      A
 Frequencies --    994.1845              1029.2106              1031.9325
 Red. masses --      1.5765                 3.7915                 1.6818
 Frc consts  --      0.9181                 2.3663                 1.0552
 IR Inten    --      1.7357               116.5799                16.7483

                     52                     53                     54
                      A                      A                      A
 Frequencies --   1036.2719              1048.3128              1059.4189
 Red. masses --      2.5554                 1.9341                 1.7007
 Frc consts  --      1.6168                 1.2523                 1.1246
 IR Inten    --      9.2837                 6.5488                 7.5375

                     55                     56                     57
                      A                      A                      A
 Frequencies --   1087.6678              1132.2474              1143.8006
 Red. masses --      1.5044                 1.8432                 1.3607
 Frc consts  --      1.0486                 1.3922                 1.0488
 IR Inten    --      0.4214                16.3771                19.3111

                     58                     59                     60
                      A                      A                      A
 Frequencies --   1183.6566              1196.5434              1220.8132
 Red. masses --      1.2207                 2.0568                 2.2801
 Frc consts  --      1.0077                 1.7350                 2.0021
 IR Inten    --     27.1007               211.8438                12.8186

                     61                     62                     63
                      A                      A                      A
 Frequencies --   1224.9342              1249.3626              1281.3198
 Red. masses --      2.5572                 3.4957                 2.9318
 Frc consts  --      2.2607                 3.2148                 2.8360
 IR Inten    --     33.8919                41.5859                 5.4120

                     64                     65                     66
                      A                      A                      A
 Frequencies --   1301.4822              1310.9503              1335.6363
 Red. masses --      1.5205                 1.2690                 2.0753
 Frc consts  --      1.5175                 1.2850                 2.1813
 IR Inten    --     24.5763                33.0020                 9.1182

                     67                     68                     69
                      A                      A                      A
 Frequencies --   1366.8843              1387.8336              1399.3783
 Red. masses --      6.2193                 2.5978                 4.8324
 Frc consts  --      6.8462                 2.9480                 5.5755
 IR Inten    --      8.4648                 1.4890                 3.0869

                     70                     71                     72
                      A                      A                      A
 Frequencies --   1413.8362              1439.9237              1464.1344
 Red. masses --      1.4698                 1.3160                 1.2936
 Frc consts  --      1.7311                 1.6076                 1.6339
 IR Inten    --     16.5918                 4.8259                 8.5002

                     73                     74                     75
                      A                      A                      A
 Frequencies --   1478.6114              1483.8796              1493.9560
 Red. masses --      2.3793                 1.4033                 2.6583
 Frc consts  --      3.0648                 1.8205                 3.4957
 IR Inten    --      4.6965                10.1448                50.3340

                     76                     77                     78
                      A                      A                      A
 Frequencies --   1513.1140              1517.6606              1528.5733
 Red. masses --      1.0449                 1.5697                 1.8887
 Frc consts  --      1.4095                 2.1302                 2.6001
 IR Inten    --      6.5306                86.1134                63.1244

                     79                     80                     81
                      A                      A                      A
 Frequencies --   1531.9547              1537.4002              1639.7228
 Red. masses --      2.4613                 1.0886                 7.1033
 Frc consts  --      3.4033                 1.5160                11.2526
 IR Inten    --     16.3467                13.6038                 7.9300

                     82                     83                     84
                      A                      A                      A
 Frequencies --   1650.7416              1659.4563              1685.0648
 Red. masses --      6.7043                 6.8483                 3.7717
 Frc consts  --     10.7637                11.1113                 6.3099
 IR Inten    --      7.8753                 5.1836                15.5599

                     85                     86                     87
                      A                      A                      A
 Frequencies --   1690.6002              1717.2510              3043.9466
 Red. masses --      7.6295                 4.9002                 1.0382
 Frc consts  --     12.8478                 8.5140                 5.6679
 IR Inten    --      5.6069                 2.3201                21.0478

                     88                     89                     90
                      A                      A                      A
 Frequencies --   3047.1362              3095.0997              3114.5946
 Red. masses --      1.0643                 1.1003                 1.1004
 Frc consts  --      5.8226                 6.2104                 6.2894
 IR Inten    --     33.1035                20.9147                32.5102

                     91                     92                     93
                      A                      A                      A
 Frequencies --   3135.8382              3177.7703              3179.6967
 Red. masses --      1.1003                 1.0625                 1.0604
 Frc consts  --      6.3750                 6.3216                 6.3169
 IR Inten    --     19.6744                11.9113                 3.8119

                     94                     95                     96
                      A                      A                      A
 Frequencies --   3190.0145              3200.2182              3208.4469
 Red. masses --      1.0858                 1.0902                 1.0912
 Frc consts  --      6.5099                 6.5780                 6.6185
 IR Inten    --      0.6200                10.0389                 6.9509

                     97                     98                     99
                      A                      A                      A
 Frequencies --   3212.4432              3219.2542              3226.4823
 Red. masses --      1.0949                 1.0889                 1.0949
 Frc consts  --      6.6573                 6.6491                 6.7157
 IR Inten    --     27.8363                 2.0055                11.3509

                    100                    101                    102
                      A                      A                      A
 Frequencies --   3233.3293              3258.4664              3268.6398
 Red. masses --      1.0949                 1.1149                 1.1131
 Frc consts  --      6.7441                 6.9742                 7.0066
 IR Inten    --      3.8994                11.6027                 8.7075

 - Thermochemistry -
 -------------------
 Temperature   298.150 Kelvin.  Pressure   1.00000 Atm.
 Atom     1 has atomic number  6 and mass  12.00000

 Molecular mass:   264.11503 amu.
 Principal axes and moments of inertia in atomic units:
                           1         2         3
     Eigenvalues --  1964.03989********************
           X            0.99996   0.00859   0.00327
           Y           -0.00861   0.99993   0.00763
           Z           -0.00321  -0.00766   0.99997
 This molecule is an asymmetric top.
 Rotational symmetry number  1.
 Warning -- assumption of classical behavior for rotation
           may cause significant error
 Rotational temperatures (Kelvin)      0.04410     0.00781     0.00745
 Rotational constants (GHZ):           0.91889     0.16278     0.15519
 Zero-point vibrational energy     769416.1 (Joules/Mol)
                                  183.89487 (Kcal/Mol)
 Warning -- explicit consideration of  25 degrees of freedom as
           vibrations may cause significant error
 Vibrational temperatures:     17.42    52.47    70.17   106.82   127.22
          (Kelvin)            171.06   191.98   272.16   315.18   344.78
                              412.14   439.97   445.18   527.00   565.01
                              577.11   612.89   626.70   638.42   674.29
                              676.40   740.67   764.30   789.34   828.32
                              902.88   920.31   931.70   953.92  1015.58
                             1059.49  1074.79  1084.18  1091.64  1105.59
                             1150.33  1183.75  1210.56  1247.39  1248.11
                             1273.16  1309.82  1340.86  1344.20  1351.77
                             1365.78  1370.97  1398.41  1430.41  1480.80
                             1484.72  1490.96  1508.29  1524.27  1564.91
                             1629.05  1645.67  1703.02  1721.56  1756.48
                             1762.41  1797.55  1843.53  1872.54  1886.17
                             1921.68  1966.64  1996.78  2013.39  2034.20
                             2071.73  2106.56  2127.39  2134.97  2149.47
                             2177.03  2183.58  2199.28  2204.14  2211.98
                             2359.20  2375.05  2387.59  2424.43  2432.40
                             2470.74  4379.56  4384.15  4453.16  4481.21
                             4511.77  4572.10  4574.87  4589.72  4604.40
                             4616.24  4621.99  4631.79  4642.19  4652.04
                             4688.21  4702.84

 Zero-point correction=                           0.293055 (Hartree/Particle)
 Thermal correction to Energy=                    0.309691
 Thermal correction to Enthalpy=                  0.310635
 Thermal correction to Gibbs Free Energy=         0.247028
 Sum of electronic and zero-point Energies=           -845.742555
 Sum of electronic and thermal Energies=              -845.725920
 Sum of electronic and thermal Enthalpies=            -845.724976
 Sum of electronic and thermal Free Energies=         -845.788583

                     E (Thermal)             CV                S
                      KCal/Mol        Cal/Mol-Kelvin    Cal/Mol-Kelvin
 Total                  194.334             66.747            133.872
 Electronic               0.000              0.000              0.000
 Translational            0.889              2.981             42.613
 Rotational               0.889              2.981             33.892
 Vibrational            192.556             60.786             57.367
 Vibration     1          0.593              1.987              7.632
 Vibration     2          0.594              1.982              5.442
 Vibration     3          0.595              1.978              4.867
 Vibration     4          0.599              1.966              4.038
 Vibration     5          0.601              1.957              3.695
 Vibration     6          0.609              1.934              3.118
 Vibration     7          0.613              1.920              2.896
 Vibration     8          0.633              1.855              2.236
 Vibration     9          0.647              1.812              1.967
 Vibration    10          0.657              1.780              1.806
 Vibration    11          0.684              1.699              1.495
 Vibration    12          0.696              1.663              1.385
 Vibration    13          0.699              1.656              1.365
 Vibration    14          0.739              1.542              1.095
 Vibration    15          0.760              1.486              0.990
 Vibration    16          0.767              1.468              0.959
 Vibration    17          0.788              1.414              0.872
 Vibration    18          0.796              1.393              0.841
 Vibration    19          0.803              1.375              0.815
 Vibration    20          0.826              1.320              0.741
 Vibration    21          0.827              1.316              0.737
 Vibration    22          0.870              1.217              0.622
 Vibration    23          0.886              1.181              0.585
 Vibration    24          0.904              1.143              0.547
 Vibration    25          0.932              1.084              0.493

 Optimization completed.
    -- Stationary point found.
 Normal termination of Gaussian 16 at Sun Dec 13 21:04:10 2020.

 ----------------------------------------------------------------------
 # B3LYP/6-311++G(d,p) empiricaldispersion=gd3bj scf=xqc pop=npa geom=c
 heck
 ----------------------------------------------------------------------

 ---------------------------------------
 CID_85795735_JID_10724_Energie_neutraal
 ---------------------------------------
 Structure from the checkpoint file:  "JID_10724.chk"
 Charge =  0 Multiplicity = 1

 SCF Done:  E(RB3LYP) =  -846.253304286     A.U. after   15 cycles
 Normal termination of Gaussian 16 at Sun Dec 13 21:10:17 2020.

 ----------------------------------------------------------------------
 # B3LYP/6-311++G(d,p) empiricaldispersion=gd3bj scf=xqc pop=npa geom=c
 heck
 ----------------------------------------------------------------------

 -------------------------------------
 CID_85795735_JID_10724_Energie_kation
 -------------------------------------
 Structure from the checkpoint file:  "JID_10724.chk"
 Charge =  1 Multiplicity = 2

 SCF Done:  E(UB3LYP) =  -845.969371434     A.U. after   30 cycles
 Normal termination of Gaussian 16 at Sun Dec 13 21:26:43 2020.
 Gaussian 16:  ES64L-G16RevA.03 25-Dec-2016

 ----------------------------------------------------------------------
 # B3LYP/6-311++G(d,p) empiricaldispersion=gd3bj scf=xqc pop=npa geom=c
 heck
 ----------------------------------------------------------------------

 ------------------------------------
 CID_85795735_JID_10724_Energie_anion
 ------------------------------------
 Structure from the checkpoint file:  "JID_10724.chk"
 Charge = -1 Multiplicity = 2

                         Standard orientation:
 ---------------------------------------------------------------------
 Center     Atomic      Atomic             Coordinates (Angstroms)
 Number     Number       Type             X           Y           Z
 ---------------------------------------------------------------------
      1          6           0        5.009389    1.074813    1.377917
      2          6           0        4.381490    0.191261    0.326416
      3          6           0        4.797275    0.254558   -0.950034
      4          6           0        3.304105   -0.727842    0.752147
      5          6           0        2.823292   -0.743626    2.005921
      6          6           0        2.727500   -1.700981   -0.253573
      7          8           0        2.056645   -1.065993   -1.356188
      8          6           0        0.947271   -0.321681   -1.000210
      9          6           0       -0.260406   -0.962448   -0.728858
     10          6           0       -1.367722   -0.174321   -0.403561
     11          6           0       -1.229715    1.226760   -0.365405
     12          6           0       -0.035771    1.877372   -0.637797
     13          6           0        1.062592    1.077215   -0.952784
     14          8           0       -2.419033    1.843239   -0.033148
     15          6           0       -3.335688    0.830778    0.144758
     16          6           0       -4.666890    1.007877    0.490945
     17          6           0       -5.439353   -0.147648    0.624599
     18          6           0       -4.888891   -1.423044    0.417257
     19          6           0       -3.548173   -1.579107    0.070047
     20          6           0       -2.755700   -0.435716   -0.069147
     21          1           0        5.804789    1.688198    0.946475
     22          1           0        5.438427    0.483664    2.196163
     23          1           0        4.267034    1.748522    1.823759
     24          1           0        4.341249   -0.327852   -1.741537
     25          1           0        5.600732    0.926514   -1.238608
     26          1           0        2.023407   -1.421553    2.288522
     27          1           0        3.194949   -0.089288    2.786834
     28          1           0        3.517642   -2.294504   -0.722294
     29          1           0        2.035378   -2.384928    0.253371
     30          1           0       -0.325272   -2.044566   -0.784948
     31          1           0        0.036568    2.958857   -0.601515
     32          1           0        2.030160    1.518061   -1.164250
     33          1           0       -5.079139    1.998683    0.647559
     34          1           0       -6.487309   -0.055677    0.894070
     35          1           0       -5.519608   -2.299818    0.529279
     36          1           0       -3.127521   -2.567598   -0.090027
 ---------------------------------------------------------------------

 SCF Done:  E(UB3LYP) =  -846.259331150     A.U. after   26 cycles

 The electronic state is 2-A.
 Alpha  occ. eigenvalues --  -19.06269 -19.01406 -10.11468 -10.10711 -10.10706
 Alpha  occ. eigenvalues --  -10.09903 -10.06129 -10.06124 -10.06011 -10.05993
 Alpha  occ. eigenvalues --  -10.05883 -10.05823 -10.05659 -10.05504 -10.05479
 Alpha  occ. eigenvalues --  -10.05185 -10.04732 -10.04147 -10.03789 -10.03378
 Alpha  occ. eigenvalues --   -0.98666  -0.92972  -0.74356  -0.73272  -0.70925
 Alpha  occ. eigenvalues --   -0.66542  -0.64619  -0.63771  -0.61567  -0.60707
 Alpha  occ. eigenvalues --   -0.58092  -0.55730  -0.52810  -0.49572  -0.47814
 Alpha  occ. eigenvalues --   -0.47110  -0.46777  -0.41850  -0.40971  -0.39804
 Alpha  occ. eigenvalues --   -0.37867  -0.36988  -0.35573  -0.34554  -0.34235
 Alpha  occ. eigenvalues --   -0.33813  -0.33182  -0.32482  -0.31827  -0.31092
 Alpha  occ. eigenvalues --   -0.30760  -0.30094  -0.28519  -0.28196  -0.27364
 Alpha  occ. eigenvalues --   -0.25884  -0.25638  -0.24683  -0.24120  -0.23622
 Alpha  occ. eigenvalues --   -0.23173  -0.22211  -0.21268  -0.18633  -0.17117
 Alpha  occ. eigenvalues --   -0.15632  -0.14196  -0.12071  -0.11030  -0.10265
 Alpha  occ. eigenvalues --    0.04004
 Alpha virt. eigenvalues --    0.06355   0.07538   0.07728   0.08889   0.09320
 Alpha virt. eigenvalues --    0.09406   0.10073   0.10633   0.10709   0.11234
 Alpha virt. eigenvalues --    0.11418   0.11814   0.12210   0.12631   0.13230

  Beta  occ. eigenvalues --  -19.06258 -19.01404 -10.11483 -10.10725 -10.10713
  Beta  occ. eigenvalues --  -10.09963 -10.06187 -10.06083 -10.06013 -10.05910
  Beta  occ. eigenvalues --  -10.05815 -10.05664 -10.05487 -10.05430 -10.05419
  Beta  occ. eigenvalues --  -10.05110 -10.04586 -10.03981 -10.03589 -10.03213
  Beta  occ. eigenvalues --   -0.98645  -0.92972  -0.74149  -0.73093  -0.70704
  Beta  occ. eigenvalues --   -0.66254  -0.64485  -0.63574  -0.61362  -0.60438
  Beta  occ. eigenvalues --   -0.57892  -0.55580  -0.52487  -0.49476  -0.47468
  Beta  occ. eigenvalues --   -0.46972  -0.46545  -0.41742  -0.40836  -0.39697
  Beta  occ. eigenvalues --   -0.37757  -0.36898  -0.35504  -0.34419  -0.34068
  Beta  occ. eigenvalues --   -0.33688  -0.33109  -0.32384  -0.31728  -0.31014
  Beta  occ. eigenvalues --   -0.30655  -0.30028  -0.28429  -0.28117  -0.27271
  Beta  occ. eigenvalues --   -0.25797  -0.25548  -0.24250  -0.23903  -0.23430
  Beta  occ. eigenvalues --   -0.23018  -0.22088  -0.21070  -0.17964  -0.16252
  Beta  occ. eigenvalues --   -0.15482  -0.13642  -0.10961  -0.10397  -0.09614
  Beta virt. eigenvalues --    0.07369   0.07536   0.07805   0.08203   0.08883
  Beta virt. eigenvalues --    0.09260   0.09338   0.10217   0.10623   0.10929
  Beta virt. eigenvalues --    0.11189   0.11374   0.11878   0.12226   0.12690

 Mulliken charges and spin densities:
               1          2
     1  C   -0.541682  -0.035062
     2  C    0.230118   0.010330
     3  C   -0.914682   0.192722
     4  C    1.507616   0.005841
     5  C   -0.947727   0.283135
     6  C   -0.760765  -0.111810
     7  O   -0.062490   0.008065
     8  C   -0.261853  -0.040975
     9  C   -0.325657   0.154572
    10  C    1.044789   0.010556
    11  C   -0.427195  -0.022386
    12  C   -0.613670   0.063959
    13  C    0.000947   0.115806
    14  O   -0.103963   0.005426
    15  C   -0.203119  -0.012598
    16  C   -0.665782   0.059364
    17  C   -0.351878   0.129002
    18  C   -0.190212  -0.045749
    19  C   -0.533859   0.170434
    20  C    1.169411   0.009636
    21  H    0.122472  -0.000096
    22  H    0.097273   0.040905
    23  H    0.142008   0.001478
    24  H    0.165508  -0.001075
    25  H    0.088375  -0.006930
    26  H    0.107238  -0.009116
    27  H    0.126857  -0.008980
    28  H    0.085271   0.066443
    29  H    0.114194  -0.009779
    30  H    0.115649  -0.004762
    31  H    0.148496   0.000841
    32  H    0.163965   0.004133
    33  H    0.139374  -0.005907
    34  H    0.115562  -0.009901
    35  H    0.128777   0.003203
    36  H    0.090634  -0.010728
 Sum of Mulliken charges =  -1.00000   1.00000

 Dipole moment (field-independent basis, Debye):
    X=             -0.9576    Y=              0.0891    Z=              0.7177  Tot=              1.2000
 Quadrupole moment (field-independent basis, Debye-Ang):
   XX=           -188.7088   YY=           -127.5107   ZZ=           -137.7896
   XY=              4.7752   XZ=              0.6910   YZ=              0.9732

 Summary of Natural Population Analysis:

                                       Natural Population
                Natural  -----------------------------------------------
    Atom  No    Charge         Core      Valence    Rydberg      Total
 -----------------------------------------------------------------------
      C    1   -0.29586      0.99964     2.29074    0.00549     3.29586
      C    2   -0.02131      0.99949     2.01182    0.01001     3.02131
      C    3   -0.16247      0.99953     2.15372    0.00922     3.16247
      C    4   -0.05568      0.99949     2.03979    0.01639     3.05568
      C    5   -0.14132      0.99954     2.13343    0.00836     3.14132
      C    6    0.02780      0.99952     1.95410    0.01858     2.97220
      O    7   -0.32142      0.99988     3.29607    0.02547     4.32142
      C    8    0.18836      0.99941     1.79258    0.01964     2.81164
      C    9   -0.06647      0.99959     2.05042    0.01647     3.06647
      C   10    0.00157      0.99952     1.98133    0.01758     2.99843
      C   11    0.13635      0.99940     1.84539    0.01886     2.86365
      C   12   -0.11408      0.99952     2.10532    0.00923     3.11408
      C   13   -0.10578      0.99958     2.08576    0.02044     3.10578
      O   14   -0.24961      0.99985     3.24172    0.00804     4.24961
      C   15    0.15758      0.99935     1.82775    0.01532     2.84242
      C   16   -0.12282      0.99954     2.11325    0.01003     3.12282
      C   17   -0.06996      0.99945     2.05993    0.01058     3.06996
      C   18   -0.13446      0.99961     2.12447    0.01038     3.13446
      C   19   -0.06257      0.99954     2.05414    0.00889     3.06257
      C   20   -0.06220      0.99951     2.04560    0.01709     3.06220
      H   21    0.09674      0.00000     0.40236    0.00090     0.40326
      H   22    0.09816      0.00000     0.40026    0.00158     0.40184
      H   23    0.10129      0.00000     0.39764    0.00107     0.39871
      H   24    0.09764      0.00000     0.40073    0.00163     0.40236
      H   25    0.08271      0.00000     0.41608    0.00121     0.41729
      H   26    0.09179      0.00000     0.40727    0.00093     0.40821
      H   27    0.08704      0.00000     0.41186    0.00111     0.41296
      H   28    0.08742      0.00000     0.41031    0.00226     0.41258
      H   29    0.07932      0.00000     0.41896    0.00171     0.42068
      H   30    0.09386      0.00000     0.40393    0.00221     0.40614
      H   31    0.09931      0.00000     0.39906    0.00163     0.40069
      H   32    0.10481      0.00000     0.39265    0.00254     0.39519
      H   33    0.09949      0.00000     0.39901    0.00150     0.40051
      H   34    0.09230      0.00000     0.40703    0.00066     0.40770
      H   35    0.09332      0.00000     0.40562    0.00106     0.40668
      H   36    0.09499      0.00000     0.40344    0.00157     0.40501
 =======================================================================
   * Total *    0.02588     19.99096    49.68356    0.29960    69.97412

 Normal termination of Gaussian 16 at Sun Dec 13 21:40:56 2020.
