 Gaussian 16, Revision A.03,

 -----------------------------------------------------------
 # opt freq B3LYP/6-31G(d) empiricaldispersion=gd3bj scf=xqc
 -----------------------------------------------------------

 ------------------------------
 CID_17851278_JID_5039_neutraal
 ------------------------------
 Symbolic Z-matrix:
 Charge =  0 Multiplicity = 1

 SCF Done:  E(RB3LYP) =  -649.269059459     A.U. after   15 cycles
 SCF Done:  E(RB3LYP) =  -649.277423895     A.U. after   13 cycles
 SCF Done:  E(RB3LYP) =  -649.279510634     A.U. after   13 cycles
 SCF Done:  E(RB3LYP) =  -649.280219748     A.U. after   12 cycles
 SCF Done:  E(RB3LYP) =  -649.280503475     A.U. after   12 cycles
 SCF Done:  E(RB3LYP) =  -649.280699839     A.U. after   11 cycles
 SCF Done:  E(RB3LYP) =  -649.280728807     A.U. after   10 cycles
 SCF Done:  E(RB3LYP) =  -649.280742915     A.U. after   10 cycles
 SCF Done:  E(RB3LYP) =  -649.280752461     A.U. after   10 cycles
 SCF Done:  E(RB3LYP) =  -649.280754823     A.U. after    9 cycles
 SCF Done:  E(RB3LYP) =  -649.280755003     A.U. after    8 cycles
 Optimization completed.
    -- Stationary point found.
 Normal termination of Gaussian 16 at Thu Dec 10 14:42:43 2020.

 --------------------------------------------------------------------
 #N Geom=AllCheck Guess=TCheck SCRF=Check GenChk RB3LYP/6-31G(d) Freq
 --------------------------------------------------------------------

 Structure from the checkpoint file:  "JID_5039.chk"
 ------------------------------
 CID_17851278_JID_5039_neutraal
 ------------------------------
 Charge =  0 Multiplicity = 1

 SCF Done:  E(RB3LYP) =  -649.280755003     A.U. after    1 cycles

  Exact polarizability: 213.758   4.297 139.597   5.593   1.297  74.901
 Approx polarizability: 296.365  17.058 254.146  15.553   8.988 122.227

                      1                      2                      3
                      A                      A                      A
 Frequencies --     42.5292                70.6045                81.4709
 Red. masses --      5.4144                 3.4787                 3.8730
 Frc consts  --      0.0058                 0.0102                 0.0151
 IR Inten    --      3.9334                 0.9575                 1.9099

                      4                      5                      6
                      A                      A                      A
 Frequencies --    114.4711               157.7041               187.2493
 Red. masses --      4.3679                 4.6718                 1.4510
 Frc consts  --      0.0337                 0.0685                 0.0300
 IR Inten    --      4.3791                 1.5132                 0.3421

                      7                      8                      9
                      A                      A                      A
 Frequencies --    237.9549               254.4863               268.2920
 Red. masses --      2.9820                 2.1132                 4.4790
 Frc consts  --      0.0995                 0.0806                 0.1900
 IR Inten    --      4.5203                 0.5443                 5.5525

                     10                     11                     12
                      A                      A                      A
 Frequencies --    305.6276               334.7642               384.1903
 Red. masses --      5.2251                 3.9118                 1.6655
 Frc consts  --      0.2876                 0.2583                 0.1448
 IR Inten    --      2.7987                13.6744                85.9003

                     13                     14                     15
                      A                      A                      A
 Frequencies --    431.8763               469.4562               486.1903
 Red. masses --      3.2188                 3.2021                 5.0918
 Frc consts  --      0.3537                 0.4158                 0.7091
 IR Inten    --     27.0071                 1.8741                 7.7610

                     16                     17                     18
                      A                      A                      A
 Frequencies --    528.1389               544.3802               568.9896
 Red. masses --      2.8357                 5.7984                 6.8274
 Frc consts  --      0.4660                 1.0124                 1.3023
 IR Inten    --      8.5721                 2.4339                 5.8512

                     19                     20                     21
                      A                      A                      A
 Frequencies --    609.1899               627.4037               641.1234
 Red. masses --      3.5461                 5.4677                 4.5923
 Frc consts  --      0.7754                 1.2681                 1.1122
 IR Inten    --      6.1322                 8.7009                 8.7454

                     22                     23                     24
                      A                      A                      A
 Frequencies --    700.5896               723.1776               736.1958
 Red. masses --      2.4354                 4.2838                 3.0786
 Frc consts  --      0.7043                 1.3200                 0.9831
 IR Inten    --     14.3744                 0.9437                 2.9276

                     25                     26                     27
                      A                      A                      A
 Frequencies --    759.6777               781.1356               836.8950
 Red. masses --      1.3952                 1.4230                 3.6775
 Frc consts  --      0.4744                 0.5116                 1.5175
 IR Inten    --     48.7894                21.9381                 1.5362

                     28                     29                     30
                      A                      A                      A
 Frequencies --    851.6767               853.1248               864.9235
 Red. masses --      1.8436                 1.6687                 1.5011
 Frc consts  --      0.7879                 0.7156                 0.6616
 IR Inten    --     16.4516                14.2375                 3.6303

                     31                     32                     33
                      A                      A                      A
 Frequencies --    900.9652               940.3042               956.2352
 Red. masses --      4.6208                 1.2763                 1.2457
 Frc consts  --      2.2100                 0.6648                 0.6711
 IR Inten    --     19.4577                 1.3149                 0.1892

                     34                     35                     36
                      A                      A                      A
 Frequencies --   1000.2974              1014.3618              1040.5357
 Red. masses --      1.2774                 5.8040                 3.0274
 Frc consts  --      0.7531                 3.5186                 1.9313
 IR Inten    --      0.1606                 8.6365                 2.8743

                     37                     38                     39
                      A                      A                      A
 Frequencies --   1044.3186              1103.1376              1129.6529
 Red. masses --      3.3297                 1.8368                 1.6837
 Frc consts  --      2.1396                 1.3170                 1.2659
 IR Inten    --      2.8739                11.9184                 1.3810

                     40                     41                     42
                      A                      A                      A
 Frequencies --   1153.2567              1163.0568              1164.0724
 Red. masses --      1.7663                 1.3636                 1.3773
 Frc consts  --      1.3841                 1.0868                 1.0996
 IR Inten    --     18.2087                 9.3843                 9.1445

                     43                     44                     45
                      A                      A                      A
 Frequencies --   1196.9011              1209.1471              1220.3346
 Red. masses --      1.6006                 1.1668                 1.6580
 Frc consts  --      1.3510                 1.0051                 1.4548
 IR Inten    --      4.9182                16.6145                10.8944

                     46                     47                     48
                      A                      A                      A
 Frequencies --   1257.0130              1318.6809              1329.1465
 Red. masses --      2.2511                 1.7680                 2.4602
 Frc consts  --      2.0956                 1.8114                 2.5608
 IR Inten    --     38.6061               137.8284                32.2841

                     49                     50                     51
                      A                      A                      A
 Frequencies --   1365.0827              1386.1087              1425.3274
 Red. masses --      1.7582                 4.4422                 1.8407
 Frc consts  --      1.9304                 5.0286                 2.2033
 IR Inten    --     25.5324                35.8224                 5.9943

                     52                     53                     54
                      A                      A                      A
 Frequencies --   1462.2759              1490.8412              1504.4128
 Red. masses --      2.0829                 1.2113                 2.1132
 Frc consts  --      2.6241                 1.5862                 2.8178
 IR Inten    --     19.0675                15.1705                12.2347

                     55                     56                     57
                      A                      A                      A
 Frequencies --   1512.6258              1548.5143              1551.9695
 Red. masses --      1.0675                 1.3544                 2.0012
 Frc consts  --      1.4391                 1.9136                 2.8399
 IR Inten    --      9.9958                 5.3302                83.6703

                     58                     59                     60
                      A                      A                      A
 Frequencies --   1568.3907              1593.3250              1645.2381
 Red. masses --      1.7439                 6.2093                 4.9622
 Frc consts  --      2.5275                 9.2876                 7.9137
 IR Inten    --     92.6465               133.7417                24.8083

                     61                     62                     63
                      A                      A                      A
 Frequencies --   1669.9668              1685.7350              1775.1028
 Red. masses --      5.7451                 5.7157                10.2834
 Frc consts  --      9.4399                 9.5697                19.0912
 IR Inten    --    190.6727                83.5670               374.4781

                     64                     65                     66
                      A                      A                      A
 Frequencies --   2997.2048              3075.5841              3142.0527
 Red. masses --      1.0535                 1.0866                 1.0984
 Frc consts  --      5.5758                 6.0560                 6.3893
 IR Inten    --     89.5013                41.4092                23.1479

                     67                     68                     69
                      A                      A                      A
 Frequencies --   3190.9074              3191.5924              3215.4686
 Red. masses --      1.0890                 1.0873                 1.0919
 Frc consts  --      6.5328                 6.5253                 6.6518
 IR Inten    --     19.4545                11.8447                11.1848

                     70                     71                     72
                      A                      A                      A
 Frequencies --   3224.6558              3229.6952              3232.9779
 Red. masses --      1.0932                 1.0881                 1.0937
 Frc consts  --      6.6973                 6.6871                 6.7354
 IR Inten    --     14.1026                 1.2240                 6.4489

                     73                     74                     75
                      A                      A                      A
 Frequencies --   3234.7685              3246.4074              3618.7759
 Red. masses --      1.0913                 1.0981                 1.0765
 Frc consts  --      6.7277                 6.8184                 8.3056
 IR Inten    --      1.7564                 6.2197                18.5336

 - Thermochemistry -
 -------------------
 Temperature   298.150 Kelvin.  Pressure   1.00000 Atm.
 Atom     1 has atomic number  6 and mass  12.00000

 Molecular mass:   200.09496 amu.
 Principal axes and moments of inertia in atomic units:
                           1         2         3
     Eigenvalues --  1238.877335298.000116075.12089
           X            0.99997   0.00784  -0.00161
           Y           -0.00787   0.99976  -0.02033
           Z            0.00145   0.02035   0.99979
 This molecule is an asymmetric top.
 Rotational symmetry number  1.
 Warning -- assumption of classical behavior for rotation
           may cause significant error
 Rotational temperatures (Kelvin)      0.06991     0.01635     0.01426
 Rotational constants (GHZ):           1.45676     0.34065     0.29707
 Zero-point vibrational energy     576479.9 (Joules/Mol)
                                  137.78200 (Kcal/Mol)
 Warning -- explicit consideration of  19 degrees of freedom as
           vibrations may cause significant error
 Vibrational temperatures:     61.19   101.58   117.22   164.70   226.90
          (Kelvin)            269.41   342.36   366.15   386.01   439.73
                              481.65   552.76   621.37   675.44   699.52
                              759.87   783.24   818.65   876.49   902.69
                              922.43  1007.99  1040.49  1059.22  1093.01
                             1123.88  1204.11  1225.37  1227.46  1244.43
                             1296.29  1352.89  1375.81  1439.20  1459.44
                             1497.10  1502.54  1587.17  1625.32  1659.28
                             1673.38  1674.84  1722.07  1739.69  1755.79
                             1808.56  1897.29  1912.35  1964.05  1994.30
                             2050.73  2103.89  2144.99  2164.51  2176.33
                             2227.97  2232.94  2256.56  2292.44  2367.13
                             2402.71  2425.40  2553.98  4312.31  4425.08
                             4520.71  4591.00  4591.99  4626.34  4639.56
                             4646.81  4651.53  4654.11  4670.86  5206.61

 Zero-point correction=                           0.219570 (Hartree/Particle)
 Thermal correction to Energy=                    0.232355
 Thermal correction to Enthalpy=                  0.233299
 Thermal correction to Gibbs Free Energy=         0.179963
 Sum of electronic and zero-point Energies=           -649.061185
 Sum of electronic and thermal Energies=              -649.048400
 Sum of electronic and thermal Enthalpies=            -649.047456
 Sum of electronic and thermal Free Energies=         -649.100792

                     E (Thermal)             CV                S
                      KCal/Mol        Cal/Mol-Kelvin    Cal/Mol-Kelvin
 Total                  145.805             50.105            112.255
 Electronic               0.000              0.000              0.000
 Translational            0.889              2.981             41.786
 Rotational               0.889              2.981             32.056
 Vibrational            144.027             44.143             38.414
 Vibration     1          0.595              1.980              5.138
 Vibration     2          0.598              1.968              4.136
 Vibration     3          0.600              1.962              3.855
 Vibration     4          0.607              1.937              3.192
 Vibration     5          0.621              1.894              2.577
 Vibration     6          0.632              1.857              2.255
 Vibration     7          0.656              1.783              1.818
 Vibration     8          0.665              1.755              1.699
 Vibration     9          0.673              1.731              1.607
 Vibration    10          0.696              1.663              1.386
 Vibration    11          0.716              1.606              1.237
 Vibration    12          0.753              1.504              1.023
 Vibration    13          0.793              1.401              0.853
 Vibration    14          0.827              1.318              0.739
 Vibration    15          0.842              1.281              0.694
 Vibration    16          0.883              1.188              0.591
 Vibration    17          0.900              1.152              0.556
 Vibration    18          0.925              1.098              0.506
 Vibration    19          0.968              1.012              0.434

 Optimization completed.
    -- Stationary point found.
 Normal termination of Gaussian 16 at Thu Dec 10 14:49:54 2020.

 ----------------------------------------------------------------------
 # B3LYP/6-311++G(d,p) empiricaldispersion=gd3bj scf=xqc pop=npa geom=c
 heck
 ----------------------------------------------------------------------

 --------------------------------------
 CID_17851278_JID_5039_Energie_neutraal
 --------------------------------------
 Structure from the checkpoint file:  "JID_5039.chk"
 Charge =  0 Multiplicity = 1

 SCF Done:  E(RB3LYP) =  -649.458270556     A.U. after   16 cycles
 Normal termination of Gaussian 16 at Thu Dec 10 14:52:46 2020.

 ----------------------------------------------------------------------
 # B3LYP/6-311++G(d,p) empiricaldispersion=gd3bj scf=xqc pop=npa geom=c
 heck
 ----------------------------------------------------------------------

 ------------------------------------
 CID_17851278_JID_5039_Energie_kation
 ------------------------------------
 Structure from the checkpoint file:  "JID_5039.chk"
 Charge =  1 Multiplicity = 2

 SCF Done:  E(UB3LYP) =  -649.188633762     A.U. after   27 cycles
 Normal termination of Gaussian 16 at Thu Dec 10 14:59:19 2020.
 Gaussian 16:  ES64L-G16RevA.03 25-Dec-2016

 ----------------------------------------------------------------------
 # B3LYP/6-311++G(d,p) empiricaldispersion=gd3bj scf=xqc pop=npa geom=c
 heck
 ----------------------------------------------------------------------

 -----------------------------------
 CID_17851278_JID_5039_Energie_anion
 -----------------------------------
 Structure from the checkpoint file:  "JID_5039.chk"
 Charge = -1 Multiplicity = 2

                         Standard orientation:
 ---------------------------------------------------------------------
 Center     Atomic      Atomic             Coordinates (Angstroms)
 Number     Number       Type             X           Y           Z
 ---------------------------------------------------------------------
      1          6           0       -4.676597   -0.864504    0.586278
      2          7           0       -3.275070   -1.174319    0.398920
      3          6           0       -2.341792   -0.198279    0.093787
      4          6           0       -0.972624   -0.490560    0.232107
      5          6           0       -0.017390    0.457447   -0.110753
      6          6           0       -0.390880    1.715042   -0.599667
      7          6           0       -1.746843    2.008476   -0.716929
      8          6           0       -2.720908    1.075105   -0.371251
      9          7           0        1.380032    0.169570    0.067760
     10          6           0        2.157680    1.105009    0.704510
     11          6           0        3.502782    0.953719    0.855909
     12          6           0        4.113188   -0.218733    0.329890
     13          6           0        3.360484   -1.168623   -0.294357
     14          6           0        1.924932   -1.049570   -0.456755
     15          8           0        1.206127   -1.887551   -0.990589
     16          1           0       -5.130090   -0.537585   -0.356883
     17          1           0       -4.850012   -0.077373    1.337991
     18          1           0       -5.195966   -1.771174    0.905317
     19          1           0       -2.919149   -1.942352    0.949264
     20          1           0       -0.658723   -1.467026    0.579435
     21          1           0        0.365503    2.431382   -0.901355
     22          1           0       -2.053242    2.981041   -1.091597
     23          1           0       -3.769392    1.328996   -0.476399
     24          1           0        1.617195    1.960430    1.090711
     25          1           0        4.076445    1.711168    1.375708
     26          1           0        5.186319   -0.357854    0.433265
     27          1           0        3.795173   -2.073167   -0.704119
 ---------------------------------------------------------------------

 SCF Done:  E(UB3LYP) =  -649.458572187     A.U. after   33 cycles
 SCF Done:  E(UB3LYP) =  -649.458572187     a.u. after    1 cycles

 The electronic state is 2-A.
 Alpha  occ. eigenvalues --  -18.93869 -14.23015 -14.21758 -10.12688 -10.10081
 Alpha  occ. eigenvalues --  -10.09998 -10.09091 -10.07415 -10.06211 -10.05058
 Alpha  occ. eigenvalues --  -10.05046 -10.04661 -10.04073 -10.04006 -10.02359
 Alpha  occ. eigenvalues --   -0.89728  -0.83171  -0.82603  -0.73012  -0.68273
 Alpha  occ. eigenvalues --   -0.63892  -0.62145  -0.61073  -0.57767  -0.51887
 Alpha  occ. eigenvalues --   -0.51299  -0.48569  -0.46273  -0.42855  -0.39799
 Alpha  occ. eigenvalues --   -0.38097  -0.37074  -0.35749  -0.34296  -0.34227
 Alpha  occ. eigenvalues --   -0.32719  -0.32221  -0.31129  -0.29194  -0.29039
 Alpha  occ. eigenvalues --   -0.28726  -0.26490  -0.25614  -0.25015  -0.24311
 Alpha  occ. eigenvalues --   -0.23327  -0.20893  -0.19444  -0.17393  -0.13400
 Alpha  occ. eigenvalues --   -0.11842  -0.09275  -0.08393   0.04412
 Alpha virt. eigenvalues --    0.05849   0.07998   0.08384   0.09141   0.09995
 Alpha virt. eigenvalues --    0.10033   0.10277   0.10956   0.11529   0.11677
 Alpha virt. eigenvalues --    0.12277   0.12839   0.13778   0.13960   0.14502

  Beta  occ. eigenvalues --  -18.93799 -14.22855 -14.21752 -10.12652 -10.10102
  Beta  occ. eigenvalues --  -10.09965 -10.09031 -10.07100 -10.06207 -10.05044
  Beta  occ. eigenvalues --  -10.04958 -10.04598 -10.04112 -10.03793 -10.02210
  Beta  occ. eigenvalues --   -0.89537  -0.83096  -0.82329  -0.72887  -0.67921
  Beta  occ. eigenvalues --   -0.63807  -0.61891  -0.60713  -0.57684  -0.51530
  Beta  occ. eigenvalues --   -0.51053  -0.48456  -0.46012  -0.42747  -0.39705
  Beta  occ. eigenvalues --   -0.37996  -0.36899  -0.35602  -0.34231  -0.34045
  Beta  occ. eigenvalues --   -0.32526  -0.32017  -0.31037  -0.29134  -0.28806
  Beta  occ. eigenvalues --   -0.28336  -0.26352  -0.25432  -0.24880  -0.24210
  Beta  occ. eigenvalues --   -0.23187  -0.20150  -0.19170  -0.16414  -0.12687
  Beta  occ. eigenvalues --   -0.11589  -0.09042  -0.07559
  Beta virt. eigenvalues --    0.06653   0.08049   0.08368   0.08937   0.09226
  Beta virt. eigenvalues --    0.09971   0.10315   0.10776   0.11148   0.11534
  Beta virt. eigenvalues --    0.12238   0.12416   0.12832   0.13903   0.14357

 Mulliken charges and spin densities:
               1          2
     1  C    0.632411  -1.013090
     2  N   -0.211264   0.105565
     3  C   -0.357091   0.106494
     4  C   -0.622435   0.314051
     5  C   -0.647744   0.009568
     6  C    0.479510  -0.216566
     7  C   -0.292307  -0.033585
     8  C    0.589416  -0.151253
     9  N    0.406606   0.041580
    10  C   -0.328499   0.207230
    11  C   -0.042722  -0.010966
    12  C   -0.578795   0.139553
    13  C    0.061083   0.162099
    14  C   -0.170090   0.018633
    15  O   -0.366996   0.023832
    16  H   -0.111098   0.257019
    17  H   -0.044816   0.187889
    18  H   -0.573069   0.717167
    19  H    0.153624   0.087258
    20  H    0.173291   0.017235
    21  H    0.167025  -0.005643
    22  H    0.109987   0.026314
    23  H    0.121175  -0.004794
    24  H    0.078516   0.017752
    25  H    0.115498   0.023093
    26  H    0.107847  -0.018214
    27  H    0.150937  -0.008219
 Sum of Mulliken charges =  -1.00000   1.00000

 Dipole moment (field-independent basis, Debye):
    X=              0.9469    Y=              3.9950    Z=              0.8036  Tot=              4.1836
 Quadrupole moment (field-independent basis, Debye-Ang):
   XX=           -153.2142   YY=           -109.6140   ZZ=           -107.7119
   XY=             -5.2982   XZ=              5.9345   YZ=             -3.8868

 Summary of Natural Population Analysis:

                                       Natural Population
                Natural  -----------------------------------------------
    Atom  No    Charge         Core      Valence    Rydberg      Total
 -----------------------------------------------------------------------
      C    1   -0.17883      0.99966     2.17065    0.00853     3.17883
      N    2   -0.31186      0.99968     2.80145    0.01074     3.81186
      C    3    0.08783      0.99950     1.90127    0.01140     2.91217
      C    4   -0.10326      0.99948     2.09456    0.00922     3.10326
      C    5    0.10056      0.99947     1.88741    0.01256     2.89944
      C    6   -0.12947      0.99945     2.12004    0.00998     3.12947
      C    7   -0.09629      0.99959     2.08769    0.00901     3.09629
      C    8   -0.13012      0.99953     2.12085    0.00974     3.13012
      N    9   -0.20927      0.99960     2.69946    0.01021     3.70927
      C   10    0.09083      0.99956     1.89943    0.01018     2.90917
      C   11   -0.17946      0.99957     2.17004    0.00985     3.17946
      C   12   -0.03608      0.99957     2.02700    0.00951     3.03608
      C   13   -0.13356      0.99953     2.12431    0.00973     3.13356
      C   14    0.32041      0.99962     1.65775    0.02223     2.67959
      O   15   -0.33144      0.99988     3.32571    0.00585     4.33144
      H   16    0.09147      0.00000     0.40715    0.00138     0.40853
      H   17    0.08511      0.00000     0.41327    0.00162     0.41489
      H   18    0.09914      0.00000     0.39950    0.00136     0.40086
      H   19    0.18497      0.00000     0.31268    0.00235     0.31503
      H   20    0.11004      0.00000     0.38817    0.00179     0.38996
      H   21    0.10198      0.00000     0.39692    0.00110     0.39802
      H   22    0.09431      0.00000     0.40489    0.00079     0.40569
      H   23    0.09762      0.00000     0.40130    0.00107     0.40238
      H   24    0.09281      0.00000     0.40586    0.00132     0.40719
      H   25    0.09746      0.00000     0.40165    0.00089     0.40254
      H   26    0.08776      0.00000     0.41114    0.00110     0.41224
      H   27    0.09735      0.00000     0.40171    0.00095     0.40265
 =======================================================================
   * Total *    0.00001     14.99370    37.83185    0.17444    52.99999

 Normal termination of Gaussian 16 at Thu Dec 10 15:08:06 2020.
