 Gaussian 16, Revision A.03,

 -----------------------------------------------------------
 # opt freq B3LYP/6-31G(d) empiricaldispersion=gd3bj scf=xqc
 -----------------------------------------------------------

 ------------------------------
 CID_80468574_JID_1197_neutraal
 ------------------------------
 Symbolic Z-matrix:
 Charge =  0 Multiplicity = 1

 SCF Done:  E(RB3LYP) =  -446.004920407     A.U. after   12 cycles
 SCF Done:  E(RB3LYP) =  -446.011325704     A.U. after   11 cycles
 SCF Done:  E(RB3LYP) =  -446.012233564     A.U. after   10 cycles
 SCF Done:  E(RB3LYP) =  -446.011715506     A.U. after   10 cycles
 SCF Done:  E(RB3LYP) =  -446.012673533     A.U. after   10 cycles
 SCF Done:  E(RB3LYP) =  -446.012824953     A.U. after   10 cycles
 SCF Done:  E(RB3LYP) =  -446.012951642     A.U. after   11 cycles
 SCF Done:  E(RB3LYP) =  -446.012963507     A.U. after    8 cycles
 SCF Done:  E(RB3LYP) =  -446.012969384     A.U. after    9 cycles
 SCF Done:  E(RB3LYP) =  -446.012970159     A.U. after    7 cycles
 SCF Done:  E(RB3LYP) =  -446.012970337     A.U. after    7 cycles
 Optimization completed.
    -- Stationary point found.
 Normal termination of Gaussian 16 at Tue Dec  8 19:16:05 2020.

 --------------------------------------------------------------------
 #N Geom=AllCheck Guess=TCheck SCRF=Check GenChk RB3LYP/6-31G(d) Freq
 --------------------------------------------------------------------

 Structure from the checkpoint file:  "JID_1197.chk"
 ------------------------------
 CID_80468574_JID_1197_neutraal
 ------------------------------
 Charge =  0 Multiplicity = 1

 SCF Done:  E(RB3LYP) =  -446.012970337     A.U. after    1 cycles

  Exact polarizability: 122.841  -0.883  98.106   1.067   1.450  88.598
 Approx polarizability: 147.694  -1.492 143.853   0.891   1.493 137.720

                      1                      2                      3
                      A                      A                      A
 Frequencies --     38.1616                55.8221                89.8923
 Red. masses --      3.0893                 2.5810                 2.3697
 Frc consts  --      0.0027                 0.0047                 0.0113
 IR Inten    --      0.1167                 0.2029                 0.0911

                      4                      5                      6
                      A                      A                      A
 Frequencies --    103.5568               203.7674               237.1715
 Red. masses --      3.9665                 3.4329                 2.1754
 Frc consts  --      0.0251                 0.0840                 0.0721
 IR Inten    --      0.2434                 0.8043                 3.4798

                      7                      8                      9
                      A                      A                      A
 Frequencies --    283.8573               317.6571               374.1650
 Red. masses --      2.9984                 2.2114                 2.2425
 Frc consts  --      0.1423                 0.1315                 0.1850
 IR Inten    --      0.9202                 0.8150                 1.2084

                     10                     11                     12
                      A                      A                      A
 Frequencies --    397.2442               445.1033               526.0786
 Red. masses --      2.0083                 1.7087                 2.2273
 Frc consts  --      0.1867                 0.1995                 0.3632
 IR Inten    --      7.9301                 0.8249                 1.6142

                     13                     14                     15
                      A                      A                      A
 Frequencies --    669.2182               679.5891               723.3316
 Red. masses --      3.1776                 2.2044                 3.3090
 Frc consts  --      0.8385                 0.5998                 1.0200
 IR Inten    --     16.7175                67.4610                18.2885

                     16                     17                     18
                      A                      A                      A
 Frequencies --    762.2329               778.5292               802.6829
 Red. masses --      1.2754                 2.1995                 1.3977
 Frc consts  --      0.4366                 0.7855                 0.5306
 IR Inten    --     12.1775                 5.4702                18.6461

                     19                     20                     21
                      A                      A                      A
 Frequencies --    814.0821               839.9345               857.3577
 Red. masses --      1.4921                 1.5701                 1.9944
 Frc consts  --      0.5826                 0.6526                 0.8637
 IR Inten    --      6.0958                 2.4431                 4.6004

                     22                     23                     24
                      A                      A                      A
 Frequencies --    871.6087               900.0733               913.2467
 Red. masses --      1.8129                 2.5604                 1.7515
 Frc consts  --      0.8115                 1.2221                 0.8607
 IR Inten    --      0.2298                 1.4841                14.5727

                     25                     26                     27
                      A                      A                      A
 Frequencies --    935.9104               959.3766               967.6293
 Red. masses --      2.2427                 2.6169                 2.1936
 Frc consts  --      1.1574                 1.4191                 1.2101
 IR Inten    --     18.4074                 8.2255                 1.4435

                     28                     29                     30
                      A                      A                      A
 Frequencies --    985.1010              1013.9681              1033.5863
 Red. masses --      1.9362                 1.5392                 2.1363
 Frc consts  --      1.1070                 0.9324                 1.3446
 IR Inten    --      8.0282                 4.2343                 1.8531

                     31                     32                     33
                      A                      A                      A
 Frequencies --   1055.1421              1061.8765              1072.8485
 Red. masses --      1.4749                 1.6084                 1.3863
 Frc consts  --      0.9675                 1.0686                 0.9401
 IR Inten    --      6.9955                 2.3978                 5.5561

                     34                     35                     36
                      A                      A                      A
 Frequencies --   1076.2671              1112.3055              1114.6230
 Red. masses --      1.4281                 1.2473                 1.4673
 Frc consts  --      0.9747                 0.9093                 1.0741
 IR Inten    --      5.3281                 1.5053                 4.5052

                     37                     38                     39
                      A                      A                      A
 Frequencies --   1122.7630              1137.0561              1150.4646
 Red. masses --      1.7202                 1.1992                 2.6355
 Frc consts  --      1.2776                 0.9135                 2.0552
 IR Inten    --      4.7426                 6.4893                24.7840

                     40                     41                     42
                      A                      A                      A
 Frequencies --   1186.7134              1204.6481              1219.9262
 Red. masses --      1.5450                 1.3714                 1.6610
 Frc consts  --      1.2820                 1.1725                 1.4564
 IR Inten    --     14.1241                 2.3036                 1.3971

                     43                     44                     45
                      A                      A                      A
 Frequencies --   1227.5932              1244.9966              1254.2225
 Red. masses --      1.2853                 1.8159                 1.4059
 Frc consts  --      1.1412                 1.6584                 1.3030
 IR Inten    --      1.5214                11.0057                 1.4860

                     46                     47                     48
                      A                      A                      A
 Frequencies --   1272.3348              1314.8874              1322.5199
 Red. masses --      1.6103                 1.5364                 1.3191
 Frc consts  --      1.5359                 1.5651                 1.3594
 IR Inten    --      2.8973                15.7398                 3.8627

                     49                     50                     51
                      A                      A                      A
 Frequencies --   1344.5510              1365.1035              1382.3431
 Red. masses --      1.5243                 1.4599                 1.5238
 Frc consts  --      1.6236                 1.6028                 1.7156
 IR Inten    --      3.1650                 3.2472                 3.0000

                     52                     53                     54
                      A                      A                      A
 Frequencies --   1400.6406              1406.8222              1421.9412
 Red. masses --      1.5034                 1.4866                 1.3208
 Frc consts  --      1.7377                 1.7335                 1.5735
 IR Inten    --     11.5801                 4.0330                 2.7130

                     55                     56                     57
                      A                      A                      A
 Frequencies --   1488.2254              1506.0016              1511.4335
 Red. masses --      1.0928                 1.0873                 1.2264
 Frc consts  --      1.4260                 1.4530                 1.6507
 IR Inten    --      0.8427                 1.6989                 2.0440

                     58                     59                     60
                      A                      A                      A
 Frequencies --   1521.2913              1524.4920              1536.8894
 Red. masses --      1.1532                 1.1167                 1.1047
 Frc consts  --      1.5724                 1.5291                 1.5374
 IR Inten    --      5.9132                 0.6611                 1.8591

                     61                     62                     63
                      A                      A                      A
 Frequencies --   1545.8150              3025.9406              3033.4264
 Red. masses --      1.4719                 1.0744                 1.0654
 Frc consts  --      2.0723                 5.7961                 5.7759
 IR Inten    --     29.8571                12.7081                45.9305

                     64                     65                     66
                      A                      A                      A
 Frequencies --   3042.4684              3051.6852              3072.6165
 Red. masses --      1.0674                 1.0754                 1.1047
 Frc consts  --      5.8217                 5.9005                 6.1448
 IR Inten    --     47.8701                47.3829                40.6358

                     67                     68                     69
                      A                      A                      A
 Frequencies --   3085.9562              3123.4280              3134.7445
 Red. masses --      1.1004                 1.0553                 1.0516
 Frc consts  --      6.1740                 6.0658                 6.0886
 IR Inten    --     34.3147                24.7938                25.1273

                     70                     71                     72
                      A                      A                      A
 Frequencies --   3139.5240              3144.5039              3145.5900
 Red. masses --      1.0600                 1.0897                 1.0883
 Frc consts  --      6.1555                 6.3483                 6.3447
 IR Inten    --     16.1016                10.1944                11.0736

                     73                     74                     75
                      A                      A                      A
 Frequencies --   3172.7279              3180.0157              3208.6245
 Red. masses --      1.0891                 1.0952                 1.1140
 Frc consts  --      6.4594                 6.5252                 6.7571
 IR Inten    --     19.7656                15.5244                28.5392

                     76                     77                     78
                      A                      A                      A
 Frequencies --   3210.2991              3225.3996              3494.9522
 Red. masses --      1.1189                 1.1151                 1.0736
 Frc consts  --      6.7939                 6.8348                 7.7265
 IR Inten    --      0.6036                28.0976                 0.6057

 - Thermochemistry -
 -------------------
 Temperature   298.150 Kelvin.  Pressure   1.00000 Atm.
 Atom     1 has atomic number  6 and mass  12.00000

 Molecular mass:   151.13610 amu.
 Principal axes and moments of inertia in atomic units:
                           1         2         3
     Eigenvalues --   685.691823070.101843415.71907
           X            0.99998  -0.00537   0.00164
           Y            0.00535   0.99992   0.01119
           Z           -0.00170  -0.01118   0.99994
 This molecule is an asymmetric top.
 Rotational symmetry number  1.
 Warning -- assumption of classical behavior for rotation
           may cause significant error
 Rotational temperatures (Kelvin)      0.12632     0.02821     0.02536
 Rotational constants (GHZ):           2.63200     0.58784     0.52836
 Zero-point vibrational energy     670976.9 (Joules/Mol)
                                  160.36733 (Kcal/Mol)
 Warning -- explicit consideration of  12 degrees of freedom as
           vibrations may cause significant error
 Vibrational temperatures:     54.91    80.32   129.33   149.00   293.18
          (Kelvin)            341.24   408.41   457.04   538.34   571.55
                              640.40   756.91   962.86   977.78  1040.71
                             1096.68  1120.13  1154.88  1171.28  1208.48
                             1233.55  1254.05  1295.00  1313.96  1346.57
                             1380.33  1392.20  1417.34  1458.87  1487.10
                             1518.11  1527.80  1543.59  1548.51  1600.36
                             1603.69  1615.41  1635.97  1655.26  1707.42
                             1733.22  1755.20  1766.23  1791.27  1804.55
                             1830.61  1891.83  1902.81  1934.51  1964.08
                             1988.88  2015.21  2024.10  2045.86  2141.22
                             2166.80  2174.62  2188.80  2193.40  2211.24
                             2224.08  4353.65  4364.42  4377.43  4390.69
                             4420.81  4440.00  4493.92  4510.20  4517.07
                             4524.24  4525.80  4564.85  4575.33  4616.49
                             4618.90  4640.63  5028.46

 Zero-point correction=                           0.255562 (Hartree/Particle)
 Thermal correction to Energy=                    0.266221
 Thermal correction to Enthalpy=                  0.267165
 Thermal correction to Gibbs Free Energy=         0.218338
 Sum of electronic and zero-point Energies=           -445.757409
 Sum of electronic and thermal Energies=              -445.746749
 Sum of electronic and thermal Enthalpies=            -445.745805
 Sum of electronic and thermal Free Energies=         -445.794632

                     E (Thermal)             CV                S
                      KCal/Mol        Cal/Mol-Kelvin    Cal/Mol-Kelvin
 Total                  167.056             41.898            102.765
 Electronic               0.000              0.000              0.000
 Translational            0.889              2.981             40.949
 Rotational               0.889              2.981             30.354
 Vibrational            165.279             35.936             31.462
 Vibration     1          0.594              1.982              5.352
 Vibration     2          0.596              1.975              4.600
 Vibration     3          0.602              1.956              3.662
 Vibration     4          0.605              1.946              3.386
 Vibration     5          0.639              1.835              2.099
 Vibration     6          0.656              1.784              1.824
 Vibration     7          0.682              1.704              1.510
 Vibration     8          0.704              1.640              1.322
 Vibration     9          0.745              1.525              1.063
 Vibration    10          0.764              1.476              0.973
 Vibration    11          0.804              1.372              0.811
 Vibration    12          0.881              1.192              0.596

                           ! Non-Optimized Parameters !
 Normal termination of Gaussian 16 at Tue Dec  8 19:22:33 2020.

 ----------------------------------------------------------------------
 # B3LYP/6-311++G(d,p) empiricaldispersion=gd3bj scf=xqc pop=npa geom=c
 heck
 ----------------------------------------------------------------------

 --------------------------------------
 CID_80468574_JID_1197_Energie_neutraal
 --------------------------------------
 Structure from the checkpoint file:  "JID_1197.chk"
 Charge =  0 Multiplicity = 1

 SCF Done:  E(RB3LYP) =  -446.136634473     A.U. after   13 cycles
 Normal termination of Gaussian 16 at Tue Dec  8 19:25:22 2020.

 ----------------------------------------------------------------------
 # B3LYP/6-311++G(d,p) empiricaldispersion=gd3bj scf=xqc pop=npa geom=c
 heck
 ----------------------------------------------------------------------

 ------------------------------------
 CID_80468574_JID_1197_Energie_kation
 ------------------------------------
 Structure from the checkpoint file:  "JID_1197.chk"
 Charge =  1 Multiplicity = 2

 SCF Done:  E(UB3LYP) =  -445.852329769     A.U. after   19 cycles
 Normal termination of Gaussian 16 at Tue Dec  8 19:31:10 2020.
 Gaussian 16:  ES64L-G16RevA.03 25-Dec-2016

 ----------------------------------------------------------------------
 # B3LYP/6-311++G(d,p) empiricaldispersion=gd3bj scf=xqc pop=npa geom=c
 heck
 ----------------------------------------------------------------------

 -----------------------------------
 CID_80468574_JID_1197_Energie_anion
 -----------------------------------
 Structure from the checkpoint file:  "JID_1197.chk"
 Charge = -1 Multiplicity = 2

                         Standard orientation:
 ---------------------------------------------------------------------
 Center     Atomic      Atomic             Coordinates (Angstroms)
 Number     Number       Type             X           Y           Z
 ---------------------------------------------------------------------
      1          6           0        3.785130   -0.384973   -0.009408
      2          6           0        2.606125   -1.164143    0.539538
      3          6           0        2.406630   -0.104303   -0.528655
      4          7           0        1.816110    1.185068   -0.283784
      5          6           0        0.363404    1.305503   -0.397931
      6          6           0       -0.521889    0.543891    0.617766
      7          6           0       -0.740548   -0.940618    0.213581
      8          6           0       -2.003170   -0.944826   -0.651056
      9          6           0       -3.333073   -0.971863    0.059261
     10          6           0       -2.754567    0.346348   -0.386613
     11          6           0       -1.954356    1.143933    0.644996
     12          1           0        4.494651   -0.894478   -0.655214
     13          1           0        4.240351    0.365563    0.633646
     14          1           0        2.505662   -2.213533    0.272508
     15          1           0        2.271025   -0.927959    1.546436
     16          1           0        2.180599   -0.465306   -1.531144
     17          1           0        2.123333    1.542515    0.618524
     18          1           0        0.143097    2.377745   -0.319466
     19          1           0        0.079385    1.008310   -1.416925
     20          1           0       -0.046412    0.625217    1.604858
     21          1           0        0.116943   -1.339567   -0.330190
     22          1           0       -0.869728   -1.570114    1.103615
     23          1           0       -1.949471   -1.361904   -1.652896
     24          1           0       -4.191951   -1.360995   -0.481841
     25          1           0       -3.340107   -1.194506    1.125436
     26          1           0       -3.248995    0.880141   -1.193417
     27          1           0       -2.396185    1.045570    1.644882
     28          1           0       -1.947081    2.214134    0.408802
 ---------------------------------------------------------------------

 SCF Done:  E(UB3LYP) =  -446.117758637     A.U. after   31 cycles

 The electronic state is 2-A.
 Alpha  occ. eigenvalues --  -14.19877 -10.10214 -10.08587 -10.07170 -10.06679
 Alpha  occ. eigenvalues --  -10.06659 -10.06536 -10.06478 -10.06228 -10.06095
 Alpha  occ. eigenvalues --  -10.05645  -0.81719  -0.77345  -0.73156  -0.66732
 Alpha  occ. eigenvalues --   -0.60147  -0.56490  -0.50415  -0.49565  -0.49205
 Alpha  occ. eigenvalues --   -0.45430  -0.44181  -0.40322  -0.39563  -0.39312
 Alpha  occ. eigenvalues --   -0.35866  -0.33938  -0.31863  -0.31376  -0.29900
 Alpha  occ. eigenvalues --   -0.29113  -0.26876  -0.26130  -0.24708  -0.24313
 Alpha  occ. eigenvalues --   -0.22944  -0.21901  -0.21631  -0.19788  -0.17707
 Alpha  occ. eigenvalues --   -0.16656  -0.11016   0.04788
 Alpha virt. eigenvalues --    0.06683   0.07044   0.07946   0.08546   0.08928
 Alpha virt. eigenvalues --    0.09601   0.10176   0.10713   0.11161   0.11581
 Alpha virt. eigenvalues --    0.12384   0.12686   0.13490   0.14557   0.14777

  Beta  occ. eigenvalues --  -14.19861 -10.10206 -10.08575 -10.07152 -10.06669
  Beta  occ. eigenvalues --  -10.06637 -10.06522 -10.06468 -10.06207 -10.06079
  Beta  occ. eigenvalues --  -10.05636  -0.81693  -0.77319  -0.73133  -0.66704
  Beta  occ. eigenvalues --   -0.60115  -0.56456  -0.50353  -0.49512  -0.49153
  Beta  occ. eigenvalues --   -0.45383  -0.44142  -0.40268  -0.39503  -0.39281
  Beta  occ. eigenvalues --   -0.35818  -0.33896  -0.31833  -0.31344  -0.29869
  Beta  occ. eigenvalues --   -0.29081  -0.26847  -0.26103  -0.24681  -0.24285
  Beta  occ. eigenvalues --   -0.22919  -0.21875  -0.21595  -0.19761  -0.17681
  Beta  occ. eigenvalues --   -0.16629  -0.10992
  Beta virt. eigenvalues --    0.07019   0.07637   0.07817   0.08457   0.09183
  Beta virt. eigenvalues --    0.09503   0.10026   0.10792   0.11118   0.11701
  Beta virt. eigenvalues --    0.12042   0.12651   0.13128   0.13787   0.14913

 Mulliken charges and spin densities:
               1          2
     1  C    1.467586  -1.911239
     2  C    0.421913  -0.714367
     3  C   -1.518809   1.303579
     4  N    0.043661  -0.000613
     5  C   -0.573531  -0.313478
     6  C    0.210681   0.397003
     7  C    0.517829  -1.070411
     8  C   -1.118151   1.294892
     9  C    1.412246  -2.094796
    10  C   -0.394626   0.536622
    11  C    1.357181  -2.046337
    12  H    0.014286   0.123089
    13  H   -0.165082   0.282403
    14  H   -0.249891   0.389120
    15  H   -0.086537   0.242244
    16  H   -0.120724   0.313556
    17  H    0.134324   0.064332
    18  H   -0.232223   0.383286
    19  H    0.056508   0.131045
    20  H   -0.158227   0.371503
    21  H    0.116291   0.027626
    22  H   -0.155663   0.314249
    23  H   -0.856751   1.092058
    24  H   -0.452590   0.592417
    25  H   -0.049698   0.170776
    26  H   -0.352139   0.575006
    27  H   -0.284918   0.451045
    28  H    0.017056   0.095392
 Sum of Mulliken charges =  -1.00000   1.00000

 Dipole moment (field-independent basis, Debye):
    X=              2.3040    Y=              1.3042    Z=              0.9385  Tot=              2.8089
 Quadrupole moment (field-independent basis, Debye-Ang):
   XX=           -140.1017   YY=           -110.8235   ZZ=           -107.4238
   XY=             -1.4784   XZ=             -7.1108   YZ=             -3.4163

 Summary of Natural Population Analysis:

                                       Natural Population
                Natural  -----------------------------------------------
    Atom  No    Charge         Core      Valence    Rydberg      Total
 -----------------------------------------------------------------------
      C    1   -0.20097      0.99962     2.19414    0.00721     3.20097
      C    2   -0.21384      0.99963     2.20592    0.00829     3.21384
      C    3   -0.01568      0.99958     2.00232    0.01379     3.01568
      N    4   -0.33459      0.99973     2.82186    0.01300     3.83459
      C    5   -0.08135      0.99959     2.07052    0.01124     3.08135
      C    6   -0.11606      0.99960     2.10537    0.01109     3.11606
      C    7   -0.19486      0.99961     2.18605    0.00920     3.19486
      C    8   -0.11257      0.99959     2.10203    0.01095     3.11257
      C    9   -0.19288      0.99960     2.18349    0.00979     3.19288
      C   10   -0.11388      0.99959     2.10397    0.01033     3.11388
      C   11   -0.19209      0.99962     2.18299    0.00948     3.19209
      H   12    0.10137      0.00000     0.39756    0.00108     0.39863
      H   13    0.09986      0.00000     0.39894    0.00120     0.40014
      H   14    0.10253      0.00000     0.39600    0.00146     0.39747
      H   15    0.10290      0.00000     0.39554    0.00156     0.39710
      H   16    0.09780      0.00000     0.40093    0.00127     0.40220
      H   17    0.17066      0.00000     0.32594    0.00340     0.32934
      H   18    0.09275      0.00000     0.40608    0.00117     0.40725
      H   19    0.09149      0.00000     0.40684    0.00166     0.40851
      H   20    0.09569      0.00000     0.40249    0.00182     0.40431
      H   21    0.10691      0.00000     0.39121    0.00188     0.39309
      H   22    0.09712      0.00000     0.40120    0.00168     0.40288
      H   23    0.10559      0.00000     0.39251    0.00190     0.39441
      H   24    0.10380      0.00000     0.39479    0.00141     0.39620
      H   25    0.09653      0.00000     0.40189    0.00158     0.40347
      H   26    0.10438      0.00000     0.39416    0.00146     0.39562
      H   27    0.09833      0.00000     0.40022    0.00145     0.40167
      H   28    0.10108      0.00000     0.39746    0.00146     0.39892
 =======================================================================
   * Total *    0.00000     10.99574    30.86244    0.14182    42.00000

 Normal termination of Gaussian 16 at Tue Dec  8 19:40:35 2020.
