 Gaussian 16, Revision A.03,

 -----------------------------------------------------------
 # opt freq B3LYP/6-31G(d) empiricaldispersion=gd3bj scf=xqc
 -----------------------------------------------------------

 ------------------------------
 CID_92930293_JID_7327_neutraal
 ------------------------------
 Symbolic Z-matrix:
 Charge =  0 Multiplicity = 1

 SCF Done:  E(RB3LYP) =  -731.543507845     A.U. after   15 cycles
 SCF Done:  E(RB3LYP) =  -731.535899212     A.U. after   13 cycles
 SCF Done:  E(RB3LYP) =  -731.548763642     A.U. after   12 cycles
 SCF Done:  E(RB3LYP) =  -731.546139224     A.U. after   13 cycles
 SCF Done:  E(RB3LYP) =  -731.549407358     A.U. after   12 cycles
 SCF Done:  E(RB3LYP) =  -731.549656476     A.U. after   11 cycles
 SCF Done:  E(RB3LYP) =  -731.549676960     A.U. after   11 cycles
 SCF Done:  E(RB3LYP) =  -731.549821925     A.U. after   11 cycles
 SCF Done:  E(RB3LYP) =  -731.549841204     A.U. after   10 cycles
 SCF Done:  E(RB3LYP) =  -731.549849933     A.U. after    9 cycles
 SCF Done:  E(RB3LYP) =  -731.549854266     A.U. after    9 cycles
 SCF Done:  E(RB3LYP) =  -731.549858723     A.U. after    9 cycles
 SCF Done:  E(RB3LYP) =  -731.549859785     A.U. after    8 cycles
 SCF Done:  E(RB3LYP) =  -731.549860091     A.U. after    7 cycles
 SCF Done:  E(RB3LYP) =  -731.549860158     A.U. after    7 cycles
 Optimization completed.
    -- Stationary point found.
 Normal termination of Gaussian 16 at Mon Dec 14 13:24:04 2020.

 --------------------------------------------------------------------
 #N Geom=AllCheck Guess=TCheck SCRF=Check GenChk RB3LYP/6-31G(d) Freq
 --------------------------------------------------------------------

 Structure from the checkpoint file:  "JID_7327.chk"
 ------------------------------
 CID_92930293_JID_7327_neutraal
 ------------------------------
 Charge =  0 Multiplicity = 1

 SCF Done:  E(RB3LYP) =  -731.549860158     A.U. after    1 cycles

  Exact polarizability: 195.963  -4.546 131.360   0.927   8.011 141.888
 Approx polarizability: 277.270  -2.252 196.882  -1.363  16.024 232.153

                      1                      2                      3
                      A                      A                      A
 Frequencies --     35.9476                38.1161                72.5607
 Red. masses --      4.1860                 3.7141                 4.1126
 Frc consts  --      0.0032                 0.0032                 0.0128
 IR Inten    --      0.6239                 0.3951                 0.3767

                      4                      5                      6
                      A                      A                      A
 Frequencies --     76.6966                85.8648                97.8536
 Red. masses --      4.6474                 3.3948                 3.7494
 Frc consts  --      0.0161                 0.0147                 0.0212
 IR Inten    --      0.2938                 1.6856                 1.2696

                      7                      8                      9
                      A                      A                      A
 Frequencies --    140.6313               148.4799               152.2098
 Red. masses --      1.6801                 2.3855                 1.5800
 Frc consts  --      0.0196                 0.0310                 0.0216
 IR Inten    --      0.6463                 0.4212                 3.2771

                     10                     11                     12
                      A                      A                      A
 Frequencies --    177.3270               193.5846               206.1198
 Red. masses --      2.1070                 1.8403                 3.2647
 Frc consts  --      0.0390                 0.0406                 0.0817
 IR Inten    --      0.0697                 2.1527                 6.9434

                     13                     14                     15
                      A                      A                      A
 Frequencies --    240.3926               266.8964               272.7093
 Red. masses --      1.4562                 1.7543                 2.3244
 Frc consts  --      0.0496                 0.0736                 0.1018
 IR Inten    --      0.7703                10.2636                 6.4046

                     16                     17                     18
                      A                      A                      A
 Frequencies --    283.9398               296.4133               310.2944
 Red. masses --      2.8534                 2.0440                 3.1121
 Frc consts  --      0.1355                 0.1058                 0.1765
 IR Inten    --     14.4949                19.4308                 1.7081

                     19                     20                     21
                      A                      A                      A
 Frequencies --    363.6386               395.5186               415.5461
 Red. masses --      4.0513                 2.5906                 2.9024
 Frc consts  --      0.3156                 0.2388                 0.2953
 IR Inten    --     13.7739                 0.3697                 1.3043

                     22                     23                     24
                      A                      A                      A
 Frequencies --    431.3731               461.0532               514.7644
 Red. masses --      2.1637                 3.0232                 2.8007
 Frc consts  --      0.2372                 0.3786                 0.4373
 IR Inten    --      4.5537                 0.2395                 3.0368

                     25                     26                     27
                      A                      A                      A
 Frequencies --    518.7279               555.5585               620.1570
 Red. masses --      3.0408                 4.6824                 4.2838
 Frc consts  --      0.4821                 0.8515                 0.9707
 IR Inten    --      3.0836                 5.0434                13.8124

                     28                     29                     30
                      A                      A                      A
 Frequencies --    643.4671               703.5020               745.7673
 Red. masses --      4.2473                 3.7106                 3.3461
 Frc consts  --      1.0361                 1.0820                 1.0965
 IR Inten    --      5.6751                 5.4993                 8.4183

                     31                     32                     33
                      A                      A                      A
 Frequencies --    759.7434               765.7800               784.9078
 Red. masses --      1.6973                 2.9034                 1.7968
 Frc consts  --      0.5772                 1.0031                 0.6522
 IR Inten    --     22.8351                 2.3008                12.5391

                     34                     35                     36
                      A                      A                      A
 Frequencies --    804.2408               838.3774               854.9749
 Red. masses --      1.3035                 1.7608                 2.9907
 Frc consts  --      0.4968                 0.7292                 1.2880
 IR Inten    --      8.6472                51.6985                 0.7406

                     37                     38                     39
                      A                      A                      A
 Frequencies --    884.6076               887.1567               903.7674
 Red. masses --      2.1815                 1.6090                 1.4397
 Frc consts  --      1.0058                 0.7461                 0.6929
 IR Inten    --      3.3466                 3.4284                57.2315

                     40                     41                     42
                      A                      A                      A
 Frequencies --    914.8751               947.6968               965.8230
 Red. masses --      1.4338                 1.4166                 1.8136
 Frc consts  --      0.7071                 0.7496                 0.9968
 IR Inten    --     54.2197                 5.9358                12.3748

                     43                     44                     45
                      A                      A                      A
 Frequencies --    978.0210               984.8074              1020.9777
 Red. masses --      2.0348                 1.2575                 1.6000
 Frc consts  --      1.1467                 0.7186                 0.9826
 IR Inten    --      4.3296                 0.1165                 1.1473

                     46                     47                     48
                      A                      A                      A
 Frequencies --   1027.4577              1068.8730              1073.4479
 Red. masses --      2.0685                 2.4384                 1.7897
 Frc consts  --      1.2865                 1.6414                 1.2150
 IR Inten    --      1.9056                 2.6601                 5.0106

                     49                     50                     51
                      A                      A                      A
 Frequencies --   1081.5666              1087.5895              1105.9428
 Red. masses --      2.0214                 2.2723                 2.0144
 Frc consts  --      1.3932                 1.5836                 1.4517
 IR Inten    --     11.6443                 2.8648                19.7353

                     52                     53                     54
                      A                      A                      A
 Frequencies --   1125.9281              1136.7462              1149.9959
 Red. masses --      1.8529                 1.7350                 1.8733
 Frc consts  --      1.3840                 1.3210                 1.4597
 IR Inten    --      6.9633                26.4226                 1.2541

                     55                     56                     57
                      A                      A                      A
 Frequencies --   1172.1949              1198.2357              1209.1917
 Red. masses --      1.6926                 1.1128                 2.5985
 Frc consts  --      1.3703                 0.9414                 2.2385
 IR Inten    --     11.9079                 0.0959                13.0677

                     58                     59                     60
                      A                      A                      A
 Frequencies --   1227.9422              1254.6694              1279.0583
 Red. masses --      2.3861                 2.4191                 1.5938
 Frc consts  --      2.1198                 2.2437                 1.5363
 IR Inten    --     16.3771                 3.1061                57.2219

                     61                     62                     63
                      A                      A                      A
 Frequencies --   1290.2473              1302.0417              1313.9861
 Red. masses --      1.3445                 1.5401                 1.2247
 Frc consts  --      1.3187                 1.5383                 1.2459
 IR Inten    --      5.1133                41.3158                 3.2242

                     64                     65                     66
                      A                      A                      A
 Frequencies --   1337.4943              1342.6497              1357.1511
 Red. masses --      1.5466                 1.3334                 1.9524
 Frc consts  --      1.6301                 1.4162                 2.1188
 IR Inten    --      2.1435                17.3784                17.7508

                     67                     68                     69
                      A                      A                      A
 Frequencies --   1369.6200              1383.5915              1399.6231
 Red. masses --      1.4120                 1.6393                 1.3360
 Frc consts  --      1.5606                 1.8489                 1.5420
 IR Inten    --      6.2855                50.3847                15.0882

                     70                     71                     72
                      A                      A                      A
 Frequencies --   1427.5478              1439.9592              1445.6742
 Red. masses --      1.2940                 1.3955                 1.2550
 Frc consts  --      1.5537                 1.7048                 1.5454
 IR Inten    --      9.8093                17.9121                 9.0390

                     73                     74                     75
                      A                      A                      A
 Frequencies --   1449.5115              1475.6976              1492.3763
 Red. masses --      1.2637                 1.5320                 1.8070
 Frc consts  --      1.5644                 1.9656                 2.3712
 IR Inten    --      6.9119                40.7849                 5.7655

                     76                     77                     78
                      A                      A                      A
 Frequencies --   1507.7379              1509.4924              1512.0185
 Red. masses --      1.0671                 1.1035                 1.1439
 Frc consts  --      1.4292                 1.4814                 1.5408
 IR Inten    --      4.6539                 5.1285                 7.2409

                     79                     80                     81
                      A                      A                      A
 Frequencies --   1521.6222              1525.5601              1527.3624
 Red. masses --      1.1191                 1.0795                 1.1016
 Frc consts  --      1.5266                 1.4802                 1.5141
 IR Inten    --     13.1030                 7.2523                 2.6408

                     82                     83                     84
                      A                      A                      A
 Frequencies --   1531.4075              1533.7409              1544.2836
 Red. masses --      1.1837                 1.2105                 1.3250
 Frc consts  --      1.6356                 1.6777                 1.8618
 IR Inten    --     55.8012                14.1021                 8.5806

                     85                     86                     87
                      A                      A                      A
 Frequencies --   1547.6269              1637.8872              1667.3981
 Red. masses --      1.4733                 5.7953                 5.6553
 Frc consts  --      2.0791                 9.1599                 9.2637
 IR Inten    --     12.4186                 0.6457                 0.9991

                     88                     89                     90
                      A                      A                      A
 Frequencies --   1701.2194              1744.9203              3000.1528
 Red. masses --      1.0889                 9.3896                 1.0705
 Frc consts  --      1.8568                16.8442                 5.6768
 IR Inten    --      9.4726               252.1067                57.1108

                     91                     92                     93
                      A                      A                      A
 Frequencies --   3014.3916              3035.0956              3049.3535
 Red. masses --      1.0679                 1.0639                 1.0673
 Frc consts  --      5.7170                 5.7745                 5.8473
 IR Inten    --     36.0875                14.2523                60.7263

                     94                     95                     96
                      A                      A                      A
 Frequencies --   3054.0303              3059.2353              3071.9844
 Red. masses --      1.0477                 1.0389                 1.0965
 Frc consts  --      5.7576                 5.7288                 6.0969
 IR Inten    --     36.3452                21.3757                29.2204

                     97                     98                     99
                      A                      A                      A
 Frequencies --   3076.5055              3094.8712              3109.5017
 Red. masses --      1.0923                 1.0904                 1.0652
 Frc consts  --      6.0915                 6.1533                 6.0681
 IR Inten    --     19.9034                23.6914                14.1508

                    100                    101                    102
                      A                      A                      A
 Frequencies --   3117.6923              3125.7820              3137.3752
 Red. masses --      1.0935                 1.1007                 1.1001
 Frc consts  --      6.2625                 6.3366                 6.3799
 IR Inten    --     16.7183                33.3775                24.0469

                    103                    104                    105
                      A                      A                      A
 Frequencies --   3141.0794              3150.1648              3170.5326
 Red. masses --      1.0965                 1.1001                 1.0982
 Frc consts  --      6.3742                 6.4318                 6.5040
 IR Inten    --     37.6882                 7.8124                19.8595

                    106                    107                    108
                      A                      A                      A
 Frequencies --   3176.8061              3182.5526              3197.2205
 Red. masses --      1.0870                 1.0882                 1.0915
 Frc consts  --      6.4634                 6.4938                 6.5739
 IR Inten    --     10.4739                 3.2177                22.3357

                    109                    110                    111
                      A                      A                      A
 Frequencies --   3211.8568              3463.3160              3546.6998
 Red. masses --      1.0974                 1.0498                 1.0920
 Frc consts  --      6.6698                 7.4193                 8.0930
 IR Inten    --     21.9795                 5.4870                 1.0572

 - Thermochemistry -
 -------------------
 Temperature   298.150 Kelvin.  Pressure   1.00000 Atm.
 Atom     1 has atomic number  6 and mass  12.00000

 Molecular mass:   234.17321 amu.
 Principal axes and moments of inertia in atomic units:
                           1         2         3
     Eigenvalues --  2602.162205063.158655966.67457
           X            0.99934  -0.03606  -0.00416
           Y            0.03611   0.99927   0.01265
           Z            0.00370  -0.01279   0.99991
 This molecule is an asymmetric top.
 Rotational symmetry number  1.
 Warning -- assumption of classical behavior for rotation
           may cause significant error
 Rotational temperatures (Kelvin)      0.03329     0.01711     0.01452
 Rotational constants (GHZ):           0.69355     0.35645     0.30247
 Zero-point vibrational energy     909074.3 (Joules/Mol)
                                  217.27398 (Kcal/Mol)
 Warning -- explicit consideration of  27 degrees of freedom as
           vibrations may cause significant error
 Vibrational temperatures:     51.72    54.84   104.40   110.35   123.54
          (Kelvin)            140.79   202.34   213.63   219.00   255.13
                              278.53   296.56   345.87   384.00   392.37
                              408.53   426.47   446.44   523.19   569.06
                              597.88   620.65   663.35   740.63   746.33
                              799.32   892.27   925.81  1012.18  1072.99
                             1093.10  1101.79  1129.31  1157.12  1206.24
                             1230.12  1272.75  1276.42  1300.32  1316.30
                             1363.52  1389.60  1407.15  1416.92  1468.96
                             1478.28  1537.87  1544.45  1556.13  1564.80
                             1591.20  1619.96  1635.52  1654.59  1686.53
                             1723.99  1739.76  1766.74  1805.19  1840.28
                             1856.38  1873.35  1890.53  1924.36  1931.77
                             1952.64  1970.58  1990.68  2013.75  2053.92
                             2071.78  2080.00  2085.52  2123.20  2147.20
                             2169.30  2171.82  2175.46  2189.27  2194.94
                             2197.53  2203.35  2206.71  2221.88  2226.69
                             2356.55  2399.01  2447.68  2510.55  4316.55
                             4337.04  4366.83  4387.34  4394.07  4401.56
                             4419.90  4426.41  4452.83  4473.88  4485.66
                             4497.30  4513.98  4519.31  4532.38  4561.69
                             4570.72  4578.98  4600.09  4621.15  4982.94
                             5102.91

 Zero-point correction=                           0.346248 (Hartree/Particle)
 Thermal correction to Energy=                    0.364211
 Thermal correction to Enthalpy=                  0.365155
 Thermal correction to Gibbs Free Energy=         0.300319
 Sum of electronic and zero-point Energies=           -731.203612
 Sum of electronic and thermal Energies=              -731.185649
 Sum of electronic and thermal Enthalpies=            -731.184705
 Sum of electronic and thermal Free Energies=         -731.249541

                     E (Thermal)             CV                S
                      KCal/Mol        Cal/Mol-Kelvin    Cal/Mol-Kelvin
 Total                  228.546             67.724            136.458
 Electronic               0.000              0.000              0.000
 Translational            0.889              2.981             42.254
 Rotational               0.889              2.981             32.730
 Vibrational            226.768             61.762             61.474
 Vibration     1          0.594              1.982              5.471
 Vibration     2          0.594              1.982              5.355
 Vibration     3          0.599              1.967              4.083
 Vibration     4          0.599              1.965              3.974
 Vibration     5          0.601              1.959              3.752
 Vibration     6          0.603              1.951              3.497
 Vibration     7          0.615              1.913              2.795
 Vibration     8          0.618              1.904              2.692
 Vibration     9          0.619              1.900              2.644
 Vibration    10          0.628              1.870              2.356
 Vibration    11          0.635              1.849              2.193
 Vibration    12          0.641              1.831              2.078
 Vibration    13          0.657              1.779              1.800
 Vibration    14          0.672              1.734              1.616
 Vibration    15          0.676              1.724              1.579
 Vibration    16          0.682              1.703              1.510
 Vibration    17          0.690              1.680              1.437
 Vibration    18          0.699              1.654              1.361
 Vibration    19          0.737              1.547              1.107
 Vibration    20          0.762              1.480              0.979
 Vibration    21          0.779              1.436              0.907
 Vibration    22          0.792              1.402              0.854
 Vibration    23          0.819              1.336              0.763
 Vibration    24          0.870              1.217              0.622
 Vibration    25          0.874              1.209              0.613
 Vibration    26          0.911              1.128              0.533
 Vibration    27          0.980              0.989              0.416

                           ! Non-Optimized Parameters !
 Normal termination of Gaussian 16 at Mon Dec 14 13:41:30 2020.

 ----------------------------------------------------------------------
 # B3LYP/6-311++G(d,p) empiricaldispersion=gd3bj scf=xqc pop=npa geom=c
 heck
 ----------------------------------------------------------------------

 --------------------------------------
 CID_92930293_JID_7327_Energie_neutraal
 --------------------------------------
 Structure from the checkpoint file:  "JID_7327.chk"
 Charge =  0 Multiplicity = 1

 SCF Done:  E(RB3LYP) =  -731.758245128     A.U. after   16 cycles
 Normal termination of Gaussian 16 at Mon Dec 14 13:50:52 2020.

 ----------------------------------------------------------------------
 # B3LYP/6-311++G(d,p) empiricaldispersion=gd3bj scf=xqc pop=npa geom=c
 heck
 ----------------------------------------------------------------------

 ------------------------------------
 CID_92930293_JID_7327_Energie_kation
 ------------------------------------
 Structure from the checkpoint file:  "JID_7327.chk"
 Charge =  1 Multiplicity = 2

 SCF Done:  E(UB3LYP) =  -731.455785342     A.U. after   32 cycles
 Normal termination of Gaussian 16 at Mon Dec 14 14:17:23 2020.
 Gaussian 16:  ES64L-G16RevA.03 25-Dec-2016

 ----------------------------------------------------------------------
 # B3LYP/6-311++G(d,p) empiricaldispersion=gd3bj scf=xqc pop=npa geom=c
 heck
 ----------------------------------------------------------------------

 -----------------------------------
 CID_92930293_JID_7327_Energie_anion
 -----------------------------------
 Structure from the checkpoint file:  "JID_7327.chk"
 Charge = -1 Multiplicity = 2

                         Standard orientation:
 ---------------------------------------------------------------------
 Center     Atomic      Atomic             Coordinates (Angstroms)
 Number     Number       Type             X           Y           Z
 ---------------------------------------------------------------------
      1          6           0        3.569410   -0.614011   -1.366681
      2          6           0        3.327195   -1.343202   -0.043810
      3          6           0        2.771699   -0.441231    1.062536
      4          7           0        1.403699    0.055634    0.827834
      5          6           0        0.338743   -0.751468    1.451361
      6          6           0       -1.014026   -0.833870    0.767842
      7          6           0       -2.144667   -0.429045    1.486682
      8          6           0       -3.424835   -0.495791    0.938889
      9          6           0       -3.584948   -0.976573   -0.359388
     10          6           0       -2.467896   -1.406581   -1.075022
     11          6           0       -1.179433   -1.358771   -0.529950
     12          6           0       -0.013571   -1.875572   -1.331559
     13          6           0        1.293467    1.373365    0.421343
     14          8           0        2.277521    1.988789    0.015895
     15          6           0       -0.061553    2.056352    0.428792
     16          6           0       -0.677761    2.069609   -0.980699
     17          7           0       -2.057720    2.555304   -0.908803
     18          1           0        2.653486   -0.148858   -1.742036
     19          1           0        3.942788   -1.304641   -2.131261
     20          1           0        4.299285    0.191343   -1.239012
     21          1           0        2.653515   -2.195891   -0.196575
     22          1           0        4.273561   -1.765830    0.320879
     23          1           0        2.765830   -0.984310    2.015796
     24          1           0        3.415433    0.432811    1.176558
     25          1           0        0.183492   -0.426746    2.490659
     26          1           0        0.747876   -1.766220    1.507337
     27          1           0       -2.014026   -0.037974    2.492909
     28          1           0       -4.282979   -0.169181    1.518759
     29          1           0       -4.572037   -1.029045   -0.809879
     30          1           0       -2.593895   -1.799092   -2.080854
     31          1           0        0.501066   -2.688561   -0.804971
     32          1           0       -0.346451   -2.264473   -2.298000
     33          1           0        0.730415   -1.095659   -1.510927
     34          1           0       -0.762212    1.604182    1.129472
     35          1           0        0.108729    3.088191    0.745828
     36          1           0       -0.092210    2.752731   -1.604486
     37          1           0       -0.586807    1.068198   -1.430553
     38          1           0       -2.422471    2.680465   -1.851797
     39          1           0       -2.635359    1.832424   -0.480239
 ---------------------------------------------------------------------

 SCF Done:  E(UB3LYP) =  -731.747639874     A.U. after   33 cycles
 SCF Done:  E(UB3LYP) =  -731.747639874     a.u. after    1 cycles

 The electronic state is 2-A.
 Alpha  occ. eigenvalues --  -18.99003 -14.24876 -14.20052 -10.17431 -10.12263
 Alpha  occ. eigenvalues --  -10.10605 -10.10273 -10.09396 -10.09098 -10.08241
 Alpha  occ. eigenvalues --  -10.08169 -10.08067 -10.07873 -10.07729 -10.07700
 Alpha  occ. eigenvalues --  -10.07389 -10.06542  -0.94279  -0.83973  -0.79213
 Alpha  occ. eigenvalues --   -0.77100  -0.69790  -0.68513  -0.67288  -0.66103
 Alpha  occ. eigenvalues --   -0.61148  -0.59487  -0.58734  -0.53277  -0.51335
 Alpha  occ. eigenvalues --   -0.50132  -0.49445  -0.44613  -0.42000  -0.40765
 Alpha  occ. eigenvalues --   -0.39860  -0.39295  -0.37988  -0.37204  -0.35713
 Alpha  occ. eigenvalues --   -0.35306  -0.34359  -0.33596  -0.32825  -0.32593
 Alpha  occ. eigenvalues --   -0.32048  -0.31648  -0.30529  -0.30007  -0.29627
 Alpha  occ. eigenvalues --   -0.29131  -0.27041  -0.26892  -0.25804  -0.25581
 Alpha  occ. eigenvalues --   -0.25183  -0.25084  -0.24672  -0.23898  -0.16443
 Alpha  occ. eigenvalues --   -0.16161  -0.16016  -0.15135  -0.14842   0.04031
 Alpha virt. eigenvalues --    0.05815   0.06460   0.06934   0.07327   0.07779
 Alpha virt. eigenvalues --    0.07992   0.08020   0.08613   0.09697   0.09812
 Alpha virt. eigenvalues --    0.10149   0.10317   0.10815   0.11378   0.12148

  Beta  occ. eigenvalues --  -18.98990 -14.24879 -14.20041 -10.17420 -10.12241
  Beta  occ. eigenvalues --  -10.10590 -10.10268 -10.09404 -10.09057 -10.08217
  Beta  occ. eigenvalues --  -10.08158 -10.08029 -10.07834 -10.07711 -10.07698
  Beta  occ. eigenvalues --  -10.07367 -10.06536  -0.94257  -0.83959  -0.79192
  Beta  occ. eigenvalues --   -0.77042  -0.69749  -0.68472  -0.67220  -0.66085
  Beta  occ. eigenvalues --   -0.61089  -0.59455  -0.58681  -0.53252  -0.51245
  Beta  occ. eigenvalues --   -0.50095  -0.49395  -0.44574  -0.41968  -0.40715
  Beta  occ. eigenvalues --   -0.39828  -0.39250  -0.37954  -0.37158  -0.35652
  Beta  occ. eigenvalues --   -0.35283  -0.34332  -0.33560  -0.32801  -0.32559
  Beta  occ. eigenvalues --   -0.32006  -0.31602  -0.30500  -0.29983  -0.29598
  Beta  occ. eigenvalues --   -0.29103  -0.26985  -0.26853  -0.25767  -0.25534
  Beta  occ. eigenvalues --   -0.25151  -0.25045  -0.24629  -0.23864  -0.16274
  Beta  occ. eigenvalues --   -0.16136  -0.15957  -0.15099  -0.14778
  Beta virt. eigenvalues --    0.06264   0.06731   0.07092   0.07275   0.07465
  Beta virt. eigenvalues --    0.08177   0.08398   0.08509   0.09058   0.09730
  Beta virt. eigenvalues --    0.10260   0.10399   0.10741   0.11081   0.11422

 Mulliken charges and spin densities:
               1          2
     1  C   -0.310994  -0.185853
     2  C    0.412511  -0.477186
     3  C   -0.216986  -0.101840
     4  N    0.187943   0.091252
     5  C    1.630416  -2.889425
     6  C   -1.413660   2.359149
     7  C   -0.092085  -0.070123
     8  C    0.695861  -1.202208
     9  C    1.483905  -1.829534
    10  C   -0.205883   0.036784
    11  C   -1.738597   2.063247
    12  C    1.239667  -1.759781
    13  C   -0.506505   0.176751
    14  O   -0.285968   0.004744
    15  C    0.150157  -0.266302
    16  C   -0.281090  -0.088834
    17  N   -0.426625   0.014049
    18  H    0.065118   0.103818
    19  H    0.045039   0.083545
    20  H    0.144861  -0.005031
    21  H   -0.003269   0.107225
    22  H   -0.316917   0.485738
    23  H   -0.251276   0.411996
    24  H    0.144002   0.042036
    25  H   -0.212118   0.438233
    26  H   -0.214844   0.414842
    27  H   -0.331734   0.474637
    28  H   -0.390235   0.567224
    29  H   -0.681392   0.855434
    30  H   -0.508226   0.684531
    31  H   -0.071429   0.238477
    32  H   -0.164796   0.329938
    33  H    0.284879  -0.160125
    34  H    0.250326  -0.076349
    35  H    0.185829   0.022187
    36  H    0.203114  -0.004803
    37  H    0.090039   0.027023
    38  H    0.101770   0.128046
    39  H    0.309193  -0.043511
 Sum of Mulliken charges =  -1.00000   1.00000

 Dipole moment (field-independent basis, Debye):
    X=              2.8582    Y=              2.3427    Z=             -1.0822  Tot=              3.8508
 Quadrupole moment (field-independent basis, Debye-Ang):
   XX=           -184.9432   YY=           -157.0449   ZZ=           -145.8552
   XY=             -1.9228   XZ=             -5.0180   YZ=              1.2756

 Summary of Natural Population Analysis:

                                       Natural Population
                Natural  -----------------------------------------------
    Atom  No    Charge         Core      Valence    Rydberg      Total
 -----------------------------------------------------------------------
      C    1   -0.28580      0.99966     2.28009    0.00605     3.28580
      C    2   -0.19501      0.99963     2.18784    0.00754     3.19501
      C    3   -0.08384      0.99959     2.07249    0.01177     3.08384
      N    4   -0.26385      0.99964     2.75204    0.01218     3.76385
      C    5   -0.08987      0.99956     2.07819    0.01213     3.08987
      C    6   -0.02600      0.99945     2.01357    0.01298     3.02600
      C    7   -0.09600      0.99950     2.08605    0.01044     3.09600
      C    8   -0.10841      0.99955     2.09826    0.01061     3.10841
      C    9   -0.09494      0.99955     2.08446    0.01094     3.09494
      C   10   -0.09352      0.99950     2.08348    0.01054     3.09352
      C   11   -0.01378      0.99946     2.00301    0.01131     3.01378
      C   12   -0.29610      0.99962     2.29021    0.00626     3.29610
      C   13    0.35260      0.99963     1.62565    0.02212     2.64740
      O   14   -0.32945      0.99988     3.32446    0.00511     4.32945
      C   15   -0.23432      0.99958     2.22606    0.00867     3.23432
      C   16   -0.08576      0.99963     2.07595    0.01018     3.08576
      N   17   -0.42296      0.99977     2.91397    0.00923     3.92296
      H   18    0.09971      0.00000     0.39931    0.00098     0.40029
      H   19    0.09478      0.00000     0.40455    0.00068     0.40522
      H   20    0.10012      0.00000     0.39912    0.00076     0.39988
      H   21    0.09572      0.00000     0.40265    0.00163     0.40428
      H   22    0.09579      0.00000     0.40314    0.00107     0.40421
      H   23    0.09576      0.00000     0.40284    0.00140     0.40424
      H   24    0.10810      0.00000     0.39061    0.00129     0.39190
      H   25    0.09799      0.00000     0.40049    0.00153     0.40201
      H   26    0.10972      0.00000     0.38823    0.00205     0.39028
      H   27    0.10165      0.00000     0.39704    0.00131     0.39835
      H   28    0.10334      0.00000     0.39547    0.00119     0.39666
      H   29    0.10366      0.00000     0.39444    0.00190     0.39634
      H   30    0.10082      0.00000     0.39773    0.00145     0.39918
      H   31    0.10503      0.00000     0.39370    0.00127     0.39497
      H   32    0.10308      0.00000     0.39593    0.00099     0.39692
      H   33    0.10704      0.00000     0.39118    0.00177     0.39296
      H   34    0.10646      0.00000     0.39174    0.00180     0.39354
      H   35    0.11104      0.00000     0.38787    0.00109     0.38896
      H   36    0.09163      0.00000     0.40736    0.00101     0.40837
      H   37    0.08296      0.00000     0.41514    0.00189     0.41704
      H   38    0.17344      0.00000     0.32514    0.00142     0.32656
      H   39    0.17919      0.00000     0.31862    0.00219     0.32081
 =======================================================================
   * Total *   -0.00000     16.99319    46.79808    0.20873    64.00000

 Normal termination of Gaussian 16 at Mon Dec 14 14:44:27 2020.
