 Gaussian 16, Revision A.03,

 -----------------------------------------------------------
 # opt freq B3LYP/6-31G(d) empiricaldispersion=gd3bj scf=xqc
 -----------------------------------------------------------

 -------------------------------
 CID_151158809_JID_6086_neutraal
 -------------------------------
 Symbolic Z-matrix:
 Charge =  0 Multiplicity = 1

 SCF Done:  E(RB3LYP) =  -773.709644977     A.U. after   17 cycles
 SCF Done:  E(RB3LYP) =  -773.715114435     A.U. after   15 cycles
 SCF Done:  E(RB3LYP) =  -773.716429621     A.U. after   16 cycles
 SCF Done:  E(RB3LYP) =  -773.717915980     A.U. after   14 cycles
 SCF Done:  E(RB3LYP) =  -773.718435660     A.U. after   13 cycles
 SCF Done:  E(RB3LYP) =  -773.718823479     A.U. after   14 cycles
 SCF Done:  E(RB3LYP) =  -773.719121097     A.U. after   13 cycles
 SCF Done:  E(RB3LYP) =  -773.719234279     A.U. after   12 cycles
 SCF Done:  E(RB3LYP) =  -773.719278421     A.U. after   12 cycles
 SCF Done:  E(RB3LYP) =  -773.719287750     A.U. after   10 cycles
 SCF Done:  E(RB3LYP) =  -773.719291053     A.U. after   10 cycles
 SCF Done:  E(RB3LYP) =  -773.719292641     A.U. after    9 cycles
 SCF Done:  E(RB3LYP) =  -773.719293152     A.U. after    9 cycles
 SCF Done:  E(RB3LYP) =  -773.719293289     A.U. after    8 cycles
 SCF Done:  E(RB3LYP) =  -773.719293329     A.U. after    8 cycles
 Optimization completed.
    -- Stationary point found.
 Normal termination of Gaussian 16 at Thu Dec 10 21:16:00 2020.

 --------------------------------------------------------------------
 #N Geom=AllCheck Guess=TCheck SCRF=Check GenChk RB3LYP/6-31G(d) Freq
 --------------------------------------------------------------------

 Structure from the checkpoint file:  "JID_6086.chk"
 -------------------------------
 CID_151158809_JID_6086_neutraal
 -------------------------------
 Charge =  0 Multiplicity = 1

 SCF Done:  E(RB3LYP) =  -773.719293329     A.U. after    1 cycles

  Exact polarizability: 159.609  16.864 127.052  -5.975  24.849 104.090
 Approx polarizability: 219.976  29.841 224.764 -12.612  77.843 196.264

                      1                      2                      3
                      A                      A                      A
 Frequencies --     19.2439                38.5901                59.0703
 Red. masses --      9.5426                 3.9288                 6.7327
 Frc consts  --      0.0021                 0.0034                 0.0138
 IR Inten    --      0.3352                 0.9366                 0.3843

                      4                      5                      6
                      A                      A                      A
 Frequencies --     71.2292                94.0919               100.5561
 Red. masses --      4.9350                 5.1167                 5.9979
 Frc consts  --      0.0148                 0.0267                 0.0357
 IR Inten    --      0.3473                 4.0449                 6.5821

                      7                      8                      9
                      A                      A                      A
 Frequencies --    142.9605               166.4815               195.1208
 Red. masses --      2.8336                 3.2257                 1.6102
 Frc consts  --      0.0341                 0.0527                 0.0361
 IR Inten    --      6.5153                10.1340                26.2170

                     10                     11                     12
                      A                      A                      A
 Frequencies --    225.1106               238.0200               264.2960
 Red. masses --      4.7282                 1.8584                 6.7875
 Frc consts  --      0.1412                 0.0620                 0.2793
 IR Inten    --      3.9275                 6.4596                 0.9370

                     13                     14                     15
                      A                      A                      A
 Frequencies --    279.2533               305.1664               349.8502
 Red. masses --      1.8711                 4.2290                 5.0397
 Frc consts  --      0.0860                 0.2320                 0.3634
 IR Inten    --      5.3869                14.1930                10.2870

                     16                     17                     18
                      A                      A                      A
 Frequencies --    404.4150               426.4099               431.5840
 Red. masses --      5.5149                 3.3170                 3.9038
 Frc consts  --      0.5314                 0.3553                 0.4284
 IR Inten    --      6.5420                 1.6010                 3.3991

                     19                     20                     21
                      A                      A                      A
 Frequencies --    486.8323               525.3381               542.7851
 Red. masses --      4.2460                 4.6132                11.3792
 Frc consts  --      0.5929                 0.7501                 1.9752
 IR Inten    --     15.6280                 5.1924                10.1983

                     22                     23                     24
                      A                      A                      A
 Frequencies --    553.5608               589.0107               640.7523
 Red. masses --      2.9799                 2.6201                 4.2130
 Frc consts  --      0.5380                 0.5356                 1.0191
 IR Inten    --      8.6028               115.3126                22.5328

                     25                     26                     27
                      A                      A                      A
 Frequencies --    655.7797               680.6224               739.9476
 Red. masses --      5.5157                 3.0801                 4.3548
 Frc consts  --      1.3976                 0.8407                 1.4048
 IR Inten    --      4.6627                65.1271                 5.1462

                     28                     29                     30
                      A                      A                      A
 Frequencies --    788.3472               800.9272               824.5103
 Red. masses --      4.2864                 5.3949                 1.3545
 Frc consts  --      1.5696                 2.0390                 0.5425
 IR Inten    --     33.4393                 6.6057                14.7923

                     31                     32                     33
                      A                      A                      A
 Frequencies --    847.1621               856.9219               866.1335
 Red. masses --      2.0180                 2.8066                 3.1849
 Frc consts  --      0.8533                 1.2143                 1.4077
 IR Inten    --      9.2158                38.4812                39.0649

                     34                     35                     36
                      A                      A                      A
 Frequencies --    937.9360               965.8377               978.1744
 Red. masses --      1.3382                 1.4129                 1.9275
 Frc consts  --      0.6936                 0.7766                 1.0866
 IR Inten    --      9.1390                38.5034               121.6224

                     37                     38                     39
                      A                      A                      A
 Frequencies --   1006.3097              1034.8935              1081.9748
 Red. masses --      4.5325                 2.8505                 6.2712
 Frc consts  --      2.7043                 1.7987                 4.3255
 IR Inten    --     13.3826                 0.4176                57.8868

                     40                     41                     42
                      A                      A                      A
 Frequencies --   1123.7080              1147.2591              1186.8102
 Red. masses --      1.9667                 1.3675                 1.2712
 Frc consts  --      1.4631                 1.0604                 1.0550
 IR Inten    --      3.9778                12.0229                 0.7380

                     43                     44                     45
                      A                      A                      A
 Frequencies --   1214.6693              1216.8315              1220.1492
 Red. masses --      1.2173                 1.4512                 1.4638
 Frc consts  --      1.0582                 1.2660                 1.2840
 IR Inten    --     24.1016                17.5923                16.2470

                     46                     47                     48
                      A                      A                      A
 Frequencies --   1223.2889              1244.0642              1276.0847
 Red. masses --      1.8380                 8.9307                 3.4858
 Frc consts  --      1.6205                 8.1436                 3.3443
 IR Inten    --     23.8397                36.3379               100.1856

                     49                     50                     51
                      A                      A                      A
 Frequencies --   1307.4023              1342.0931              1354.7922
 Red. masses --      4.2919                 1.9258                 2.0033
 Frc consts  --      4.3223                 2.0438                 2.1664
 IR Inten    --    270.9295                19.4719                26.5214

                     52                     53                     54
                      A                      A                      A
 Frequencies --   1384.0115              1427.9743              1442.8044
 Red. masses --      2.6892                 1.3427                 1.2690
 Frc consts  --      3.0349                 1.6131                 1.5565
 IR Inten    --     28.3776                13.9796                 2.7783

                     55                     56                     57
                      A                      A                      A
 Frequencies --   1474.9247              1500.9946              1521.7149
 Red. masses --      2.7845                 1.2008                 1.0475
 Frc consts  --      3.5690                 1.5940                 1.4292
 IR Inten    --      1.3702                14.2383                 5.6970

                     58                     59                     60
                      A                      A                      A
 Frequencies --   1535.6460              1570.4339              1638.1262
 Red. masses --      1.0625                 2.4482                 6.5219
 Frc consts  --      1.4762                 3.5574                10.3114
 IR Inten    --     41.8031                97.3318                12.4031

                     61                     62                     63
                      A                      A                      A
 Frequencies --   1678.2181              1702.9990              1796.0438
 Red. masses --      5.3578                 1.1027                 9.5206
 Frc consts  --      8.8907                 1.8842                18.0945
 IR Inten    --     74.1972                18.4295               269.1206

                     64                     65                     66
                      A                      A                      A
 Frequencies --   2226.1905              3027.0873              3050.2789
 Red. masses --     13.9089                 1.0348                 1.0836
 Frc consts  --     40.6131                 5.5866                 5.9403
 IR Inten    --    300.3430                53.5672                19.7773

                     67                     68                     69
                      A                      A                      A
 Frequencies --   3086.2822              3161.2870              3184.6374
 Red. masses --      1.1067                 1.0998                 1.0890
 Frc consts  --      6.2109                 6.4758                 6.5073
 IR Inten    --     41.9043                27.0221                 6.1632

                     70                     71                     72
                      A                      A                      A
 Frequencies --   3189.6809              3218.5363              3231.2251
 Red. masses --      1.0896                 1.0931                 1.0913
 Frc consts  --      6.5312                 6.6713                 6.7131
 IR Inten    --      9.5298                 5.9266                 9.8958

                     73                     74                     75
                      A                      A                      A
 Frequencies --   3462.0866              3544.6769              3567.1230
 Red. masses --      1.0505                 1.0908                 1.0766
 Frc consts  --      7.4186                 8.0753                 8.0716
 IR Inten    --      0.6546                 0.5636                28.2496

 - Thermochemistry -
 -------------------
 Temperature   298.150 Kelvin.  Pressure   1.00000 Atm.
 Atom     1 has atomic number  6 and mass  12.00000

 Molecular mass:   221.09127 amu.
 Principal axes and moments of inertia in atomic units:
                           1         2         3
     Eigenvalues --  2129.104225359.404946269.04905
           X            0.99978   0.02078  -0.00036
           Y           -0.02078   0.99977   0.00535
           Z            0.00047  -0.00534   0.99999
 This molecule is an asymmetric top.
 Rotational symmetry number  1.
 Warning -- assumption of classical behavior for rotation
           may cause significant error
 Rotational temperatures (Kelvin)      0.04068     0.01616     0.01382
 Rotational constants (GHZ):           0.84765     0.33674     0.28788
 Zero-point vibrational energy     548459.9 (Joules/Mol)
                                  131.08507 (Kcal/Mol)
 Warning -- explicit consideration of  23 degrees of freedom as
           vibrations may cause significant error
 Vibrational temperatures:     27.69    55.52    84.99   102.48   135.38
          (Kelvin)            144.68   205.69   239.53   280.74   323.88
                              342.46   380.26   401.78   439.07   503.36
                              581.86   613.51   620.95   700.44   755.84
                              780.95   796.45   847.46   921.90   943.52
                              979.26  1064.62  1134.26  1152.36  1186.29
                             1218.88  1232.92  1246.17  1349.48  1389.63
                             1407.37  1447.86  1488.98  1556.72  1616.77
                             1650.65  1707.56  1747.64  1750.75  1755.52
                             1760.04  1789.93  1836.00  1881.06  1930.97
                             1949.24  1991.28  2054.54  2075.87  2122.09
                             2159.60  2189.41  2209.45  2259.50  2356.90
                             2414.58  2450.24  2584.11  3202.99  4355.30
                             4388.67  4440.47  4548.39  4581.98  4589.24
                             4630.76  4649.01  4981.17  5100.00  5132.29

 Zero-point correction=                           0.208897 (Hartree/Particle)
 Thermal correction to Energy=                    0.224354
 Thermal correction to Enthalpy=                  0.225298
 Thermal correction to Gibbs Free Energy=         0.164304
 Sum of electronic and zero-point Energies=           -773.510396
 Sum of electronic and thermal Energies=              -773.494939
 Sum of electronic and thermal Enthalpies=            -773.493995
 Sum of electronic and thermal Free Energies=         -773.554989

                     E (Thermal)             CV                S
                      KCal/Mol        Cal/Mol-Kelvin    Cal/Mol-Kelvin
 Total                  140.784             56.179            128.373
 Electronic               0.000              0.000              0.000
 Translational            0.889              2.981             42.083
 Rotational               0.889              2.981             32.636
 Vibrational            139.007             50.218             53.653
 Vibration     1          0.593              1.986              6.711
 Vibration     2          0.594              1.981              5.330
 Vibration     3          0.596              1.974              4.488
 Vibration     4          0.598              1.968              4.119
 Vibration     5          0.603              1.953              3.573
 Vibration     6          0.604              1.949              3.444
 Vibration     7          0.616              1.910              2.764
 Vibration     8          0.624              1.884              2.475
 Vibration     9          0.636              1.847              2.179
 Vibration    10          0.650              1.803              1.918
 Vibration    11          0.656              1.782              1.818
 Vibration    12          0.671              1.738              1.633
 Vibration    13          0.680              1.712              1.538
 Vibration    14          0.696              1.664              1.388
 Vibration    15          0.727              1.576              1.167
 Vibration    16          0.770              1.461              0.947
 Vibration    17          0.788              1.413              0.870
 Vibration    18          0.793              1.401              0.853
 Vibration    19          0.843              1.279              0.692
 Vibration    20          0.880              1.194              0.598
 Vibration    21          0.898              1.155              0.559
 Vibration    22          0.909              1.132              0.537
 Vibration    23          0.946              1.055              0.469

                           ! Non-Optimized Parameters !
 Normal termination of Gaussian 16 at Thu Dec 10 21:24:43 2020.

 ----------------------------------------------------------------------
 # B3LYP/6-311++G(d,p) empiricaldispersion=gd3bj scf=xqc pop=npa geom=c
 heck
 ----------------------------------------------------------------------

 ---------------------------------------
 CID_151158809_JID_6086_Energie_neutraal
 ---------------------------------------
 Structure from the checkpoint file:  "JID_6086.chk"
 Charge =  0 Multiplicity = 1

 SCF Done:  E(RB3LYP) =  -773.945222422     A.U. after   18 cycles
 Normal termination of Gaussian 16 at Thu Dec 10 21:28:21 2020.

 ----------------------------------------------------------------------
 # B3LYP/6-311++G(d,p) empiricaldispersion=gd3bj scf=xqc pop=npa geom=c
 heck
 ----------------------------------------------------------------------

 -------------------------------------
 CID_151158809_JID_6086_Energie_kation
 -------------------------------------
 Structure from the checkpoint file:  "JID_6086.chk"
 Charge =  1 Multiplicity = 2

 SCF Done:  E(UB3LYP) =  -773.648047282     A.U. after   28 cycles
 Normal termination of Gaussian 16 at Thu Dec 10 21:36:30 2020.
 Gaussian 16:  ES64L-G16RevA.03 25-Dec-2016

 ----------------------------------------------------------------------
 # B3LYP/6-311++G(d,p) empiricaldispersion=gd3bj scf=xqc pop=npa geom=c
 heck
 ----------------------------------------------------------------------

 ------------------------------------
 CID_151158809_JID_6086_Energie_anion
 ------------------------------------
 Structure from the checkpoint file:  "JID_6086.chk"
 Charge = -1 Multiplicity = 2

                         Standard orientation:
 ---------------------------------------------------------------------
 Center     Atomic      Atomic             Coordinates (Angstroms)
 Number     Number       Type             X           Y           Z
 ---------------------------------------------------------------------
      1          6           0        4.792945    0.575413   -0.001417
      2          8           0        3.896833   -0.310906   -0.651380
      3          6           0        2.599846   -0.328875   -0.231975
      4          6           0        1.754321   -1.221045   -0.906454
      5          6           0        0.414940   -1.308987   -0.555461
      6          6           0       -0.113976   -0.514686    0.472273
      7          6           0        0.736961    0.364629    1.139137
      8          6           0        2.086228    0.468062    0.797255
      9          6           0       -1.571468   -0.646196    0.874219
     10          6           0       -2.468074   -0.702866   -0.377711
     11          8           0       -3.066081   -1.706785   -0.724490
     12          7           0       -2.654419    0.483801   -1.085402
     13          7           0       -1.655592    1.499733   -1.101559
     14          7           0       -1.796300    2.322249   -0.166235
     15          7           0       -1.719847    3.116642    0.646606
     16          7           0       -1.759771   -1.804898    1.743187
     17          1           0        5.760664    0.430671   -0.484254
     18          1           0        4.881833    0.344657    1.068234
     19          1           0        4.480347    1.621280   -0.119193
     20          1           0        2.171122   -1.828620   -1.702943
     21          1           0       -0.232607   -1.998942   -1.091243
     22          1           0        0.345231    0.983391    1.942118
     23          1           0        2.719130    1.163912    1.334716
     24          1           0       -1.855401    0.245521    1.447514
     25          1           0       -3.041257    0.347531   -2.014018
     26          1           0       -2.759947   -1.974974    1.851773
     27          1           0       -1.403960   -2.628278    1.258870
 ---------------------------------------------------------------------

 SCF Done:  E(UB3LYP) =  -773.955513395     A.U. after   33 cycles
 SCF Done:  E(UB3LYP) =  -773.955513395     a.u. after    1 cycles

 The electronic state is 2-A.
 Alpha  occ. eigenvalues --  -19.06158 -18.99064 -14.28775 -14.24032 -14.23056
 Alpha  occ. eigenvalues --  -14.20749 -14.19890 -10.16273 -10.13799 -10.13223
 Alpha  occ. eigenvalues --  -10.11130 -10.07934 -10.07775 -10.07630 -10.07572
 Alpha  occ. eigenvalues --  -10.07462  -0.98154  -0.97804  -0.94123  -0.86234
 Alpha  occ. eigenvalues --   -0.79835  -0.75507  -0.74120  -0.67129  -0.65419
 Alpha  occ. eigenvalues --   -0.62010  -0.57635  -0.52038  -0.50579  -0.48356
 Alpha  occ. eigenvalues --   -0.44889  -0.44193  -0.41198  -0.39894  -0.37951
 Alpha  occ. eigenvalues --   -0.37599  -0.36624  -0.35879  -0.35164  -0.33722
 Alpha  occ. eigenvalues --   -0.33274  -0.32710  -0.32432  -0.30340  -0.30036
 Alpha  occ. eigenvalues --   -0.28951  -0.28298  -0.26732  -0.25349  -0.23603
 Alpha  occ. eigenvalues --   -0.22919  -0.22248  -0.17135  -0.16015  -0.15334
 Alpha  occ. eigenvalues --   -0.14556  -0.12803  -0.10224   0.04157
 Alpha virt. eigenvalues --    0.05607   0.08056   0.08316   0.08330   0.09002
 Alpha virt. eigenvalues --    0.09625   0.09840   0.10108   0.10665   0.11679
 Alpha virt. eigenvalues --    0.11974   0.12498   0.13286   0.14191   0.15019

  Beta  occ. eigenvalues --  -19.06153 -18.99036 -14.28245 -14.23833 -14.23103
  Beta  occ. eigenvalues --  -14.20014 -14.19889 -10.16250 -10.13798 -10.13188
  Beta  occ. eigenvalues --  -10.11131 -10.07930 -10.07773 -10.07627 -10.07566
  Beta  occ. eigenvalues --  -10.07461  -0.97791  -0.97214  -0.93987  -0.85754
  Beta  occ. eigenvalues --   -0.79827  -0.75498  -0.73639  -0.67107  -0.65410
  Beta  occ. eigenvalues --   -0.61965  -0.57569  -0.52025  -0.50340  -0.48124
  Beta  occ. eigenvalues --   -0.44708  -0.44123  -0.41155  -0.39814  -0.37924
  Beta  occ. eigenvalues --   -0.37404  -0.36017  -0.35491  -0.34609  -0.33532
  Beta  occ. eigenvalues --   -0.32686  -0.32635  -0.32328  -0.29912  -0.29535
  Beta  occ. eigenvalues --   -0.28300  -0.27732  -0.26699  -0.25272  -0.23553
  Beta  occ. eigenvalues --   -0.22696  -0.21085  -0.17027  -0.15989  -0.15250
  Beta  occ. eigenvalues --   -0.14123  -0.12738  -0.10015
  Beta virt. eigenvalues --    0.06387   0.07999   0.08216   0.08646   0.08983
  Beta virt. eigenvalues --    0.09393   0.09906   0.10433   0.10586   0.11611
  Beta virt. eigenvalues --    0.11790   0.12503   0.13007   0.13545   0.14130

 Mulliken charges and spin densities:
               1          2
     1  C    0.506281  -0.837620
     2  O   -0.187311   0.037892
     3  C   -0.776891   0.184507
     4  C   -0.708417   0.174906
     5  C   -0.384447   0.246410
     6  C    2.377287  -0.364319
     7  C   -0.343660  -0.318342
     8  C   -0.056057   0.045752
     9  C   -0.677986  -0.394465
    10  C    0.012528  -0.026114
    11  O   -0.327169   0.010278
    12  N   -0.270810  -0.033955
    13  N   -0.279721   0.042246
    14  N    0.215262   0.104691
    15  N   -0.280539   0.473137
    16  N   -0.326525   0.013119
    17  H   -0.419717   0.591348
    18  H   -0.105735   0.255266
    19  H   -0.077610   0.235288
    20  H    0.128825   0.038973
    21  H    0.092530   0.094932
    22  H    0.083930   0.078602
    23  H   -0.007239   0.193192
    24  H    0.245810  -0.046910
    25  H    0.109707   0.187715
    26  H    0.221778   0.008716
    27  H    0.235894   0.004755
 Sum of Mulliken charges =  -1.00000   1.00000

 Dipole moment (field-independent basis, Debye):
    X=             -0.2192    Y=             -3.9669    Z=              0.4179  Tot=              3.9949
 Quadrupole moment (field-independent basis, Debye-Ang):
   XX=           -157.3469   YY=           -129.6247   ZZ=           -112.9346
   XY=              0.1389   XZ=             -1.6011   YZ=             -1.1834

 Summary of Natural Population Analysis:

                                       Natural Population
                Natural  -----------------------------------------------
    Atom  No    Charge         Core      Valence    Rydberg      Total
 -----------------------------------------------------------------------
      C    1   -0.10152      0.99960     2.09281    0.00910     3.10152
      O    2   -0.27456      0.99986     3.26492    0.00978     4.27456
      C    3    0.15790      0.99939     1.82898    0.01374     2.84210
      C    4   -0.11849      0.99953     2.10953    0.00943     3.11849
      C    5   -0.09396      0.99951     2.08652    0.00793     3.09396
      C    6   -0.02583      0.99949     2.01409    0.01225     3.02583
      C    7   -0.07856      0.99952     2.06969    0.00935     3.07856
      C    8   -0.14212      0.99952     2.13410    0.00850     3.14212
      C    9   -0.06307      0.99952     2.04975    0.01380     3.06307
      C   10    0.33668      0.99966     1.63710    0.02656     2.66332
      O   11   -0.32755      0.99987     3.32078    0.00689     4.32755
      N   12   -0.22390      0.99964     2.71107    0.01319     3.72390
      N   13   -0.16108      0.99972     2.64406    0.01730     3.66108
      N   14    0.14642      0.99970     2.33843    0.01545     3.35358
      N   15    0.05210      0.99982     2.43474    0.01335     3.44790
      N   16   -0.40929      0.99977     2.90122    0.00829     3.90929
      H   17    0.09375      0.00000     0.40501    0.00124     0.40625
      H   18    0.08409      0.00000     0.41446    0.00145     0.41591
      H   19    0.08595      0.00000     0.41261    0.00144     0.41405
      H   20    0.10396      0.00000     0.39498    0.00106     0.39604
      H   21    0.10413      0.00000     0.39447    0.00141     0.39587
      H   22    0.10473      0.00000     0.39381    0.00146     0.39527
      H   23    0.10515      0.00000     0.39373    0.00112     0.39485
      H   24    0.10969      0.00000     0.38853    0.00177     0.39031
      H   25    0.18551      0.00000     0.31113    0.00336     0.31449
      H   26    0.17531      0.00000     0.32308    0.00161     0.32469
      H   27    0.17456      0.00000     0.32362    0.00182     0.32544
 =======================================================================
   * Total *   -0.00000     15.99412    41.79325    0.21263    58.00000

 Normal termination of Gaussian 16 at Thu Dec 10 21:47:58 2020.
