 Gaussian 16, Revision A.03,

 -----------------------------------------------------------
 # opt freq B3LYP/6-31G(d) empiricaldispersion=gd3bj scf=xqc
 -----------------------------------------------------------

 ------------------------------
 CID_87475446_JID_2735_neutraal
 ------------------------------
 Symbolic Z-matrix:
 Charge =  0 Multiplicity = 1

 SCF Done:  E(RB3LYP) =  -860.333627179     A.U. after   14 cycles
 SCF Done:  E(RB3LYP) =  -860.337369625     A.U. after   13 cycles
 SCF Done:  E(RB3LYP) =  -860.338067465     A.U. after   12 cycles
 SCF Done:  E(RB3LYP) =  -860.338749828     A.U. after   12 cycles
 SCF Done:  E(RB3LYP) =  -860.339077570     A.U. after   11 cycles
 SCF Done:  E(RB3LYP) =  -860.339225147     A.U. after   11 cycles
 SCF Done:  E(RB3LYP) =  -860.339282433     A.U. after   11 cycles
 SCF Done:  E(RB3LYP) =  -860.339304320     A.U. after   11 cycles
 SCF Done:  E(RB3LYP) =  -860.339306248     A.U. after   10 cycles
 SCF Done:  E(RB3LYP) =  -860.339307477     A.U. after    9 cycles
 SCF Done:  E(RB3LYP) =  -860.339307753     A.U. after    8 cycles
 SCF Done:  E(RB3LYP) =  -860.339307844     A.U. after    7 cycles
 SCF Done:  E(RB3LYP) =  -860.339307842     A.U. after    7 cycles
 Optimization completed.
    -- Stationary point found.
 Normal termination of Gaussian 16 at Wed Dec  9 17:53:11 2020.

 --------------------------------------------------------------------
 #N Geom=AllCheck Guess=TCheck SCRF=Check GenChk RB3LYP/6-31G(d) Freq
 --------------------------------------------------------------------

 Structure from the checkpoint file:  "JID_2735.chk"
 ------------------------------
 CID_87475446_JID_2735_neutraal
 ------------------------------
 Charge =  0 Multiplicity = 1

 SCF Done:  E(RB3LYP) =  -860.339307842     A.U. after    1 cycles

  Exact polarizability: 220.080 -16.756  91.325  12.171  -2.434 111.847
 Approx polarizability: 296.717 -37.857 132.151  35.450  -7.940 186.644

                      1                      2                      3
                      A                      A                      A
 Frequencies --     30.4472                36.4014                63.7988
 Red. masses --      5.2786                 3.8748                 4.0721
 Frc consts  --      0.0029                 0.0030                 0.0098
 IR Inten    --      3.0033                 3.1371                 1.3309

                      4                      5                      6
                      A                      A                      A
 Frequencies --    135.5695               143.8898               203.1735
 Red. masses --      4.0813                 3.3814                 2.3215
 Frc consts  --      0.0442                 0.0412                 0.0565
 IR Inten    --      2.3658                 2.3917                 4.0470

                      7                      8                      9
                      A                      A                      A
 Frequencies --    228.8217               236.8410               285.9314
 Red. masses --      2.9579                 2.6131                 2.6608
 Frc consts  --      0.0912                 0.0864                 0.1282
 IR Inten    --      1.4585                 1.0268                 1.6370

                     10                     11                     12
                      A                      A                      A
 Frequencies --    342.1361               389.6221               402.1549
 Red. masses --      2.0595                 2.6660                 3.9591
 Frc consts  --      0.1420                 0.2384                 0.3773
 IR Inten    --      0.9344                11.8787                17.6103

                     13                     14                     15
                      A                      A                      A
 Frequencies --    439.7412               450.4911               454.9311
 Red. masses --      1.3751                 2.3661                 2.4441
 Frc consts  --      0.1567                 0.2829                 0.2980
 IR Inten    --     91.1579                28.3185                 6.7049

                     16                     17                     18
                      A                      A                      A
 Frequencies --    492.9814               519.6937               577.2319
 Red. masses --      2.2027                 2.7411                 1.5529
 Frc consts  --      0.3154                 0.4362                 0.3049
 IR Inten    --      2.0107                12.1014                87.0796

                     19                     20                     21
                      A                      A                      A
 Frequencies --    583.2474               618.5400               642.8038
 Red. masses --      1.5588                 1.4603                 5.8075
 Frc consts  --      0.3124                 0.3292                 1.4138
 IR Inten    --     35.2856               129.0679                32.0444

                     22                     23                     24
                      A                      A                      A
 Frequencies --    802.0434               809.5819               834.7920
 Red. masses --      1.5050                 2.2017                 2.2259
 Frc consts  --      0.5704                 0.8502                 0.9139
 IR Inten    --      0.5015                 1.9739                35.4513

                     25                     26                     27
                      A                      A                      A
 Frequencies --    847.4613               862.5751               907.0110
 Red. masses --      2.5304                 2.1285                 1.7543
 Frc consts  --      1.0707                 0.9331                 0.8503
 IR Inten    --     26.4683                17.5197                10.8658

                     28                     29                     30
                      A                      A                      A
 Frequencies --    913.6444               941.9727               989.1885
 Red. masses --      1.7634                 1.5536                 1.5850
 Frc consts  --      0.8673                 0.8122                 0.9138
 IR Inten    --      0.8815                 0.1747                37.4828

                     31                     32                     33
                      A                      A                      A
 Frequencies --   1001.1519              1046.6954              1054.4141
 Red. masses --      1.4982                 1.7838                 2.0827
 Frc consts  --      0.8847                 1.1514                 1.3643
 IR Inten    --     27.3260                 0.8122               143.1774

                     34                     35                     36
                      A                      A                      A
 Frequencies --   1072.6755              1099.2287              1111.4433
 Red. masses --      1.3556                 1.1610                 2.6801
 Frc consts  --      0.9190                 0.8265                 1.9506
 IR Inten    --      3.4498                 0.9698                 4.1569

                     37                     38                     39
                      A                      A                      A
 Frequencies --   1128.8097              1180.1069              1221.3005
 Red. masses --      3.2972                 2.2484                 1.4360
 Frc consts  --      2.4754                 1.8449                 1.2620
 IR Inten    --     21.2521                39.5162                 2.7203

                     40                     41                     42
                      A                      A                      A
 Frequencies --   1240.8145              1269.1795              1300.2924
 Red. masses --      1.5302                 1.6244                 1.2657
 Frc consts  --      1.3880                 1.5417                 1.2608
 IR Inten    --    171.1333               116.9170                 3.7622

                     43                     44                     45
                      A                      A                      A
 Frequencies --   1302.8625              1319.5542              1340.0360
 Red. masses --      1.2694                 1.7514                 1.3336
 Frc consts  --      1.2695                 1.7967                 1.4109
 IR Inten    --      0.8565                62.4432                17.6952

                     46                     47                     48
                      A                      A                      A
 Frequencies --   1350.3392              1357.5669              1378.1417
 Red. masses --      1.3344                 1.6562                 2.0150
 Frc consts  --      1.4336                 1.7984                 2.2548
 IR Inten    --     26.7580                87.6381                60.4897

                     49                     50                     51
                      A                      A                      A
 Frequencies --   1386.5200              1391.8067              1398.6695
 Red. masses --      1.4096                 1.4009                 1.7319
 Frc consts  --      1.5966                 1.5988                 1.9962
 IR Inten    --      4.0447                 3.1520                77.1587

                     52                     53                     54
                      A                      A                      A
 Frequencies --   1401.0083              1405.2908              1427.0348
 Red. masses --      1.4814                 1.6271                 1.5928
 Frc consts  --      1.7132                 1.8932                 1.9111
 IR Inten    --      0.2438                 2.2948               106.5948

                     55                     56                     57
                      A                      A                      A
 Frequencies --   1510.9554              1515.8489              1518.1484
 Red. masses --      1.0876                 1.1006                 1.1033
 Frc consts  --      1.4629                 1.4900                 1.4983
 IR Inten    --      0.1483                 0.6806                 4.8637

                     58                     59                     60
                      A                      A                      A
 Frequencies --   1522.8892              1525.8251              1537.9507
 Red. masses --      1.1449                 1.5432                 1.1324
 Frc consts  --      1.5645                 2.1168                 1.5781
 IR Inten    --      7.4158                 8.2764                 0.8268

                     61                     62                     63
                      A                      A                      A
 Frequencies --   1662.4783              1696.5103              3014.6350
 Red. masses --      1.1932                 3.9196                 1.0707
 Frc consts  --      1.9430                 6.6467                 5.7331
 IR Inten    --    141.8150               781.7866                13.0569

                     64                     65                     66
                      A                      A                      A
 Frequencies --   3023.0353              3025.2176              3029.8593
 Red. masses --      1.0722                 1.0719                 1.0657
 Frc consts  --      5.7731                 5.7796                 5.7642
 IR Inten    --      5.8969                10.7445                 6.9080

                     67                     68                     69
                      A                      A                      A
 Frequencies --   3032.7579              3039.0094              3081.8937
 Red. masses --      1.0674                 1.0685                 1.0959
 Frc consts  --      5.7844                 5.8142                 6.1329
 IR Inten    --      8.7845                87.7292                68.5865

                     70                     71                     72
                      A                      A                      A
 Frequencies --   3082.7432              3084.1400              3087.1492
 Red. masses --      1.0943                 1.0981                 1.0996
 Frc consts  --      6.1272                 6.1541                 6.1747
 IR Inten    --     60.5312                 4.6455                46.8474

                     73                     74                     75
                      A                      A                      A
 Frequencies --   3091.4496              3178.1903              3212.4796
 Red. masses --      1.0986                 1.0891                 1.0893
 Frc consts  --      6.1858                 6.4818                 6.6231
 IR Inten    --     60.5226                 5.6354                 7.4303

                     76                     77                     78
                      A                      A                      A
 Frequencies --   3553.2677              3560.3288              3671.1106
 Red. masses --      1.0463                 1.0750                 1.1012
 Frc consts  --      7.7832                 8.0283                 8.7438
 IR Inten    --     28.5730                19.6225                22.5665

 - Thermochemistry -
 -------------------
 Temperature   298.150 Kelvin.  Pressure   1.00000 Atm.
 Atom     1 has atomic number  6 and mass  12.00000

 Molecular mass:   184.10342 amu.
 Principal axes and moments of inertia in atomic units:
                           1         2         3
     Eigenvalues --   741.451767201.819687352.73872
           X            0.99997   0.00465  -0.00589
           Y           -0.00451   0.99971   0.02366
           Z            0.00600  -0.02363   0.99970
 This molecule is an asymmetric top.
 Rotational symmetry number  1.
 Warning -- assumption of classical behavior for rotation
           may cause significant error
 Rotational temperatures (Kelvin)      0.11682     0.01203     0.01178
 Rotational constants (GHZ):           2.43406     0.25060     0.24545
 Zero-point vibrational energy     649748.9 (Joules/Mol)
                                  155.29372 (Kcal/Mol)
 Warning -- explicit consideration of  20 degrees of freedom as
           vibrations may cause significant error
 Vibrational temperatures:     43.81    52.37    91.79   195.05   207.03
          (Kelvin)            292.32   329.22   340.76   411.39   492.26
                              560.58   578.61   632.69   648.16   654.54
                              709.29   747.72   830.51   839.16   889.94
                              924.85  1153.96  1164.81  1201.08  1219.31
                             1241.05  1304.99  1314.53  1355.29  1423.22
                             1440.43  1505.96  1517.07  1543.34  1581.54
                             1599.12  1624.11  1697.91  1757.18  1785.26
                             1826.07  1870.83  1874.53  1898.54  1928.01
                             1942.84  1953.24  1982.84  1994.89  2002.50
                             2012.37  2015.74  2021.90  2053.18  2173.93
                             2180.97  2184.28  2191.10  2195.32  2212.77
                             2391.94  2440.90  4337.39  4349.47  4352.61
                             4359.29  4363.46  4372.46  4434.16  4435.38
                             4437.39  4441.72  4447.91  4572.71  4622.04
                             5112.36  5122.52  5281.91

 Zero-point correction=                           0.247476 (Hartree/Particle)
 Thermal correction to Energy=                    0.259996
 Thermal correction to Enthalpy=                  0.260940
 Thermal correction to Gibbs Free Energy=         0.207200
 Sum of electronic and zero-point Energies=           -860.091832
 Sum of electronic and thermal Energies=              -860.079312
 Sum of electronic and thermal Enthalpies=            -860.078368
 Sum of electronic and thermal Free Energies=         -860.132108

                     E (Thermal)             CV                S
                      KCal/Mol        Cal/Mol-Kelvin    Cal/Mol-Kelvin
 Total                  163.150             47.797            113.105
 Electronic               0.000              0.000              0.000
 Translational            0.889              2.981             41.537
 Rotational               0.889              2.981             32.040
 Vibrational            161.372             41.836             39.528
 Vibration     1          0.594              1.984              5.800
 Vibration     2          0.594              1.982              5.446
 Vibration     3          0.597              1.972              4.336
 Vibration     4          0.613              1.918              2.865
 Vibration     5          0.616              1.909              2.751
 Vibration     6          0.639              1.835              2.104
 Vibration     7          0.651              1.797              1.888
 Vibration     8          0.656              1.784              1.826
 Vibration     9          0.684              1.700              1.498
 Vibration    10          0.721              1.591              1.202
 Vibration    11          0.758              1.492              1.002
 Vibration    12          0.768              1.465              0.955
 Vibration    13          0.800              1.384              0.827
 Vibration    14          0.809              1.360              0.794
 Vibration    15          0.813              1.350              0.781
 Vibration    16          0.849              1.266              0.676
 Vibration    17          0.875              1.206              0.611
 Vibration    18          0.934              1.081              0.491
 Vibration    19          0.940              1.068              0.479
 Vibration    20          0.978              0.993              0.419

 Optimization completed.
    -- Stationary point found.
 Normal termination of Gaussian 16 at Wed Dec  9 18:00:02 2020.

 ----------------------------------------------------------------------
 # B3LYP/6-311++G(d,p) empiricaldispersion=gd3bj scf=xqc pop=npa geom=c
 heck
 ----------------------------------------------------------------------

 --------------------------------------
 CID_87475446_JID_2735_Energie_neutraal
 --------------------------------------
 Structure from the checkpoint file:  "JID_2735.chk"
 Charge =  0 Multiplicity = 1

 SCF Done:  E(RB3LYP) =  -860.501389211     A.U. after   14 cycles
 Normal termination of Gaussian 16 at Wed Dec  9 18:03:24 2020.

 ----------------------------------------------------------------------
 # B3LYP/6-311++G(d,p) empiricaldispersion=gd3bj scf=xqc pop=npa geom=c
 heck
 ----------------------------------------------------------------------

 ------------------------------------
 CID_87475446_JID_2735_Energie_kation
 ------------------------------------
 Structure from the checkpoint file:  "JID_2735.chk"
 Charge =  1 Multiplicity = 2

 SCF Done:  E(UB3LYP) =  -860.231687886     A.U. after   24 cycles
 Normal termination of Gaussian 16 at Wed Dec  9 18:11:29 2020.
 Gaussian 16:  ES64L-G16RevA.03 25-Dec-2016

 ----------------------------------------------------------------------
 # B3LYP/6-311++G(d,p) empiricaldispersion=gd3bj scf=xqc pop=npa geom=c
 heck
 ----------------------------------------------------------------------

 -----------------------------------
 CID_87475446_JID_2735_Energie_anion
 -----------------------------------
 Structure from the checkpoint file:  "JID_2735.chk"
 Charge = -1 Multiplicity = 2

                         Standard orientation:
 ---------------------------------------------------------------------
 Center     Atomic      Atomic             Coordinates (Angstroms)
 Number     Number       Type             X           Y           Z
 ---------------------------------------------------------------------
      1          6           0        4.392291    0.617194   -0.154449
      2          6           0        3.272731    1.558237    0.309440
      3          6           0        1.910170    1.113809   -0.238701
      4          6           0        1.599065   -0.344718    0.139968
      5          6           0        2.719143   -1.284526   -0.319872
      6          6           0        4.083944   -0.838066    0.222149
      7          7           0        0.315403   -0.800622   -0.390453
      8          6           0       -0.870358   -0.434098    0.174485
      9          6           0       -2.077984   -0.401448   -0.449206
     10          6           0       -3.318814   -0.059275    0.211475
     11         16           0       -4.675907    0.430892   -0.643050
     12          7           0       -3.334286   -0.104590    1.582223
     13          1           0        5.351858    0.924769    0.277763
     14          1           0        4.499208    0.693513   -1.246141
     15          1           0        3.236308    1.563439    1.408597
     16          1           0        3.482955    2.588555   -0.000251
     17          1           0        1.908573    1.195466   -1.335584
     18          1           0        1.107124    1.764972    0.126829
     19          1           0        1.520511   -0.410092    1.234500
     20          1           0        2.749010   -1.283914   -1.420422
     21          1           0        2.487453   -2.309133   -0.008006
     22          1           0        4.868389   -1.506240   -0.151831
     23          1           0        4.085231   -0.936496    1.317258
     24          1           0        0.296330   -0.956927   -1.392850
     25          1           0       -0.784318   -0.157866    1.223921
     26          1           0       -2.142825   -0.566540   -1.519596
     27          1           0       -2.743488   -0.779870    2.050244
     28          1           0       -4.236755    0.055914    2.010248
 ---------------------------------------------------------------------

 SCF Done:  E(UB3LYP) =  -860.501912571     A.U. after   33 cycles
 SCF Done:  E(UB3LYP) =  -860.501912571     a.u. after    1 cycles

 The electronic state is 2-A.
 Alpha  occ. eigenvalues --  -88.64327 -14.21817 -14.20073 -10.11363 -10.09586
 Alpha  occ. eigenvalues --  -10.08095 -10.07869 -10.07807 -10.07538 -10.07402
 Alpha  occ. eigenvalues --  -10.07223 -10.03105  -7.73088  -5.69441  -5.68984
 Alpha  occ. eigenvalues --   -5.68657  -0.83496  -0.80064  -0.73792  -0.66283
 Alpha  occ. eigenvalues --   -0.65512  -0.62611  -0.57957  -0.52575  -0.51932
 Alpha  occ. eigenvalues --   -0.49682  -0.46913  -0.43961  -0.40942  -0.39525
 Alpha  occ. eigenvalues --   -0.37677  -0.36729  -0.35438  -0.34633  -0.32416
 Alpha  occ. eigenvalues --   -0.30573  -0.30043  -0.29363  -0.26118  -0.25991
 Alpha  occ. eigenvalues --   -0.25712  -0.25007  -0.23657  -0.23442  -0.22278
 Alpha  occ. eigenvalues --   -0.21598  -0.19922  -0.11260  -0.08074  -0.06795
 Alpha  occ. eigenvalues --    0.03983
 Alpha virt. eigenvalues --    0.05406   0.07031   0.07344   0.07898   0.08929
 Alpha virt. eigenvalues --    0.09604   0.10263   0.10539   0.10811   0.11710
 Alpha virt. eigenvalues --    0.12646   0.12724   0.13497   0.13986   0.14138

  Beta  occ. eigenvalues --  -88.64290 -14.21713 -14.20013 -10.11357 -10.09180
  Beta  occ. eigenvalues --  -10.07859 -10.07792 -10.07760 -10.07524 -10.07375
  Beta  occ. eigenvalues --  -10.07213 -10.03191  -7.73055  -5.69434  -5.68855
  Beta  occ. eigenvalues --   -5.68637  -0.83239  -0.79764  -0.73721  -0.66100
  Beta  occ. eigenvalues --   -0.65466  -0.62352  -0.57576  -0.52528  -0.51860
  Beta  occ. eigenvalues --   -0.49430  -0.46749  -0.43740  -0.40788  -0.39436
  Beta  occ. eigenvalues --   -0.37441  -0.36664  -0.35399  -0.34561  -0.32259
  Beta  occ. eigenvalues --   -0.30387  -0.29881  -0.29322  -0.26056  -0.25926
  Beta  occ. eigenvalues --   -0.25602  -0.24047  -0.23608  -0.23069  -0.22105
  Beta  occ. eigenvalues --   -0.21270  -0.19240  -0.10585  -0.07428  -0.06563
  Beta virt. eigenvalues --    0.06161   0.07140   0.07579   0.07958   0.08767
  Beta virt. eigenvalues --    0.09326   0.09964   0.10385   0.10692   0.10802
  Beta virt. eigenvalues --    0.11796   0.12756   0.12934   0.13518   0.14059

 Mulliken charges and spin densities:
               1          2
     1  C    0.381343  -0.713359
     2  C   -0.160363  -0.180427
     3  C    0.088816  -0.184539
     4  C   -0.424030   0.012951
     5  C   -0.074382  -0.067181
     6  C   -0.136678  -0.261746
     7  N    0.167579   0.025383
     8  C   -0.183304   0.195423
     9  C   -0.116286  -0.143572
    10  C    0.015601   0.197854
    11  S   -0.855826   0.126639
    12  N   -0.193525   0.024096
    13  H   -0.642873   0.823675
    14  H    0.108940   0.003166
    15  H    0.046394   0.077046
    16  H   -0.125806   0.295502
    17  H    0.093294   0.043589
    18  H    0.150838   0.022059
    19  H    0.167551  -0.030049
    20  H    0.020303   0.088073
    21  H    0.148491   0.036095
    22  H   -0.336323   0.515134
    23  H    0.101475   0.015302
    24  H    0.231543   0.000980
    25  H    0.071100   0.003312
    26  H    0.089509   0.004506
    27  H    0.136656   0.067561
    28  H    0.229963   0.002527
 Sum of Mulliken charges =  -1.00000   1.00000

 Dipole moment (field-independent basis, Debye):
    X=              4.2504    Y=             -2.2981    Z=              1.8065  Tot=              5.1586
 Quadrupole moment (field-independent basis, Debye-Ang):
   XX=           -213.0471   YY=           -106.2647   ZZ=            -92.8734
   XY=              0.9983   XZ=            -12.3784   YZ=             -0.7662

 Summary of Natural Population Analysis:

                                       Natural Population
                Natural  -----------------------------------------------
    Atom  No    Charge         Core      Valence    Rydberg      Total
 -----------------------------------------------------------------------
      C    1   -0.19028      0.99963     2.18171    0.00893     3.19028
      C    2   -0.19215      0.99963     2.18321    0.00931     3.19215
      C    3   -0.19352      0.99961     2.18549    0.00842     3.19352
      C    4   -0.00429      0.99958     1.99365    0.01106     3.00429
      C    5   -0.19129      0.99961     2.18161    0.01007     3.19129
      C    6   -0.19047      0.99963     2.18159    0.00925     3.19047
      N    7   -0.29246      0.99968     2.78265    0.01013     3.79246
      C    8    0.09917      0.99955     1.88831    0.01297     2.90083
      C    9   -0.20495      0.99949     2.19565    0.00981     3.20495
      C   10    0.10930      0.99962     1.87384    0.01723     2.89070
      S   11   -0.15135      4.99956     3.13675    0.01504     8.15135
      N   12   -0.39552      0.99968     2.88443    0.01141     3.89552
      H   13    0.10179      0.00000     0.39617    0.00204     0.39821
      H   14    0.09223      0.00000     0.40661    0.00117     0.40777
      H   15    0.09251      0.00000     0.40642    0.00107     0.40749
      H   16    0.10070      0.00000     0.39832    0.00099     0.39930
      H   17    0.09244      0.00000     0.40636    0.00120     0.40756
      H   18    0.10519      0.00000     0.39392    0.00090     0.39481
      H   19    0.09039      0.00000     0.40790    0.00171     0.40961
      H   20    0.09178      0.00000     0.40702    0.00120     0.40822
      H   21    0.10260      0.00000     0.39632    0.00108     0.39740
      H   22    0.10006      0.00000     0.39884    0.00110     0.39994
      H   23    0.09221      0.00000     0.40674    0.00106     0.40779
      H   24    0.17911      0.00000     0.31873    0.00216     0.32089
      H   25    0.08376      0.00000     0.41513    0.00111     0.41624
      H   26    0.10055      0.00000     0.39798    0.00147     0.39945
      H   27    0.18365      0.00000     0.31398    0.00237     0.31635
      H   28    0.18885      0.00000     0.30848    0.00267     0.31115
 =======================================================================
   * Total *   -0.00000     15.99528    33.84778    0.15694    50.00000

 Normal termination of Gaussian 16 at Wed Dec  9 18:22:06 2020.
