 Gaussian 16, Revision A.03,

 -----------------------------------------------------------
 # opt freq B3LYP/6-31G(d) empiricaldispersion=gd3bj scf=xqc
 -----------------------------------------------------------

 ------------------------------
 CID_80088104_JID_2724_neutraal
 ------------------------------
 Symbolic Z-matrix:
 Charge =  0 Multiplicity = 1

 SCF Done:  E(RB3LYP) =  -502.256289439     A.U. after   16 cycles
 SCF Done:  E(RB3LYP) =  -502.341906393     A.U. after   14 cycles
 SCF Done:  E(RB3LYP) =  -502.436302739     A.U. after   15 cycles
 SCF Done:  E(RB3LYP) =  -502.517384862     A.U. after   13 cycles
 SCF Done:  E(RB3LYP) =  -502.576260274     A.U. after   13 cycles
 SCF Done:  E(RB3LYP) =  -502.588179842     A.U. after   12 cycles
 SCF Done:  E(RB3LYP) =  -502.589829363     A.U. after   13 cycles
 SCF Done:  E(RB3LYP) =  -502.599864606     A.U. after   13 cycles
 SCF Done:  E(RB3LYP) =  -502.597339577     A.U. after   13 cycles
 SCF Done:  E(RB3LYP) =  -502.611110435     A.U. after   11 cycles
 SCF Done:  E(RB3LYP) =  -502.642472656     A.U. after    8 cycles
 SCF Done:  E(RB3LYP) =  -502.642473848     A.U. after    8 cycles
 SCF Done:  E(RB3LYP) =  -502.642474164     A.U. after    8 cycles
 SCF Done:  E(RB3LYP) =  -502.642474292     A.U. after    7 cycles
 SCF Done:  E(RB3LYP) =  -502.642474360     A.U. after    7 cycles
 SCF Done:  E(RB3LYP) =  -502.642474405     A.U. after    7 cycles
 Optimization completed.
    -- Stationary point found.
 Normal termination of Gaussian 16 at Wed Dec  9 18:07:55 2020.

 --------------------------------------------------------------------
 #N Geom=AllCheck Guess=TCheck SCRF=Check GenChk RB3LYP/6-31G(d) Freq
 --------------------------------------------------------------------

 Structure from the checkpoint file:  "JID_2724.chk"
 ------------------------------
 CID_80088104_JID_2724_neutraal
 ------------------------------
 Charge =  0 Multiplicity = 1

 SCF Done:  E(RB3LYP) =  -502.642474405     A.U. after    1 cycles

  Exact polarizability: 122.170   1.847 125.836  -0.866   1.513  93.658
 Approx polarizability: 153.488   5.454 178.926  -0.493   5.276 145.405

                      1                      2                      3
                      A                      A                      A
 Frequencies --     31.6226                51.3600                84.1296
 Red. masses --      4.5794                 3.1142                 5.1787
 Frc consts  --      0.0027                 0.0048                 0.0216
 IR Inten    --      3.0037                 0.1143                 4.4115

                      4                      5                      6
                      A                      A                      A
 Frequencies --    117.1533               140.7944               163.7854
 Red. masses --      2.3727                 2.9462                 2.7447
 Frc consts  --      0.0192                 0.0344                 0.0434
 IR Inten    --      0.4831                 0.8126                 1.3950

                      7                      8                      9
                      A                      A                      A
 Frequencies --    176.8275               185.9044               193.4721
 Red. masses --      1.7729                 1.7514                 1.2813
 Frc consts  --      0.0327                 0.0357                 0.0283
 IR Inten    --      1.9955                 0.6792                 0.4511

                     10                     11                     12
                      A                      A                      A
 Frequencies --    221.6941               249.7080               273.1210
 Red. masses --      1.7596                 1.3023                 2.0992
 Frc consts  --      0.0510                 0.0478                 0.0923
 IR Inten    --      0.4628                 0.6399                 0.9922

                     13                     14                     15
                      A                      A                      A
 Frequencies --    315.3767               329.8778               367.3938
 Red. masses --      2.3776                 2.5684                 2.2428
 Frc consts  --      0.1393                 0.1647                 0.1784
 IR Inten    --      2.0895                 2.0333                 0.0459

                     16                     17                     18
                      A                      A                      A
 Frequencies --    371.1910               391.9647               414.8505
 Red. masses --      2.8279                 2.9892                 2.6224
 Frc consts  --      0.2296                 0.2706                 0.2659
 IR Inten    --      0.2923                 0.8575                 3.3195

                     19                     20                     21
                      A                      A                      A
 Frequencies --    494.6619               509.6135               583.9970
 Red. masses --      2.1139                 3.1069                 2.4080
 Frc consts  --      0.3048                 0.4754                 0.4839
 IR Inten    --      2.2303                 4.0387                 2.0497

                     22                     23                     24
                      A                      A                      A
 Frequencies --    595.7715               727.8231               792.3933
 Red. masses --      2.8894                 1.9033                 1.2698
 Frc consts  --      0.6043                 0.5940                 0.4697
 IR Inten    --      6.1407                 2.8194                 6.9444

                     25                     26                     27
                      A                      A                      A
 Frequencies --    803.3103               822.9354               834.2486
 Red. masses --      1.4977                 1.6132                 2.4879
 Frc consts  --      0.5694                 0.6437                 1.0202
 IR Inten    --      1.2652                 2.4206                 5.1676

                     28                     29                     30
                      A                      A                      A
 Frequencies --    864.5700               907.5566               940.2704
 Red. masses --      1.5464                 2.1782                 1.8449
 Frc consts  --      0.6811                 1.0571                 0.9610
 IR Inten    --      1.9673                 1.4152                 1.7284

                     31                     32                     33
                      A                      A                      A
 Frequencies --    960.8243              1015.4944              1025.4111
 Red. masses --      2.2415                 2.4016                 2.0843
 Frc consts  --      1.2192                 1.4592                 1.2912
 IR Inten    --      7.0567                10.5200                14.2914

                     34                     35                     36
                      A                      A                      A
 Frequencies --   1035.8275              1045.9509              1060.4487
 Red. masses --      1.4429                 1.9395                 2.4142
 Frc consts  --      0.9121                 1.2501                 1.5995
 IR Inten    --      3.2019                13.4526                 2.3960

                     37                     38                     39
                      A                      A                      A
 Frequencies --   1081.1940              1098.1687              1132.2550
 Red. masses --      2.1913                 1.9076                 1.8980
 Frc consts  --      1.5092                 1.3554                 1.4336
 IR Inten    --     21.3478                 5.2226                23.0840

                     40                     41                     42
                      A                      A                      A
 Frequencies --   1145.3785              1179.7874              1195.2382
 Red. masses --      1.9602                 1.9792                 1.7306
 Frc consts  --      1.5151                 1.6231                 1.4567
 IR Inten    --      5.9875                18.0237                15.4865

                     43                     44                     45
                      A                      A                      A
 Frequencies --   1235.7545              1273.8851              1298.8975
 Red. masses --      2.0830                 1.3655                 1.2300
 Frc consts  --      1.8742                 1.3055                 1.2227
 IR Inten    --     18.0793                 8.6088                 0.5097

                     46                     47                     48
                      A                      A                      A
 Frequencies --   1314.6930              1319.3684              1351.4028
 Red. masses --      1.3702                 1.1882                 1.2979
 Frc consts  --      1.3953                 1.2186                 1.3966
 IR Inten    --      5.5181                 1.8824                13.2410

                     49                     50                     51
                      A                      A                      A
 Frequencies --   1365.0840              1387.8542              1390.0656
 Red. masses --      1.3208                 1.3270                 1.3279
 Frc consts  --      1.4502                 1.5059                 1.5118
 IR Inten    --      2.1985                 1.1817                 9.5623

                     52                     53                     54
                      A                      A                      A
 Frequencies --   1399.0496              1407.6923              1419.8536
 Red. masses --      1.2988                 1.2821                 1.3990
 Frc consts  --      1.4978                 1.4969                 1.6617
 IR Inten    --     24.9169                12.4257                20.6494

                     55                     56                     57
                      A                      A                      A
 Frequencies --   1437.0438              1439.8940              1443.3140
 Red. masses --      1.2506                 1.3574                 1.2341
 Frc consts  --      1.5216                 1.6581                 1.5146
 IR Inten    --     17.4867                 0.1374                 1.2578

                     58                     59                     60
                      A                      A                      A
 Frequencies --   1445.4555              1494.4751              1511.1142
 Red. masses --      1.2812                 1.0942                 1.0643
 Frc consts  --      1.5771                 1.4398                 1.4319
 IR Inten    --     16.8386                 5.8723                 2.2472

                     61                     62                     63
                      A                      A                      A
 Frequencies --   1520.5991              1523.5344              1526.6739
 Red. masses --      1.0629                 1.0500                 1.0468
 Frc consts  --      1.4481                 1.4359                 1.4375
 IR Inten    --      2.4301                 8.2568                 2.1499

                     64                     65                     66
                      A                      A                      A
 Frequencies --   1528.7912              1533.6553              1537.1586
 Red. masses --      1.0685                 1.0459                 1.0590
 Frc consts  --      1.4714                 1.4495                 1.4743
 IR Inten    --      6.6893                 2.7803                10.8668

                     67                     68                     69
                      A                      A                      A
 Frequencies --   1538.4755              1549.9740              1554.5454
 Red. masses --      1.0480                 1.0744                 1.0825
 Frc consts  --      1.4615                 1.5208                 1.5414
 IR Inten    --      3.4299                 1.4163                 4.5253

                     70                     71                     72
                      A                      A                      A
 Frequencies --   2370.7900              2915.8960              3004.1988
 Red. masses --     12.5932                 1.0819                 1.0719
 Frc consts  --     41.7034                 5.4200                 5.6999
 IR Inten    --      9.5750                62.4190                50.0710

                     73                     74                     75
                      A                      A                      A
 Frequencies --   3044.9598              3050.1814              3055.8447
 Red. masses --      1.0722                 1.0391                 1.0379
 Frc consts  --      5.8574                 5.6961                 5.7105
 IR Inten    --     34.4212                18.2477                16.7964

                     76                     77                     78
                      A                      A                      A
 Frequencies --   3058.1678              3059.0141              3062.2314
 Red. masses --      1.0451                 1.0597                 1.0624
 Frc consts  --      5.7586                 5.8425                 5.8695
 IR Inten    --     14.7346                33.1605                42.7548

                     79                     80                     81
                      A                      A                      A
 Frequencies --   3066.4042              3090.5543              3098.1439
 Red. masses --      1.0585                 1.0982                 1.1000
 Frc consts  --      5.8643                 6.1803                 6.2209
 IR Inten    --     14.7898                33.4909                 3.0086

                     82                     83                     84
                      A                      A                      A
 Frequencies --   3102.1220              3109.3303              3114.1130
 Red. masses --      1.0983                 1.0959                 1.1019
 Frc consts  --      6.2270                 6.2422                 6.2961
 IR Inten    --     13.9012                 0.9812                32.2412

                     85                     86                     87
                      A                      A                      A
 Frequencies --   3123.1743              3123.8145              3131.3346
 Red. masses --      1.0988                 1.0978                 1.1001
 Frc consts  --      6.3148                 6.3114                 6.3553
 IR Inten    --     25.3939                62.1743                56.2316

                     88                     89                     90
                      A                      A                      A
 Frequencies --   3132.8374              3135.1345              3150.4785
 Red. masses --      1.0918                 1.1000                 1.1004
 Frc consts  --      6.3134                 6.3701                 6.4351
 IR Inten    --     36.7580                33.1903                21.3714

 - Thermochemistry -
 -------------------
 Temperature   298.150 Kelvin.  Pressure   1.00000 Atm.
 Atom     1 has atomic number  6 and mass  12.00000

 Molecular mass:   168.16265 amu.
 Principal axes and moments of inertia in atomic units:
                           1         2         3
     Eigenvalues --  1688.110172516.137233771.66271
           X            0.99815  -0.06045  -0.00593
           Y            0.06044   0.99817  -0.00125
           Z            0.00600   0.00089   0.99998
 This molecule is an asymmetric top.
 Rotational symmetry number  1.
 Warning -- assumption of classical behavior for rotation
           may cause significant error
 Rotational temperatures (Kelvin)      0.05131     0.03442     0.02296
 Rotational constants (GHZ):           1.06909     0.71727     0.47850
 Zero-point vibrational energy     769679.6 (Joules/Mol)
                                  183.95785 (Kcal/Mol)
 Warning -- explicit consideration of  22 degrees of freedom as
           vibrations may cause significant error
 Vibrational temperatures:     45.50    73.90   121.04   168.56   202.57
          (Kelvin)            235.65   254.42   267.47   278.36   318.97
                              359.27   392.96   453.76   474.62   528.60
                              534.06   563.95   596.88   711.71   733.22
                              840.24   857.18  1047.18  1140.08  1155.78
                             1184.02  1200.30  1243.92  1305.77  1352.84
                             1382.41  1461.07  1475.34  1490.32  1504.89
                             1525.75  1555.60  1580.02  1629.06  1647.94
                             1697.45  1719.68  1777.98  1832.84  1868.82
                             1891.55  1898.28  1944.37  1964.05  1996.81
                             1999.99  2012.92  2025.36  2042.85  2067.59
                             2071.69  2076.61  2079.69  2150.22  2174.16
                             2187.80  2192.03  2196.54  2199.59  2206.59
                             2211.63  2213.52  2230.07  2236.64  3411.04
                             4195.32  4322.37  4381.02  4388.53  4396.68
                             4400.02  4401.24  4405.87  4411.87  4446.62
                             4457.54  4463.26  4473.63  4480.51  4493.55
                             4494.47  4505.29  4507.45  4510.76  4532.84

 Zero-point correction=                           0.293155 (Hartree/Particle)
 Thermal correction to Energy=                    0.307599
 Thermal correction to Enthalpy=                  0.308543
 Thermal correction to Gibbs Free Energy=         0.252053
 Sum of electronic and zero-point Energies=           -502.349319
 Sum of electronic and thermal Energies=              -502.334875
 Sum of electronic and thermal Enthalpies=            -502.333931
 Sum of electronic and thermal Free Energies=         -502.390421

                     E (Thermal)             CV                S
                      KCal/Mol        Cal/Mol-Kelvin    Cal/Mol-Kelvin
 Total                  193.021             53.407            118.894
 Electronic               0.000              0.000              0.000
 Translational            0.889              2.981             41.267
 Rotational               0.889              2.981             31.150
 Vibrational            191.244             47.446             46.477
 Vibration     1          0.594              1.983              5.725
 Vibration     2          0.596              1.977              4.764
 Vibration     3          0.601              1.960              3.792
 Vibration     4          0.608              1.935              3.147
 Vibration     5          0.615              1.912              2.793
 Vibration     6          0.623              1.887              2.506
 Vibration     7          0.628              1.871              2.362
 Vibration     8          0.632              1.859              2.268
 Vibration     9          0.635              1.849              2.194
 Vibration    10          0.648              1.808              1.945
 Vibration    11          0.663              1.763              1.733
 Vibration    12          0.676              1.723              1.576
 Vibration    13          0.703              1.644              1.334
 Vibration    14          0.713              1.616              1.261
 Vibration    15          0.740              1.539              1.091
 Vibration    16          0.743              1.531              1.075
 Vibration    17          0.759              1.487              0.993
 Vibration    18          0.778              1.438              0.910
 Vibration    19          0.850              1.262              0.672
 Vibration    20          0.865              1.229              0.635
 Vibration    21          0.941              1.066              0.478
 Vibration    22          0.954              1.041              0.457

                           ! Non-Optimized Parameters !
 Normal termination of Gaussian 16 at Wed Dec  9 18:17:51 2020.

 ----------------------------------------------------------------------
 # B3LYP/6-311++G(d,p) empiricaldispersion=gd3bj scf=xqc pop=npa geom=c
 heck
 ----------------------------------------------------------------------

 --------------------------------------
 CID_80088104_JID_2724_Energie_neutraal
 --------------------------------------
 Structure from the checkpoint file:  "JID_2724.chk"
 Charge =  0 Multiplicity = 1

 SCF Done:  E(RB3LYP) =  -502.783333877     A.U. after   13 cycles
 Normal termination of Gaussian 16 at Wed Dec  9 18:22:07 2020.

 ----------------------------------------------------------------------
 # B3LYP/6-311++G(d,p) empiricaldispersion=gd3bj scf=xqc pop=npa geom=c
 heck
 ----------------------------------------------------------------------

 ------------------------------------
 CID_80088104_JID_2724_Energie_kation
 ------------------------------------
 Structure from the checkpoint file:  "JID_2724.chk"
 Charge =  1 Multiplicity = 2

 SCF Done:  E(UB3LYP) =  -502.491459587     A.U. after   19 cycles
 Normal termination of Gaussian 16 at Wed Dec  9 18:30:25 2020.
 Gaussian 16:  ES64L-G16RevA.03 25-Dec-2016

 ----------------------------------------------------------------------
 # B3LYP/6-311++G(d,p) empiricaldispersion=gd3bj scf=xqc pop=npa geom=c
 heck
 ----------------------------------------------------------------------

 -----------------------------------
 CID_80088104_JID_2724_Energie_anion
 -----------------------------------
 Structure from the checkpoint file:  "JID_2724.chk"
 Charge = -1 Multiplicity = 2

                         Standard orientation:
 ---------------------------------------------------------------------
 Center     Atomic      Atomic             Coordinates (Angstroms)
 Number     Number       Type             X           Y           Z
 ---------------------------------------------------------------------
      1          6           0       -3.339128    1.088954   -0.205622
      2          6           0       -2.229552    0.199326    0.364110
      3          6           0       -0.955025    0.196311   -0.498255
      4          6           0       -0.412214    1.631441   -0.688967
      5          6           0       -0.159816    2.386652    0.618054
      6          7           0        0.113342   -0.658462    0.073064
      7          6           0       -0.281058   -1.835389    0.849808
      8          6           0       -0.976060   -2.976908    0.086404
      9          6           0        1.188783   -0.958419   -0.861956
     10          6           0        2.584589   -0.836519   -0.211379
     11          6           0        2.918588    0.541773    0.148896
     12          7           0        3.184249    1.641953    0.406290
     13          1           0       -3.073621    2.149882   -0.176656
     14          1           0       -4.262526    0.963385    0.369794
     15          1           0       -3.558531    0.827811   -1.248138
     16          1           0       -1.982466    0.522385    1.382036
     17          1           0       -2.622904   -0.817998    0.447836
     18          1           0       -1.248496   -0.185699   -1.495604
     19          1           0        0.523840    1.592879   -1.255884
     20          1           0       -1.114789    2.187185   -1.321612
     21          1           0        0.440131    1.779000    1.299831
     22          1           0        0.393511    3.311084    0.426949
     23          1           0       -1.094820    2.654030    1.123228
     24          1           0        0.627887   -2.231646    1.320974
     25          1           0       -0.915237   -1.507547    1.676695
     26          1           0       -0.331807   -3.409243   -0.686490
     27          1           0       -1.241269   -3.783473    0.779536
     28          1           0       -1.894914   -2.637535   -0.402052
     29          1           0        1.111803   -1.974788   -1.278489
     30          1           0        1.140704   -0.278111   -1.714365
     31          1           0        2.633990   -1.456816    0.690570
     32          1           0        3.351732   -1.212546   -0.900196
 ---------------------------------------------------------------------

 SCF Done:  E(UB3LYP) =  -502.772335939     A.U. after   30 cycles

 The electronic state is 2-A.
 Alpha  occ. eigenvalues --  -14.20931 -14.20306 -10.11068 -10.10987 -10.10517
 Alpha  occ. eigenvalues --  -10.10198 -10.09050 -10.06932 -10.06717 -10.06512
 Alpha  occ. eigenvalues --  -10.05403 -10.05212  -0.82819  -0.80633  -0.70966
 Alpha  occ. eigenvalues --   -0.68480  -0.65303  -0.63284  -0.58137  -0.55662
 Alpha  occ. eigenvalues --   -0.52279  -0.49912  -0.44202  -0.41989  -0.39878
 Alpha  occ. eigenvalues --   -0.38696  -0.37408  -0.35091  -0.33839  -0.33225
 Alpha  occ. eigenvalues --   -0.31367  -0.31081  -0.30625  -0.29090  -0.28642
 Alpha  occ. eigenvalues --   -0.27238  -0.26768  -0.26693  -0.26092  -0.25257
 Alpha  occ. eigenvalues --   -0.24629  -0.23762  -0.23298  -0.22736  -0.22093
 Alpha  occ. eigenvalues --   -0.21503  -0.11388   0.04295
 Alpha virt. eigenvalues --    0.06295   0.07431   0.07799   0.08723   0.09269
 Alpha virt. eigenvalues --    0.09619   0.10249   0.10420   0.11283   0.12005
 Alpha virt. eigenvalues --    0.12226   0.12548   0.13101   0.13171   0.13337

  Beta  occ. eigenvalues --  -14.20914 -14.20300 -10.11065 -10.10946 -10.10486
  Beta  occ. eigenvalues --  -10.10191 -10.09032 -10.06918 -10.06694 -10.06506
  Beta  occ. eigenvalues --  -10.05400 -10.05162  -0.82794  -0.80601  -0.70934
  Beta  occ. eigenvalues --   -0.68425  -0.65273  -0.63237  -0.58091  -0.55582
  Beta  occ. eigenvalues --   -0.52231  -0.49846  -0.44157  -0.41936  -0.39835
  Beta  occ. eigenvalues --   -0.38663  -0.37373  -0.35039  -0.33809  -0.33175
  Beta  occ. eigenvalues --   -0.31332  -0.31053  -0.30587  -0.29024  -0.28605
  Beta  occ. eigenvalues --   -0.27202  -0.26739  -0.26650  -0.26072  -0.25221
  Beta  occ. eigenvalues --   -0.24610  -0.23736  -0.23249  -0.22707  -0.22052
  Beta  occ. eigenvalues --   -0.21478  -0.11348
  Beta virt. eigenvalues --    0.06535   0.07409   0.08023   0.08292   0.09153
  Beta virt. eigenvalues --    0.09782   0.10055   0.10687   0.10789   0.11661
  Beta virt. eigenvalues --    0.12297   0.12433   0.12831   0.13245   0.13426

 Mulliken charges and spin densities:
               1          2
     1  C    0.792613  -1.557382
     2  C   -0.810535   0.739584
     3  C   -0.459791  -0.039187
     4  C    0.602910  -0.591118
     5  C   -0.562680  -0.089627
     6  N    0.355723  -0.068026
     7  C   -1.359862   1.227846
     8  C    1.957225  -2.444955
     9  C    0.357218  -0.508490
    10  C    0.380379  -0.547979
    11  C    0.477022  -0.554500
    12  N   -0.347051   0.056921
    13  H    0.062108   0.075317
    14  H   -0.266101   0.408123
    15  H   -0.071099   0.220460
    16  H    0.051072   0.112806
    17  H    0.023934   0.131812
    18  H   -0.170949   0.351612
    19  H    0.041393   0.049164
    20  H    0.123828   0.031744
    21  H    0.163822   0.024542
    22  H    0.141125   0.005840
    23  H    0.053369   0.046346
    24  H   -0.462150   0.603359
    25  H   -0.084637   0.246730
    26  H   -0.054510   0.199022
    27  H   -0.528433   0.676385
    28  H   -0.299527   0.424780
    29  H   -0.673561   0.829660
    30  H    0.125884   0.030104
    31  H   -0.018704   0.184013
    32  H   -0.540036   0.725094
 Sum of Mulliken charges =  -1.00000   1.00000

 Dipole moment (field-independent basis, Debye):
    X=             -1.5316    Y=              5.2643    Z=              0.5569  Tot=              5.5108
 Quadrupole moment (field-independent basis, Debye-Ang):
   XX=           -142.9705   YY=           -138.1149   ZZ=           -108.7601
   XY=             -4.4719   XZ=              1.9214   YZ=             -3.4764

 Summary of Natural Population Analysis:

                                       Natural Population
                Natural  -----------------------------------------------
    Atom  No    Charge         Core      Valence    Rydberg      Total
 -----------------------------------------------------------------------
      C    1   -0.28480      0.99966     2.27992    0.00522     3.28480
      C    2   -0.20069      0.99962     2.19213    0.00895     3.20069
      C    3    0.00534      0.99957     1.98276    0.01233     2.99466
      C    4   -0.19584      0.99961     2.18784    0.00839     3.19584
      C    5   -0.29046      0.99966     2.28565    0.00514     3.29046
      N    6   -0.29227      0.99970     2.77802    0.01455     3.79227
      C    7   -0.08462      0.99961     2.07299    0.01202     3.08462
      C    8   -0.29783      0.99966     2.29314    0.00503     3.29783
      C    9   -0.07744      0.99959     2.06500    0.01285     3.07744
      C   10   -0.25013      0.99953     2.24072    0.00988     3.25013
      C   11    0.16871      0.99966     1.81448    0.01715     2.83129
      N   12   -0.19404      0.99979     2.68342    0.01083     3.69404
      H   13    0.09514      0.00000     0.40399    0.00087     0.40486
      H   14    0.10011      0.00000     0.39908    0.00081     0.39989
      H   15    0.09757      0.00000     0.40148    0.00095     0.40243
      H   16    0.09771      0.00000     0.40100    0.00130     0.40229
      H   17    0.10278      0.00000     0.39582    0.00140     0.39722
      H   18    0.08288      0.00000     0.41542    0.00170     0.41712
      H   19    0.09957      0.00000     0.39924    0.00119     0.40043
      H   20    0.09446      0.00000     0.40461    0.00093     0.40554
      H   21    0.10753      0.00000     0.39122    0.00125     0.39247
      H   22    0.09997      0.00000     0.39932    0.00070     0.40003
      H   23    0.09054      0.00000     0.40861    0.00085     0.40946
      H   24    0.09399      0.00000     0.40449    0.00151     0.40601
      H   25    0.09572      0.00000     0.40273    0.00155     0.40428
      H   26    0.09994      0.00000     0.39816    0.00190     0.40006
      H   27    0.10212      0.00000     0.39617    0.00171     0.39788
      H   28    0.09607      0.00000     0.40244    0.00149     0.40393
      H   29    0.09719      0.00000     0.39985    0.00296     0.40281
      H   30    0.09818      0.00000     0.39977    0.00205     0.40182
      H   31    0.12067      0.00000     0.37720    0.00212     0.37933
      H   32    0.12193      0.00000     0.37531    0.00276     0.37807
 =======================================================================
   * Total *    0.00000     11.99566    34.85199    0.15235    47.00000

 Normal termination of Gaussian 16 at Wed Dec  9 18:42:34 2020.
