 Gaussian 16, Revision A.03,

 -----------------------------------------------------------
 # opt freq B3LYP/6-31G(d) empiricaldispersion=gd3bj scf=xqc
 -----------------------------------------------------------

 -------------------------------
 CID_147041120_JID_2098_neutraal
 -------------------------------
 Symbolic Z-matrix:
 Charge =  0 Multiplicity = 1

 SCF Done:  E(RB3LYP) =  -469.319718666     A.U. after   13 cycles
 SCF Done:  E(RB3LYP) =  -469.324463143     A.U. after   10 cycles
 SCF Done:  E(RB3LYP) =  -469.324781789     A.U. after   10 cycles
 SCF Done:  E(RB3LYP) =  -469.324896152     A.U. after    9 cycles
 SCF Done:  E(RB3LYP) =  -469.324946044     A.U. after    9 cycles
 SCF Done:  E(RB3LYP) =  -469.324992709     A.U. after    9 cycles
 SCF Done:  E(RB3LYP) =  -469.325024130     A.U. after    8 cycles
 SCF Done:  E(RB3LYP) =  -469.325065421     A.U. after    9 cycles
 SCF Done:  E(RB3LYP) =  -469.325066855     A.U. after    7 cycles
 SCF Done:  E(RB3LYP) =  -469.325076487     A.U. after    8 cycles
 SCF Done:  E(RB3LYP) =  -469.325182137     A.U. after    9 cycles
 SCF Done:  E(RB3LYP) =  -469.325183442     A.U. after    7 cycles
 SCF Done:  E(RB3LYP) =  -469.325186511     A.U. after    8 cycles
 SCF Done:  E(RB3LYP) =  -469.325186595     A.U. after    6 cycles
 SCF Done:  E(RB3LYP) =  -469.325186731     A.U. after    7 cycles
 SCF Done:  E(RB3LYP) =  -469.325186738     A.U. after    5 cycles
 Optimization completed.
    -- Stationary point found.
 Normal termination of Gaussian 16 at Wed Dec  9 16:51:31 2020.

 --------------------------------------------------------------------
 #N Geom=AllCheck Guess=TCheck SCRF=Check GenChk RB3LYP/6-31G(d) Freq
 --------------------------------------------------------------------

 Structure from the checkpoint file:  "JID_2098.chk"
 -------------------------------
 CID_147041120_JID_2098_neutraal
 -------------------------------
 Charge =  0 Multiplicity = 1

 SCF Done:  E(RB3LYP) =  -469.325186738     A.U. after    1 cycles

  Exact polarizability: 141.661  -0.324 111.671   0.221  -0.159 102.259
 Approx polarizability: 164.074  -0.932 160.103  -0.209  -1.406 161.723

                      1                      2                      3
                      A                      A                      A
 Frequencies --     36.8394                58.8710                74.8755
 Red. masses --      2.3095                 2.5232                 2.6699
 Frc consts  --      0.0018                 0.0052                 0.0088
 IR Inten    --      0.0024                 0.0061                 0.0129

                      4                      5                      6
                      A                      A                      A
 Frequencies --     95.8098               156.7409               224.1268
 Red. masses --      3.1917                 2.5451                 2.5215
 Frc consts  --      0.0173                 0.0368                 0.0746
 IR Inten    --      0.0051                 0.0108                 0.1287

                      7                      8                      9
                      A                      A                      A
 Frequencies --    237.6819               253.0339               265.0109
 Red. masses --      2.7277                 1.1877                 2.1210
 Frc consts  --      0.0908                 0.0448                 0.0878
 IR Inten    --      0.0922                 0.0132                 0.1345

                     10                     11                     12
                      A                      A                      A
 Frequencies --    350.1767               367.9681               403.0202
 Red. masses --      2.3117                 2.1091                 2.0187
 Frc consts  --      0.1670                 0.1683                 0.1932
 IR Inten    --      0.1947                 0.3705                 0.0481

                     13                     14                     15
                      A                      A                      A
 Frequencies --    423.3086               525.6139               563.2743
 Red. masses --      2.1191                 2.1363                 2.0431
 Frc consts  --      0.2237                 0.3477                 0.3819
 IR Inten    --      0.2428                 1.0486                 0.7612

                     16                     17                     18
                      A                      A                      A
 Frequencies --    593.7179               652.6389               736.4443
 Red. masses --      2.6524                 2.6622                 2.4793
 Frc consts  --      0.5509                 0.6681                 0.7922
 IR Inten    --      0.0373                 1.5284                 0.9739

                     19                     20                     21
                      A                      A                      A
 Frequencies --    796.6869               819.0555               833.1681
 Red. masses --      2.1739                 1.6605                 1.4223
 Frc consts  --      0.8129                 0.6563                 0.5817
 IR Inten    --      0.6509                 0.2136                 0.2865

                     22                     23                     24
                      A                      A                      A
 Frequencies --    861.1840               875.0774               889.5412
 Red. masses --      2.3560                 2.0275                 2.2246
 Frc consts  --      1.0295                 0.9147                 1.0371
 IR Inten    --      0.1447                 0.5938                 3.0134

                     25                     26                     27
                      A                      A                      A
 Frequencies --    911.8589               914.5694               917.2526
 Red. masses --      2.1287                 1.8632                 2.2860
 Frc consts  --      1.0429                 0.9182                 1.1332
 IR Inten    --      1.2795                 0.8114                 0.5607

                     28                     29                     30
                      A                      A                      A
 Frequencies --    936.8056               956.6802               968.0897
 Red. masses --      1.6629                 1.5873                 2.2104
 Frc consts  --      0.8598                 0.8559                 1.2205
 IR Inten    --      1.7440                 0.7089                 0.5813

                     31                     32                     33
                      A                      A                      A
 Frequencies --    974.9381               982.1837              1001.7621
 Red. masses --      1.6413                 1.5667                 1.6570
 Frc consts  --      0.9192                 0.8905                 0.9797
 IR Inten    --      0.8251                 2.4989                 2.9716

                     34                     35                     36
                      A                      A                      A
 Frequencies --   1037.7571              1046.9173              1055.8621
 Red. masses --      1.6927                 1.7742                 1.3493
 Frc consts  --      1.0740                 1.1457                 0.8863
 IR Inten    --      0.8459                 0.9524                 4.3690

                     37                     38                     39
                      A                      A                      A
 Frequencies --   1074.2558              1089.5955              1119.2362
 Red. masses --      1.7095                 1.5174                 1.7322
 Frc consts  --      1.1623                 1.0614                 1.2785
 IR Inten    --      0.4080                 0.0035                 1.6621

                     40                     41                     42
                      A                      A                      A
 Frequencies --   1153.2918              1157.8842              1171.3483
 Red. masses --      1.2570                 1.7165                 1.8662
 Frc consts  --      0.9851                 1.3559                 1.5087
 IR Inten    --      0.3205                 1.6787                 1.1933

                     43                     44                     45
                      A                      A                      A
 Frequencies --   1193.4626              1206.0592              1238.9406
 Red. masses --      1.4447                 1.5649                 1.9098
 Frc consts  --      1.2124                 1.3411                 1.7272
 IR Inten    --      0.4699                 2.3096                 1.4660

                     46                     47                     48
                      A                      A                      A
 Frequencies --   1244.7512              1255.7521              1266.2578
 Red. masses --      1.5919                 1.4931                 1.4370
 Frc consts  --      1.4532                 1.3872                 1.3575
 IR Inten    --      0.2355                 1.8514                 0.9410

                     49                     50                     51
                      A                      A                      A
 Frequencies --   1271.7895              1288.0777              1294.2290
 Red. masses --      1.2668                 1.3884                 1.4957
 Frc consts  --      1.2073                 1.3572                 1.4761
 IR Inten    --      1.0939                 0.0445                 1.5435

                     52                     53                     54
                      A                      A                      A
 Frequencies --   1303.4198              1313.4153              1334.2353
 Red. masses --      1.4295                 1.3918                 1.4712
 Frc consts  --      1.4309                 1.4146                 1.5431
 IR Inten    --      0.6218                 0.6608                 4.0134

                     55                     56                     57
                      A                      A                      A
 Frequencies --   1354.8330              1361.1000              1379.2057
 Red. masses --      1.3966                 1.3176                 1.5984
 Frc consts  --      1.5104                 1.4382                 1.7914
 IR Inten    --      0.1923                 0.1517                15.9153

                     58                     59                     60
                      A                      A                      A
 Frequencies --   1381.1720              1397.8649              1439.5118
 Red. masses --      1.5512                 1.4775                 1.2713
 Frc consts  --      1.7435                 1.7010                 1.5522
 IR Inten    --      6.3588                 1.7228                 3.1628

                     61                     62                     63
                      A                      A                      A
 Frequencies --   1443.2033              1501.2129              1515.4084
 Red. masses --      1.9233                 1.1076                 1.1637
 Frc consts  --      2.3602                 1.4707                 1.5745
 IR Inten    --      1.4033                 1.4448                 3.2152

                     64                     65                     66
                      A                      A                      A
 Frequencies --   1518.7933              1522.2526              1523.8545
 Red. masses --      1.0987                 1.1312                 1.1385
 Frc consts  --      1.4932                 1.5444                 1.5576
 IR Inten    --      3.4518                 0.8442                 1.2937

                     67                     68                     69
                      A                      A                      A
 Frequencies --   1526.1341              1528.6452              1531.3097
 Red. masses --      1.1507                 1.0521                 1.1166
 Frc consts  --      1.5790                 1.4485                 1.5427
 IR Inten    --      0.8461                 1.2149                 5.0062

                     70                     71                     72
                      A                      A                      A
 Frequencies --   1544.4761              3023.1471              3034.3095
 Red. masses --      1.1057                 1.0688                 1.0610
 Frc consts  --      1.5541                 5.7553                 5.7555
 IR Inten    --      0.3596                31.8532                 8.8612

                     73                     74                     75
                      A                      A                      A
 Frequencies --   3038.2660              3046.0127              3050.2849
 Red. masses --      1.0577                 1.0684                 1.0614
 Frc consts  --      5.7525                 5.8403                 5.8187
 IR Inten    --     45.0952                35.1366                29.1157

                     76                     77                     78
                      A                      A                      A
 Frequencies --   3054.2792              3059.0811              3061.8793
 Red. masses --      1.0721                 1.0638                 1.0678
 Frc consts  --      5.8923                 5.8655                 5.8981
 IR Inten    --     24.4182                38.5818                45.8696

                     79                     80                     81
                      A                      A                      A
 Frequencies --   3073.3454              3089.8881              3091.4929
 Red. masses --      1.0640                 1.0972                 1.0957
 Frc consts  --      5.9213                 6.1721                 6.1701
 IR Inten    --     19.3992                43.2988                 6.5979

                     82                     83                     84
                      A                      A                      A
 Frequencies --   3100.1965              3102.1631              3104.0815
 Red. masses --      1.1006                 1.1024                 1.1025
 Frc consts  --      6.2324                 6.2506                 6.2588
 IR Inten    --     44.6182                48.2389                34.3987

                     85                     86                     87
                      A                      A                      A
 Frequencies --   3109.7695              3110.2488              3110.4471
 Red. masses --      1.0916                 1.1010                 1.1067
 Frc consts  --      6.2196                 6.2750                 6.3088
 IR Inten    --      9.8399                99.2352                12.4023

                     88                     89                     90
                      A                      A                      A
 Frequencies --   3121.9360              3133.1609              3210.2977
 Red. masses --      1.1028                 1.0575                 1.1165
 Frc consts  --      6.3326                 6.1167                 6.7794
 IR Inten    --     38.7401                33.6887                18.7593

 - Thermochemistry -
 -------------------
 Temperature   298.150 Kelvin.  Pressure   1.00000 Atm.
 Atom     1 has atomic number  6 and mass  12.00000

 Molecular mass:   164.15650 amu.
 Principal axes and moments of inertia in atomic units:
                           1         2         3
     Eigenvalues --   778.628973901.513414271.44333
           X            0.99999   0.00312  -0.00221
           Y           -0.00312   0.99999  -0.00390
           Z            0.00220   0.00391   0.99999
 This molecule is an asymmetric top.
 Rotational symmetry number  1.
 Warning -- assumption of classical behavior for rotation
           may cause significant error
 Rotational temperatures (Kelvin)      0.11124     0.02220     0.02028
 Rotational constants (GHZ):           2.31784     0.46257     0.42251
 Zero-point vibrational energy     777380.1 (Joules/Mol)
                                  185.79831 (Kcal/Mol)
 Warning -- explicit consideration of  16 degrees of freedom as
           vibrations may cause significant error
 Vibrational temperatures:     53.00    84.70   107.73   137.85   225.52
          (Kelvin)            322.47   341.97   364.06   381.29   503.83
                              529.42   579.86   609.05   756.24   810.43
                              854.23   939.00  1059.58  1146.25  1178.44
                             1198.74  1239.05  1259.04  1279.85  1311.96
                             1315.86  1319.72  1347.85  1376.45  1392.87
                             1402.72  1413.14  1441.31  1493.10  1506.28
                             1519.15  1545.61  1567.68  1610.33  1659.33
                             1665.94  1685.31  1717.13  1735.25  1782.56
                             1790.92  1806.75  1821.86  1829.82  1853.26
                             1862.11  1875.33  1889.71  1919.67  1949.30
                             1958.32  1984.37  1987.20  2011.22  2071.14
                             2076.45  2159.91  2180.33  2185.20  2190.18
                             2192.49  2195.77  2199.38  2203.21  2222.16
                             4349.63  4365.69  4371.39  4382.53  4388.68
                             4394.43  4401.34  4405.36  4421.86  4445.66
                             4447.97  4460.49  4463.32  4466.08  4474.26
                             4474.95  4475.24  4491.77  4507.92  4618.90

 Zero-point correction=                           0.296088 (Hartree/Particle)
 Thermal correction to Energy=                    0.308092
 Thermal correction to Enthalpy=                  0.309037
 Thermal correction to Gibbs Free Energy=         0.257327
 Sum of electronic and zero-point Energies=           -469.029098
 Sum of electronic and thermal Energies=              -469.017094
 Sum of electronic and thermal Enthalpies=            -469.016150
 Sum of electronic and thermal Free Energies=         -469.067860

                     E (Thermal)             CV                S
                      KCal/Mol        Cal/Mol-Kelvin    Cal/Mol-Kelvin
 Total                  193.331             47.146            108.832
 Electronic               0.000              0.000              0.000
 Translational            0.889              2.981             41.195
 Rotational               0.889              2.981             30.940
 Vibrational            191.553             41.185             36.696
 Vibration     1          0.594              1.982              5.422
 Vibration     2          0.596              1.974              4.495
 Vibration     3          0.599              1.966              4.021
 Vibration     4          0.603              1.952              3.538
 Vibration     5          0.620              1.895              2.589
 Vibration     6          0.649              1.804              1.926
 Vibration     7          0.656              1.783              1.820
 Vibration     8          0.664              1.758              1.709
 Vibration     9          0.671              1.737              1.629
 Vibration    10          0.727              1.575              1.165
 Vibration    11          0.741              1.538              1.088
 Vibration    12          0.768              1.464              0.952
 Vibration    13          0.785              1.420              0.881
 Vibration    14          0.881              1.193              0.597
 Vibration    15          0.919              1.111              0.517
 Vibration    16          0.951              1.045              0.461

 Optimization completed.
    -- Stationary point found.
 Normal termination of Gaussian 16 at Wed Dec  9 16:59:03 2020.

 ----------------------------------------------------------------------
 # B3LYP/6-311++G(d,p) empiricaldispersion=gd3bj scf=xqc pop=npa geom=c
 heck
 ----------------------------------------------------------------------

 ---------------------------------------
 CID_147041120_JID_2098_Energie_neutraal
 ---------------------------------------
 Structure from the checkpoint file:  "JID_2098.chk"
 Charge =  0 Multiplicity = 1

 SCF Done:  E(RB3LYP) =  -469.447379673     A.U. after   13 cycles
 Normal termination of Gaussian 16 at Wed Dec  9 17:01:59 2020.

 ----------------------------------------------------------------------
 # B3LYP/6-311++G(d,p) empiricaldispersion=gd3bj scf=xqc pop=npa geom=c
 heck
 ----------------------------------------------------------------------

 -------------------------------------
 CID_147041120_JID_2098_Energie_kation
 -------------------------------------
 Structure from the checkpoint file:  "JID_2098.chk"
 Charge =  1 Multiplicity = 2

 SCF Done:  E(UB3LYP) =  -469.126876279     A.U. after   20 cycles
 Normal termination of Gaussian 16 at Wed Dec  9 17:08:24 2020.
 Gaussian 16:  ES64L-G16RevA.03 25-Dec-2016

 ----------------------------------------------------------------------
 # B3LYP/6-311++G(d,p) empiricaldispersion=gd3bj scf=xqc pop=npa geom=c
 heck
 ----------------------------------------------------------------------

 ------------------------------------
 CID_147041120_JID_2098_Energie_anion
 ------------------------------------
 Structure from the checkpoint file:  "JID_2098.chk"
 Charge = -1 Multiplicity = 2

                         Standard orientation:
 ---------------------------------------------------------------------
 Center     Atomic      Atomic             Coordinates (Angstroms)
 Number     Number       Type             X           Y           Z
 ---------------------------------------------------------------------
      1          6           0        4.075421    0.946865   -0.494154
      2          6           0        3.159760    0.164068    0.442006
      3          6           0        2.545812   -1.114038   -0.194966
      4          6           0        1.235812   -0.322823   -0.472292
      5          6           0        1.721002    0.744788    0.551137
      6          6           0       -0.072096   -1.061226   -0.300885
      7          6           0       -0.727537   -1.271704    1.044761
      8          6           0       -1.379425   -0.380195    0.009504
      9          6           0       -1.502116    1.136335    0.252871
     10          6           0       -2.976825    1.484513   -0.084039
     11          6           0       -3.719409    0.136318   -0.065995
     12          6           0       -2.681027   -0.831056   -0.650861
     13          1           0        5.010019    0.403310   -0.678170
     14          1           0        3.596095    1.121072   -1.465640
     15          1           0        4.331090    1.925579   -0.070241
     16          1           0        3.665916    0.005386    1.401159
     17          1           0        3.069208   -1.545691   -1.055680
     18          1           0        2.376342   -1.902129    0.546590
     19          1           0        1.266551    0.103841   -1.483272
     20          1           0        1.296292    0.591685    1.547336
     21          1           0        1.587868    1.796770    0.277792
     22          1           0       -0.155948   -1.908346   -0.984407
     23          1           0       -0.285911   -0.793775    1.915910
     24          1           0       -1.177569   -2.239697    1.253260
     25          1           0       -0.810771    1.708565   -0.374469
     26          1           0       -1.264232    1.385284    1.292760
     27          1           0       -3.036604    1.916346   -1.090848
     28          1           0       -3.405135    2.218803    0.605823
     29          1           0       -3.949483   -0.153589    0.967489
     30          1           0       -4.661616    0.157780   -0.623949
     31          1           0       -2.907018   -1.886463   -0.463175
     32          1           0       -2.621325   -0.695796   -1.740793
 ---------------------------------------------------------------------

 SCF Done:  E(UB3LYP) =  -469.429605054     A.U. after   30 cycles

 The electronic state is 2-A.
 Alpha  occ. eigenvalues --  -10.07535 -10.06995 -10.06915 -10.06886 -10.06260
 Alpha  occ. eigenvalues --  -10.06230 -10.06217 -10.06120 -10.06052 -10.05864
 Alpha  occ. eigenvalues --  -10.05826 -10.05568  -0.77522  -0.74160  -0.70013
 Alpha  occ. eigenvalues --   -0.62144  -0.60829  -0.56376  -0.55464  -0.54093
 Alpha  occ. eigenvalues --   -0.47914  -0.46586  -0.43162  -0.42166  -0.39070
 Alpha  occ. eigenvalues --   -0.38353  -0.36973  -0.36222  -0.33006  -0.31758
 Alpha  occ. eigenvalues --   -0.31042  -0.29992  -0.28640  -0.27869  -0.27380
 Alpha  occ. eigenvalues --   -0.26255  -0.24250  -0.23949  -0.23361  -0.22923
 Alpha  occ. eigenvalues --   -0.22125  -0.21228  -0.20181  -0.19634  -0.16963
 Alpha  occ. eigenvalues --   -0.15555   0.04622
 Alpha virt. eigenvalues --    0.06430   0.07364   0.07494   0.08419   0.08740
 Alpha virt. eigenvalues --    0.08924   0.09880   0.10162   0.10559   0.11052
 Alpha virt. eigenvalues --    0.11200   0.11696   0.12227   0.13121   0.13464

  Beta  occ. eigenvalues --  -10.07537 -10.06987 -10.06910 -10.06876 -10.06241
  Beta  occ. eigenvalues --  -10.06211 -10.06197 -10.06102 -10.06038 -10.05852
  Beta  occ. eigenvalues --  -10.05810 -10.05535  -0.77507  -0.74141  -0.69989
  Beta  occ. eigenvalues --   -0.62104  -0.60791  -0.56335  -0.55426  -0.54050
  Beta  occ. eigenvalues --   -0.47861  -0.46527  -0.43122  -0.42118  -0.39036
  Beta  occ. eigenvalues --   -0.38319  -0.36939  -0.36185  -0.32973  -0.31729
  Beta  occ. eigenvalues --   -0.31011  -0.29960  -0.28615  -0.27841  -0.27343
  Beta  occ. eigenvalues --   -0.26227  -0.24218  -0.23917  -0.23333  -0.22893
  Beta  occ. eigenvalues --   -0.22093  -0.21195  -0.20158  -0.19610  -0.16943
  Beta  occ. eigenvalues --   -0.15539
  Beta virt. eigenvalues --    0.06661   0.07284   0.07952   0.08046   0.08978
  Beta virt. eigenvalues --    0.09176   0.09399   0.10325   0.10470   0.10981
  Beta virt. eigenvalues --    0.11470   0.11604   0.12174   0.12521   0.13460

 Mulliken charges and spin densities:
               1          2
     1  C    1.632871  -2.345831
     2  C   -2.011126   2.411248
     3  C    0.440239  -1.181046
     4  C   -0.339348   0.463563
     5  C    0.489018  -0.899778
     6  C    0.007356   0.126494
     7  C    0.844045  -1.804685
     8  C   -0.479453   1.276266
     9  C    0.071334  -0.481688
    10  C    0.441254  -1.065877
    11  C   -0.179054  -0.297763
    12  C    0.532268  -0.722784
    13  H   -0.201796   0.337463
    14  H   -0.273868   0.425301
    15  H   -0.286909   0.421730
    16  H   -0.444404   0.647604
    17  H   -0.219748   0.362275
    18  H    0.076468   0.060720
    19  H   -0.008801   0.200314
    20  H   -0.219682   0.342576
    21  H   -0.023559   0.183639
    22  H    0.007269   0.203340
    23  H    0.112038   0.025891
    24  H   -0.163524   0.327704
    25  H    0.006347   0.149142
    26  H   -0.054461   0.217629
    27  H   -0.075836   0.209292
    28  H   -0.202225   0.354666
    29  H    0.067933   0.057933
    30  H   -0.214655   0.374834
    31  H   -0.213381   0.349059
    32  H   -0.116610   0.270768
 Sum of Mulliken charges =  -1.00000   1.00000

 Dipole moment (field-independent basis, Debye):
    X=             -1.8596    Y=             -1.5202    Z=              0.4972  Tot=              2.4528
 Quadrupole moment (field-independent basis, Debye-Ang):
   XX=           -163.8189   YY=           -117.2233   ZZ=           -111.9465
   XY=             -4.4543   XZ=             -0.9602   YZ=              0.1296

 Summary of Natural Population Analysis:

                                       Natural Population
                Natural  -----------------------------------------------
    Atom  No    Charge         Core      Valence    Rydberg      Total
 -----------------------------------------------------------------------
      C    1   -0.28375      0.99965     2.27816    0.00594     3.28375
      C    2   -0.11100      0.99962     2.10015    0.01123     3.11100
      C    3   -0.18060      0.99961     2.17377    0.00722     3.18060
      C    4   -0.10841      0.99959     2.09790    0.01092     3.10841
      C    5   -0.18567      0.99961     2.17753    0.00853     3.18567
      C    6   -0.10322      0.99952     2.09365    0.01005     3.10322
      C    7   -0.19178      0.99957     2.18328    0.00894     3.19178
      C    8   -0.04248      0.99955     2.02993    0.01300     3.04248
      C    9   -0.18896      0.99960     2.18062    0.00874     3.18896
      C   10   -0.18700      0.99964     2.18057    0.00679     3.18700
      C   11   -0.18778      0.99964     2.18134    0.00681     3.18778
      C   12   -0.18451      0.99959     2.17574    0.00918     3.18451
      H   13    0.09808      0.00000     0.40069    0.00123     0.40192
      H   14    0.09632      0.00000     0.40228    0.00141     0.40368
      H   15    0.09914      0.00000     0.39960    0.00126     0.40086
      H   16    0.09240      0.00000     0.40646    0.00114     0.40760
      H   17    0.09486      0.00000     0.40403    0.00111     0.40514
      H   18    0.09786      0.00000     0.40072    0.00142     0.40214
      H   19    0.09825      0.00000     0.40008    0.00167     0.40175
      H   20    0.09833      0.00000     0.39983    0.00183     0.40167
      H   21    0.09884      0.00000     0.40001    0.00115     0.40116
      H   22    0.10111      0.00000     0.39734    0.00155     0.39889
      H   23    0.10012      0.00000     0.39856    0.00132     0.39988
      H   24    0.10023      0.00000     0.39876    0.00101     0.39977
      H   25    0.10226      0.00000     0.39633    0.00141     0.39774
      H   26    0.09916      0.00000     0.39942    0.00142     0.40084
      H   27    0.09369      0.00000     0.40476    0.00155     0.40631
      H   28    0.09787      0.00000     0.40098    0.00115     0.40213
      H   29    0.09308      0.00000     0.40545    0.00147     0.40692
      H   30    0.09780      0.00000     0.40091    0.00129     0.40220
      H   31    0.10039      0.00000     0.39836    0.00125     0.39961
      H   32    0.09538      0.00000     0.40322    0.00140     0.40462
 =======================================================================
   * Total *   -0.00000     11.99520    33.87043    0.13438    46.00000

 Normal termination of Gaussian 16 at Wed Dec  9 17:17:14 2020.
