 Gaussian 16, Revision A.03,

 -----------------------------------------------------------
 # opt freq B3LYP/6-31G(d) empiricaldispersion=gd3bj scf=xqc
 -----------------------------------------------------------

 ------------------------------
 CID_61755107_JID_8436_neutraal
 ------------------------------
 Symbolic Z-matrix:
 Charge =  0 Multiplicity = 1

 SCF Done:  E(RB3LYP) =  -826.582029840     A.U. after   14 cycles
 SCF Done:  E(RB3LYP) =  -826.586039163     A.U. after   11 cycles
 SCF Done:  E(RB3LYP) =  -826.586601936     A.U. after   12 cycles
 SCF Done:  E(RB3LYP) =  -826.586778766     A.U. after   11 cycles
 SCF Done:  E(RB3LYP) =  -826.586966152     A.U. after   11 cycles
 SCF Done:  E(RB3LYP) =  -826.586388627     A.U. after   14 cycles
 SCF Done:  E(RB3LYP) =  -826.587460988     A.U. after   12 cycles
 SCF Done:  E(RB3LYP) =  -826.587670210     A.U. after   12 cycles
 SCF Done:  E(RB3LYP) =  -826.587789198     A.U. after   11 cycles
 SCF Done:  E(RB3LYP) =  -826.587814596     A.U. after   11 cycles
 SCF Done:  E(RB3LYP) =  -826.587824714     A.U. after    9 cycles
 SCF Done:  E(RB3LYP) =  -826.587825638     A.U. after    8 cycles
 SCF Done:  E(RB3LYP) =  -826.587825750     A.U. after    7 cycles
 SCF Done:  E(RB3LYP) =  -826.587825772     A.U. after    6 cycles
 Optimization completed.
    -- Stationary point found.
 Normal termination of Gaussian 16 at Sun Dec 13 20:12:16 2020.

 --------------------------------------------------------------------
 #N Geom=AllCheck Guess=TCheck SCRF=Check GenChk RB3LYP/6-31G(d) Freq
 --------------------------------------------------------------------

 Structure from the checkpoint file:  "JID_8436.chk"
 ------------------------------
 CID_61755107_JID_8436_neutraal
 ------------------------------
 Charge =  0 Multiplicity = 1

 SCF Done:  E(RB3LYP) =  -826.587825771     A.U. after    1 cycles

  Exact polarizability: 224.148   4.236 142.993   4.644 -15.461 125.993
 Approx polarizability: 281.287   5.524 221.234   8.976 -42.542 195.617

                      1                      2                      3
                      A                      A                      A
 Frequencies --     18.1370                27.7213                40.8572
 Red. masses --      4.3161                 2.8422                 3.7382
 Frc consts  --      0.0008                 0.0013                 0.0037
 IR Inten    --      0.0227                 0.3599                 0.6487

                      4                      5                      6
                      A                      A                      A
 Frequencies --     47.8885                81.4969                87.3824
 Red. masses --      3.2017                 3.0509                 3.2691
 Frc consts  --      0.0043                 0.0119                 0.0147
 IR Inten    --      1.1487                 3.4240                 1.3168

                      7                      8                      9
                      A                      A                      A
 Frequencies --    101.0398               127.1507               152.2028
 Red. masses --      2.8870                 2.4725                 3.6556
 Frc consts  --      0.0174                 0.0236                 0.0499
 IR Inten    --      4.6214                 0.9931                 2.0256

                     10                     11                     12
                      A                      A                      A
 Frequencies --    184.2131               209.0932               223.5265
 Red. masses --      2.4171                 2.1375                 2.7764
 Frc consts  --      0.0483                 0.0551                 0.0817
 IR Inten    --      0.8225                 0.5635                 0.8794

                     13                     14                     15
                      A                      A                      A
 Frequencies --    235.9176               263.2059               284.3272
 Red. masses --      1.6564                 2.1417                 2.3436
 Frc consts  --      0.0543                 0.0874                 0.1116
 IR Inten    --      4.0501                 0.1616                 0.8043

                     16                     17                     18
                      A                      A                      A
 Frequencies --    310.6608               325.5550               338.1958
 Red. masses --      2.5974                 2.7196                 2.4814
 Frc consts  --      0.1477                 0.1698                 0.1672
 IR Inten    --      0.1548                 3.2078                 1.8051

                     19                     20                     21
                      A                      A                      A
 Frequencies --    377.8960               387.1331               430.1072
 Red. masses --      4.0180                 3.3148                 2.9210
 Frc consts  --      0.3381                 0.2927                 0.3184
 IR Inten    --      2.7556                 4.6945                 3.4368

                     22                     23                     24
                      A                      A                      A
 Frequencies --    468.2930               482.9050               514.1574
 Red. masses --      3.2150                 7.2083                 3.5286
 Frc consts  --      0.4154                 0.9904                 0.5496
 IR Inten    --      0.5133                 0.6629                 1.4682

                     25                     26                     27
                      A                      A                      A
 Frequencies --    532.5407               580.9540               591.9090
 Red. masses --      2.8336                 5.6960                 4.3084
 Frc consts  --      0.4735                 1.1327                 0.8894
 IR Inten    --      1.1106                 2.7257                 8.6884

                     28                     29                     30
                      A                      A                      A
 Frequencies --    655.1907               699.3370               719.3211
 Red. masses --      2.7907                 3.9918                 3.7442
 Frc consts  --      0.7058                 1.1503                 1.1414
 IR Inten    --      0.2581                10.2580                 8.8231

                     31                     32                     33
                      A                      A                      A
 Frequencies --    759.8559               766.8814               779.1466
 Red. masses --      2.7852                 2.4383                 1.9881
 Frc consts  --      0.9475                 0.8449                 0.7111
 IR Inten    --      7.8896                13.4846                 3.2830

                     34                     35                     36
                      A                      A                      A
 Frequencies --    830.8472               847.1799               883.3556
 Red. masses --      1.4465                 1.5853                 1.4561
 Frc consts  --      0.5883                 0.6704                 0.6694
 IR Inten    --     70.3230                24.3366                12.6046

                     37                     38                     39
                      A                      A                      A
 Frequencies --    890.4912               906.9209               912.3056
 Red. masses --      2.9627                 2.5357                 1.5692
 Frc consts  --      1.3842                 1.2288                 0.7695
 IR Inten    --      6.0842                22.4319                 7.3342

                     40                     41                     42
                      A                      A                      A
 Frequencies --    934.3556               945.7854               955.6303
 Red. masses --      1.8878                 2.1781                 1.3565
 Frc consts  --      0.9710                 1.1479                 0.7299
 IR Inten    --      4.9119                19.5975                 0.4732

                     43                     44                     45
                      A                      A                      A
 Frequencies --    967.8848              1029.4823              1034.1813
 Red. masses --      2.2308                 1.6703                 2.6425
 Frc consts  --      1.2313                 1.0430                 1.6652
 IR Inten    --     11.1096                 8.1376                26.6831

                     46                     47                     48
                      A                      A                      A
 Frequencies --   1051.8192              1086.6811              1094.4819
 Red. masses --      2.2659                 3.1700                 2.5207
 Frc consts  --      1.4770                 2.2055                 1.7791
 IR Inten    --     21.4258                14.3271                13.6775

                     49                     50                     51
                      A                      A                      A
 Frequencies --   1102.7504              1138.9523              1150.9265
 Red. masses --      3.0024                 1.9936                 2.5835
 Frc consts  --      2.1512                 1.5237                 2.0163
 IR Inten    --     81.5868                 4.0184                44.3920

                     52                     53                     54
                      A                      A                      A
 Frequencies --   1156.8244              1161.7162              1173.5803
 Red. masses --      1.6472                 2.0025                 2.6454
 Frc consts  --      1.2988                 1.5923                 2.1467
 IR Inten    --     26.7634                35.1307                52.8902

                     55                     56                     57
                      A                      A                      A
 Frequencies --   1182.3209              1187.3016              1207.1911
 Red. masses --      2.3501                 1.4251                 1.9124
 Frc consts  --      1.9356                 1.1836                 1.6420
 IR Inten    --     77.7351                 7.5044                14.6859

                     58                     59                     60
                      A                      A                      A
 Frequencies --   1229.1610              1236.2212              1266.0922
 Red. masses --      1.6686                 2.1458                 1.1782
 Frc consts  --      1.4853                 1.9321                 1.1128
 IR Inten    --     32.9818                 8.3522                 7.6435

                     61                     62                     63
                      A                      A                      A
 Frequencies --   1275.8418              1291.1328              1298.6018
 Red. masses --      1.2437                 1.4454                 1.4722
 Frc consts  --      1.1928                 1.4196                 1.4627
 IR Inten    --      8.9290                30.2807                43.5341

                     64                     65                     66
                      A                      A                      A
 Frequencies --   1307.7845              1315.0879              1330.0418
 Red. masses --      1.3167                 1.2680                 1.6563
 Frc consts  --      1.3268                 1.2921                 1.7263
 IR Inten    --      8.4898                 4.8518                88.5720

                     67                     68                     69
                      A                      A                      A
 Frequencies --   1339.1074              1357.2914              1375.1395
 Red. masses --      2.4147                 2.2243                 1.7575
 Frc consts  --      2.5512                 2.4143                 1.9581
 IR Inten    --    245.0550                10.5297                84.2288

                     70                     71                     72
                      A                      A                      A
 Frequencies --   1395.0681              1410.8208              1420.2427
 Red. masses --      1.3873                 1.3772                 1.4057
 Frc consts  --      1.5908                 1.6151                 1.6706
 IR Inten    --      2.6158                 1.3392                15.4969

                     73                     74                     75
                      A                      A                      A
 Frequencies --   1428.1374              1429.1163              1445.1961
 Red. masses --      1.3554                 1.3873                 1.2803
 Frc consts  --      1.6287                 1.6694                 1.5755
 IR Inten    --     11.3337                14.3418                13.9797

                     76                     77                     78
                      A                      A                      A
 Frequencies --   1473.5800              1502.9644              1509.3175
 Red. masses --      3.6152                 1.1647                 1.0871
 Frc consts  --      4.6252                 1.5501                 1.4591
 IR Inten    --     23.0894                 6.3655                 1.2867

                     79                     80                     81
                      A                      A                      A
 Frequencies --   1514.5200              1520.4944              1523.0732
 Red. masses --      1.0493                 1.1374                 1.1334
 Frc consts  --      1.4181                 1.5493                 1.5491
 IR Inten    --      3.1343                34.4676                15.3143

                     82                     83                     84
                      A                      A                      A
 Frequencies --   1526.1604              1530.2595              1532.1703
 Red. masses --      1.1349                 1.0849                 1.0616
 Frc consts  --      1.5574                 1.4968                 1.4684
 IR Inten    --      3.1347                31.8147                15.9360

                     85                     86                     87
                      A                      A                      A
 Frequencies --   1539.9807              1548.6300              1558.0709
 Red. masses --      1.0885                 1.0708                 1.0993
 Frc consts  --      1.5209                 1.5131                 1.5723
 IR Inten    --     13.4806                 7.9065                16.8548

                     88                     89                     90
                      A                      A                      A
 Frequencies --   1558.4352              1643.9020              1678.5997
 Red. masses --      2.8930                 7.8948                 6.6461
 Frc consts  --      4.1398                12.5702                11.0334
 IR Inten    --    191.9441                24.1555                 2.2849

                     91                     92                     93
                      A                      A                      A
 Frequencies --   2930.6641              2983.7058              2995.1209
 Red. masses --      1.0726                 1.0476                 1.0505
 Frc consts  --      5.4275                 5.4947                 5.5524
 IR Inten    --     65.2108                29.8195               104.5293

                     94                     95                     96
                      A                      A                      A
 Frequencies --   3025.5781              3031.0355              3032.3270
 Red. masses --      1.1003                 1.0828                 1.0708
 Frc consts  --      5.9344                 5.8610                 5.8011
 IR Inten    --     93.5350                28.1364                41.3665

                     97                     98                     99
                      A                      A                      A
 Frequencies --   3034.6632              3041.6573              3043.3082
 Red. masses --      1.1045                 1.0638                 1.0649
 Frc consts  --      5.9928                 5.7988                 5.8110
 IR Inten    --     48.3737                20.6501                54.5933

                    100                    101                    102
                      A                      A                      A
 Frequencies --   3043.5502              3060.6241              3082.0879
 Red. masses --      1.0377                 1.0847                 1.1009
 Frc consts  --      5.6635                 5.9865                 6.1614
 IR Inten    --     29.5595                60.4060                12.0718

                    103                    104                    105
                      A                      A                      A
 Frequencies --   3110.8614              3116.2156              3127.7401
 Red. masses --      1.1017                 1.1021                 1.1023
 Frc consts  --      6.2814                 6.3053                 6.3533
 IR Inten    --     51.4986                58.2976                22.6768

                    106                    107                    108
                      A                      A                      A
 Frequencies --   3128.1664              3136.3499              3195.9257
 Red. masses --      1.0953                 1.0967                 1.0895
 Frc consts  --      6.3148                 6.3563                 6.5564
 IR Inten    --     55.1305                29.2789                 9.4609

                    109                    110                    111
                      A                      A                      A
 Frequencies --   3206.3185              3238.6881              3500.8680
 Red. masses --      1.0896                 1.0914                 1.0724
 Frc consts  --      6.6000                 6.7449                 7.7440
 IR Inten    --      6.3341                 3.5010                 3.5196

 - Thermochemistry -
 -------------------
 Temperature   298.150 Kelvin.  Pressure   1.00000 Atm.
 Atom     1 has atomic number  6 and mass  12.00000

 Molecular mass:   251.15214 amu.
 Principal axes and moments of inertia in atomic units:
                           1         2         3
     Eigenvalues --  2252.612259373.26194**********
           X            0.99998   0.00590  -0.00167
           Y           -0.00589   0.99996   0.00616
           Z            0.00171  -0.00615   0.99998
 This molecule is an asymmetric top.
 Rotational symmetry number  1.
 Warning -- assumption of classical behavior for rotation
           may cause significant error
 Rotational temperatures (Kelvin)      0.03845     0.00924     0.00835
 Rotational constants (GHZ):           0.80118     0.19254     0.17403
 Zero-point vibrational energy     891294.9 (Joules/Mol)
                                  213.02459 (Kcal/Mol)
 Warning -- explicit consideration of  27 degrees of freedom as
           vibrations may cause significant error
 Vibrational temperatures:     26.10    39.88    58.78    68.90   117.26
          (Kelvin)            125.72   145.37   182.94   218.99   265.04
                              300.84   321.60   339.43   378.69   409.08
                              446.97   468.40   486.59   543.71   557.00
                              618.83   673.77   694.79   739.76   766.21
                              835.86   851.63   942.67  1006.19  1034.94
                             1093.26  1103.37  1121.02  1195.40  1218.90
                             1270.95  1281.22  1304.86  1312.60  1344.33
                             1360.77  1374.94  1392.57  1481.20  1487.96
                             1513.33  1563.49  1574.72  1586.61  1638.70
                             1655.93  1664.41  1671.45  1688.52  1701.10
                             1708.26  1736.88  1768.49  1778.65  1821.62
                             1835.65  1857.65  1868.40  1881.61  1892.12
                             1913.63  1926.68  1952.84  1978.52  2007.19
                             2029.86  2043.41  2054.77  2056.18  2079.31
                             2120.15  2162.43  2171.57  2179.06  2187.65
                             2191.36  2195.80  2201.70  2204.45  2215.69
                             2228.13  2241.72  2242.24  2365.21  2415.13
                             4216.57  4292.89  4309.31  4353.13  4360.98
                             4362.84  4366.20  4376.27  4378.64  4378.99
                             4403.56  4434.44  4475.84  4483.54  4500.12
                             4500.73  4512.51  4598.22  4613.18  4659.75
                             5036.97

 Zero-point correction=                           0.339476 (Hartree/Particle)
 Thermal correction to Energy=                    0.357495
 Thermal correction to Enthalpy=                  0.358440
 Thermal correction to Gibbs Free Energy=         0.291052
 Sum of electronic and zero-point Energies=           -826.248349
 Sum of electronic and thermal Energies=              -826.230330
 Sum of electronic and thermal Enthalpies=            -826.229386
 Sum of electronic and thermal Free Energies=         -826.296774

                     E (Thermal)             CV                S
                      KCal/Mol        Cal/Mol-Kelvin    Cal/Mol-Kelvin
 Total                  224.332             67.332            141.829
 Electronic               0.000              0.000              0.000
 Translational            0.889              2.981             42.463
 Rotational               0.889              2.981             33.748
 Vibrational            222.554             61.371             65.618
 Vibration     1          0.593              1.986              6.828
 Vibration     2          0.593              1.984              5.986
 Vibration     3          0.594              1.981              5.217
 Vibration     4          0.595              1.978              4.903
 Vibration     5          0.600              1.962              3.854
 Vibration     6          0.601              1.958              3.718
 Vibration     7          0.604              1.948              3.434
 Vibration     8          0.611              1.926              2.989
 Vibration     9          0.619              1.900              2.645
 Vibration    10          0.631              1.861              2.285
 Vibration    11          0.642              1.827              2.052
 Vibration    12          0.649              1.805              1.930
 Vibration    13          0.655              1.786              1.833
 Vibration    14          0.670              1.740              1.640
 Vibration    15          0.683              1.703              1.507
 Vibration    16          0.700              1.653              1.359
 Vibration    17          0.710              1.624              1.282
 Vibration    18          0.719              1.599              1.221
 Vibration    19          0.748              1.517              1.048
 Vibration    20          0.756              1.498              1.011
 Vibration    21          0.791              1.405              0.858
 Vibration    22          0.825              1.320              0.742
 Vibration    23          0.839              1.288              0.702
 Vibration    24          0.869              1.219              0.624
 Vibration    25          0.888              1.178              0.582
 Vibration    26          0.938              1.072              0.484
 Vibration    27          0.949              1.049              0.464

                           ! Non-Optimized Parameters !
 Normal termination of Gaussian 16 at Sun Dec 13 20:28:56 2020.

 ----------------------------------------------------------------------
 # B3LYP/6-311++G(d,p) empiricaldispersion=gd3bj scf=xqc pop=npa geom=c
 heck
 ----------------------------------------------------------------------

 --------------------------------------
 CID_61755107_JID_8436_Energie_neutraal
 --------------------------------------
 Structure from the checkpoint file:  "JID_8436.chk"
 Charge =  0 Multiplicity = 1

 SCF Done:  E(RB3LYP) =  -826.819620288     A.U. after   15 cycles
 Normal termination of Gaussian 16 at Sun Dec 13 20:37:07 2020.

 ----------------------------------------------------------------------
 # B3LYP/6-311++G(d,p) empiricaldispersion=gd3bj scf=xqc pop=npa geom=c
 heck
 ----------------------------------------------------------------------

 ------------------------------------
 CID_61755107_JID_8436_Energie_kation
 ------------------------------------
 Structure from the checkpoint file:  "JID_8436.chk"
 Charge =  1 Multiplicity = 2

 SCF Done:  E(UB3LYP) =  -826.545459548     A.U. after   29 cycles
 Normal termination of Gaussian 16 at Sun Dec 13 20:59:10 2020.
 Gaussian 16:  ES64L-G16RevA.03 25-Dec-2016

 ----------------------------------------------------------------------
 # B3LYP/6-311++G(d,p) empiricaldispersion=gd3bj scf=xqc pop=npa geom=c
 heck
 ----------------------------------------------------------------------

 -----------------------------------
 CID_61755107_JID_8436_Energie_anion
 -----------------------------------
 Structure from the checkpoint file:  "JID_8436.chk"
 Charge = -1 Multiplicity = 2

                         Standard orientation:
 ---------------------------------------------------------------------
 Center     Atomic      Atomic             Coordinates (Angstroms)
 Number     Number       Type             X           Y           Z
 ---------------------------------------------------------------------
      1          6           0       -5.029278   -1.372750    0.940764
      2          6           0       -4.640322   -1.620766   -0.520025
      3          6           0       -3.661577   -0.583830   -1.075866
      4          7           0       -2.386305   -0.631819   -0.366871
      5          6           0       -1.353027    0.259783   -0.892583
      6          6           0       -1.637940    1.730954   -0.539252
      7          8           0       -1.759619    1.811557    0.867909
      8          6           0       -2.059418    3.112326    1.319378
      9          6           0        0.036329   -0.164154   -0.421816
     10          6           0        1.161608    0.548784   -0.846594
     11          6           0        2.440285    0.184617   -0.435283
     12          6           0        2.612684   -0.907904    0.429898
     13          6           0        1.497793   -1.634550    0.838689
     14          6           0        0.222299   -1.271844    0.410690
     15          8           0        3.856131   -1.294137    0.876703
     16          6           0        4.860336   -0.301148    0.686749
     17          6           0        4.765096    0.276142   -0.716004
     18          8           0        3.507571    0.923274   -0.895058
     19          1           0       -4.168260   -1.479966    1.610209
     20          1           0       -5.789614   -2.087416    1.274040
     21          1           0       -5.436988   -0.362822    1.075536
     22          1           0       -4.188585   -2.615198   -0.619421
     23          1           0       -5.543604   -1.611122   -1.144072
     24          1           0       -3.462049   -0.803750   -2.132495
     25          1           0       -4.144687    0.412162   -1.047074
     26          1           0       -2.533366   -0.371457    0.606922
     27          1           0       -1.382678    0.182472   -1.988694
     28          1           0       -0.833113    2.391280   -0.896838
     29          1           0       -2.573438    2.061358   -1.020722
     30          1           0       -1.264116    3.826631    1.053813
     31          1           0       -3.009372    3.480428    0.898490
     32          1           0       -2.146080    3.065702    2.407990
     33          1           0        1.076703    1.397807   -1.518769
     34          1           0        1.651138   -2.483828    1.497405
     35          1           0       -0.640888   -1.853130    0.710271
     36          1           0        5.820848   -0.796585    0.850212
     37          1           0        4.737871    0.501872    1.427116
     38          1           0        5.531424    1.036314   -0.888176
     39          1           0        4.881129   -0.527540   -1.456555
 ---------------------------------------------------------------------

 SCF Done:  E(UB3LYP) =  -826.806925129     A.U. after   33 cycles
 SCF Done:  E(UB3LYP) =  -826.806925129     a.u. after    1 cycles

 The electronic state is 2-A.
 Alpha  occ. eigenvalues --  -19.06583 -19.06567 -19.04115 -14.20488 -10.14225
 Alpha  occ. eigenvalues --  -10.14200 -10.14171 -10.13966 -10.12688 -10.12489
 Alpha  occ. eigenvalues --  -10.11765 -10.10228 -10.08615 -10.08185 -10.08075
 Alpha  occ. eigenvalues --  -10.08036 -10.07573 -10.07357  -1.00028  -0.96456
 Alpha  occ. eigenvalues --   -0.95571  -0.82421  -0.76700  -0.70659  -0.68333
 Alpha  occ. eigenvalues --   -0.66903  -0.65014  -0.62646  -0.59422  -0.58376
 Alpha  occ. eigenvalues --   -0.56729  -0.53570  -0.51294  -0.49464  -0.47364
 Alpha  occ. eigenvalues --   -0.45261  -0.42962  -0.42654  -0.41325  -0.39818
 Alpha  occ. eigenvalues --   -0.39614  -0.38066  -0.37088  -0.36386  -0.35529
 Alpha  occ. eigenvalues --   -0.35117  -0.34573  -0.34421  -0.32944  -0.32134
 Alpha  occ. eigenvalues --   -0.31409  -0.31020  -0.30616  -0.30450  -0.28996
 Alpha  occ. eigenvalues --   -0.27344  -0.27239  -0.25718  -0.25365  -0.24745
 Alpha  occ. eigenvalues --   -0.24583  -0.23872  -0.22276  -0.21823  -0.17883
 Alpha  occ. eigenvalues --   -0.14828  -0.13928  -0.12436   0.03875
 Alpha virt. eigenvalues --    0.05013   0.06230   0.06604   0.07430   0.07797
 Alpha virt. eigenvalues --    0.07958   0.08391   0.08631   0.08917   0.09336
 Alpha virt. eigenvalues --    0.09484   0.09621   0.10616   0.10822   0.11065

  Beta  occ. eigenvalues --  -19.06584 -19.06567 -19.04109 -14.20485 -10.14194
  Beta  occ. eigenvalues --  -10.14169 -10.14167 -10.13954 -10.12670 -10.12457
  Beta  occ. eigenvalues --  -10.11760 -10.10210 -10.08608 -10.08186 -10.08064
  Beta  occ. eigenvalues --  -10.08033 -10.07554 -10.07351  -1.00019  -0.96450
  Beta  occ. eigenvalues --   -0.95563  -0.82409  -0.76685  -0.70631  -0.68300
  Beta  occ. eigenvalues --   -0.66884  -0.64986  -0.62618  -0.59381  -0.58333
  Beta  occ. eigenvalues --   -0.56674  -0.53547  -0.51260  -0.49416  -0.47327
  Beta  occ. eigenvalues --   -0.45246  -0.42938  -0.42624  -0.41285  -0.39790
  Beta  occ. eigenvalues --   -0.39588  -0.38040  -0.37062  -0.36345  -0.35503
  Beta  occ. eigenvalues --   -0.35090  -0.34535  -0.34403  -0.32917  -0.32112
  Beta  occ. eigenvalues --   -0.31384  -0.31014  -0.30583  -0.30425  -0.28965
  Beta  occ. eigenvalues --   -0.27321  -0.27221  -0.25688  -0.25340  -0.24722
  Beta  occ. eigenvalues --   -0.24560  -0.23836  -0.22255  -0.21800  -0.17863
  Beta  occ. eigenvalues --   -0.14812  -0.13913  -0.12401
  Beta virt. eigenvalues --    0.05752   0.06421   0.06749   0.06887   0.07505
  Beta virt. eigenvalues --    0.08012   0.08439   0.08698   0.08822   0.09433
  Beta virt. eigenvalues --    0.09555   0.09787   0.09855   0.10822   0.10958

 Mulliken charges and spin densities:
               1          2
     1  C   -0.022266  -0.519693
     2  C   -0.294539   0.022503
     3  C    0.424539  -0.440482
     4  N    0.255884   0.000892
     5  C   -0.680210   0.157324
     6  C    0.186465  -0.702023
     7  O   -0.130978   0.055194
     8  C    0.545015  -0.768980
     9  C    0.798866  -0.194041
    10  C   -0.781275  -0.106630
    11  C   -0.098972   0.200250
    12  C   -0.214920   0.101664
    13  C   -0.129088  -0.248283
    14  C    0.402659  -0.295284
    15  O   -0.187831   0.052142
    16  C    0.370075  -0.633911
    17  C    0.120465  -0.375799
    18  O   -0.187739   0.059868
    19  H    0.019543   0.109622
    20  H   -0.109514   0.253132
    21  H   -0.041044   0.181489
    22  H    0.141059   0.008870
    23  H   -0.151207   0.286848
    24  H   -0.082552   0.211808
    25  H   -0.001821   0.118167
    26  H    0.332445  -0.104014
    27  H    0.038626   0.141623
    28  H    0.107790  -0.005078
    29  H   -0.250331   0.418760
    30  H   -0.104716   0.234929
    31  H   -0.258561   0.393768
    32  H   -0.062148   0.201024
    33  H   -0.084589   0.267502
    34  H    0.101425   0.079819
    35  H    0.163580  -0.021364
    36  H   -0.719165   0.917989
    37  H    0.170400  -0.003711
    38  H   -0.771921   0.965725
    39  H    0.186547  -0.021619
 Sum of Mulliken charges =  -1.00000   1.00000

 Dipole moment (field-independent basis, Debye):
    X=             -2.4199    Y=             -2.4051    Z=              0.0561  Tot=              3.4122
 Quadrupole moment (field-independent basis, Debye-Ang):
   XX=           -248.4619   YY=           -152.8556   ZZ=           -137.9312
   XY=              2.9859   XZ=             -0.5949   YZ=              0.5211

 Summary of Natural Population Analysis:

                                       Natural Population
                Natural  -----------------------------------------------
    Atom  No    Charge         Core      Valence    Rydberg      Total
 -----------------------------------------------------------------------
      C    1   -0.29001      0.99967     2.28489    0.00545     3.29001
      C    2   -0.19291      0.99964     2.18439    0.00889     3.19291
      C    3   -0.08386      0.99962     2.07308    0.01116     3.08386
      N    4   -0.34504      0.99974     2.83446    0.01085     3.84504
      C    5   -0.02118      0.99956     2.00775    0.01387     3.02118
      C    6   -0.01209      0.99957     2.00035    0.01217     3.01209
      O    7   -0.30120      0.99988     3.29192    0.00941     4.30120
      C    8   -0.09562      0.99962     2.08681    0.00919     3.09562
      C    9   -0.02063      0.99952     2.00916    0.01195     3.02063
      C   10   -0.10055      0.99948     2.09567    0.00540     3.10055
      C   11    0.12326      0.99935     1.86309    0.01430     2.87674
      C   12    0.12190      0.99933     1.86520    0.01357     2.87810
      C   13   -0.11322      0.99953     2.10463    0.00906     3.11322
      C   14   -0.10419      0.99952     2.09670    0.00797     3.10419
      O   15   -0.27637      0.99987     3.26739    0.00911     4.27637
      C   16   -0.02441      0.99958     2.01220    0.01264     3.02441
      C   17   -0.02412      0.99958     2.01205    0.01249     3.02412
      O   18   -0.27621      0.99987     3.26621    0.01014     4.27621
      H   19    0.09573      0.00000     0.40330    0.00097     0.40427
      H   20    0.09824      0.00000     0.40099    0.00078     0.40176
      H   21    0.09883      0.00000     0.40004    0.00113     0.40117
      H   22    0.09570      0.00000     0.40316    0.00114     0.40430
      H   23    0.09550      0.00000     0.40351    0.00099     0.40450
      H   24    0.09118      0.00000     0.40758    0.00125     0.40882
      H   25    0.07923      0.00000     0.41900    0.00177     0.42077
      H   26    0.17929      0.00000     0.31691    0.00380     0.32071
      H   27    0.09970      0.00000     0.39866    0.00164     0.40030
      H   28    0.08285      0.00000     0.41555    0.00160     0.41715
      H   29    0.08244      0.00000     0.41582    0.00174     0.41756
      H   30    0.07885      0.00000     0.41990    0.00125     0.42115
      H   31    0.08025      0.00000     0.41805    0.00170     0.41975
      H   32    0.08992      0.00000     0.40910    0.00098     0.41008
      H   33    0.10239      0.00000     0.39556    0.00205     0.39761
      H   34    0.10445      0.00000     0.39458    0.00098     0.39555
      H   35    0.11037      0.00000     0.38846    0.00117     0.38963
      H   36    0.09955      0.00000     0.39813    0.00232     0.40045
      H   37    0.08631      0.00000     0.41220    0.00149     0.41369
      H   38    0.10033      0.00000     0.39706    0.00261     0.39967
      H   39    0.08540      0.00000     0.41317    0.00143     0.41460
 =======================================================================
   * Total *    0.00006     17.99291    49.78663    0.22041    67.99994

 Normal termination of Gaussian 16 at Sun Dec 13 21:23:41 2020.
