 Gaussian 16, Revision A.03,

 -----------------------------------------------------------
 # opt freq B3LYP/6-31G(d) empiricaldispersion=gd3bj scf=xqc
 -----------------------------------------------------------

 ------------------------------
 CID_23584717_JID_2977_neutraal
 ------------------------------
 Symbolic Z-matrix:
 Charge =  0 Multiplicity = 1

 SCF Done:  E(RB3LYP) =  -542.434669246     A.U. after   14 cycles
 SCF Done:  E(RB3LYP) =  -542.436188832     A.U. after   11 cycles
 SCF Done:  E(RB3LYP) =  -542.434313374     A.U. after   12 cycles
 SCF Done:  E(RB3LYP) =  -542.436712875     A.U. after   10 cycles
 SCF Done:  E(RB3LYP) =  -542.436737427     A.U. after   10 cycles
 SCF Done:  E(RB3LYP) =  -542.436756938     A.U. after    9 cycles
 SCF Done:  E(RB3LYP) =  -542.436758843     A.U. after    8 cycles
 SCF Done:  E(RB3LYP) =  -542.436759861     A.U. after    8 cycles
 SCF Done:  E(RB3LYP) =  -542.436759975     A.U. after    7 cycles
 SCF Done:  E(RB3LYP) =  -542.436760067     A.U. after    7 cycles
 SCF Done:  E(RB3LYP) =  -542.436760161     A.U. after    8 cycles
 SCF Done:  E(RB3LYP) =  -542.436760204     A.U. after    8 cycles
 SCF Done:  E(RB3LYP) =  -542.436760221     A.U. after    7 cycles
 Optimization completed.
    -- Stationary point found.
 Normal termination of Gaussian 16 at Wed Dec  9 18:32:17 2020.

 --------------------------------------------------------------------
 #N Geom=AllCheck Guess=TCheck SCRF=Check GenChk RB3LYP/6-31G(d) Freq
 --------------------------------------------------------------------

 Structure from the checkpoint file:  "JID_2977.chk"
 ------------------------------
 CID_23584717_JID_2977_neutraal
 ------------------------------
 Charge =  0 Multiplicity = 1

 SCF Done:  E(RB3LYP) =  -542.436760221     A.U. after    1 cycles

  Exact polarizability: 123.311  -2.201  99.873  -0.171  -0.944  96.691
 Approx polarizability: 150.832  -4.335 142.123  -3.623  -9.219 149.490

                      1                      2                      3
                      A                      A                      A
 Frequencies --     19.3768                48.6849               114.3865
 Red. masses --      3.4946                 3.5907                 2.9011
 Frc consts  --      0.0008                 0.0050                 0.0224
 IR Inten    --      0.2217                 0.7998                 0.0943

                      4                      5                      6
                      A                      A                      A
 Frequencies --    125.2741               137.3862               218.0977
 Red. masses --      4.2861                 3.1501                 2.6469
 Frc consts  --      0.0396                 0.0350                 0.0742
 IR Inten    --      1.7474                 0.6380                 3.2520

                      7                      8                      9
                      A                      A                      A
 Frequencies --    236.0832               247.7045               250.5169
 Red. masses --      1.1453                 1.3184                 1.7505
 Frc consts  --      0.0376                 0.0477                 0.0647
 IR Inten    --      0.1333                 0.2125                 0.7226

                     10                     11                     12
                      A                      A                      A
 Frequencies --    296.5874               349.1884               383.7748
 Red. masses --      2.6107                 2.4031                 2.0087
 Frc consts  --      0.1353                 0.1726                 0.1743
 IR Inten    --      4.7215                 4.8504                 0.1226

                     13                     14                     15
                      A                      A                      A
 Frequencies --    397.5536               416.5403               459.2015
 Red. masses --      2.6040                 3.3745                 2.9151
 Frc consts  --      0.2425                 0.3450                 0.3622
 IR Inten    --      1.7308                 2.3841                 2.1920

                     16                     17                     18
                      A                      A                      A
 Frequencies --    468.8626               509.7884               575.0354
 Red. masses --      2.8447                 2.4510                 2.0802
 Frc consts  --      0.3684                 0.3753                 0.4053
 IR Inten    --      6.0338                 1.5164                 0.9323

                     19                     20                     21
                      A                      A                      A
 Frequencies --    630.9851               780.6296               801.3073
 Red. masses --      4.2047                 2.7729                 2.4763
 Frc consts  --      0.9863                 0.9956                 0.9368
 IR Inten    --      5.6065                 2.5431                 5.0640

                     22                     23                     24
                      A                      A                      A
 Frequencies --    804.8917               819.7767               855.4152
 Red. masses --      1.9645                 3.6199                 2.6564
 Frc consts  --      0.7499                 1.4333                 1.1452
 IR Inten    --      4.1512                 1.5055                 2.8893

                     25                     26                     27
                      A                      A                      A
 Frequencies --    881.1567               889.8891               922.8743
 Red. masses --      2.4327                 1.7866                 2.4815
 Frc consts  --      1.1129                 0.8336                 1.2452
 IR Inten    --      1.0922                11.4463                 4.9289

                     28                     29                     30
                      A                      A                      A
 Frequencies --    947.7620               954.5488               958.1225
 Red. masses --      1.2016                 1.5262                 1.4086
 Frc consts  --      0.6359                 0.8193                 0.7619
 IR Inten    --      1.6490                 1.1505                 0.1859

                     31                     32                     33
                      A                      A                      A
 Frequencies --    961.1390              1044.7570              1053.6519
 Red. masses --      2.1964                 2.5614                 1.8567
 Frc consts  --      1.1955                 1.6472                 1.2144
 IR Inten    --     12.2519                12.8211                 2.4690

                     34                     35                     36
                      A                      A                      A
 Frequencies --   1056.8457              1107.2911              1141.2541
 Red. masses --      1.5716                 1.6507                 1.1251
 Frc consts  --      1.0342                 1.1924                 0.8634
 IR Inten    --      0.0921                 0.3461                 5.2333

                     37                     38                     39
                      A                      A                      A
 Frequencies --   1151.0643              1172.0015              1173.2800
 Red. masses --      1.7724                 2.1424                 1.5970
 Frc consts  --      1.3836                 1.7338                 1.2953
 IR Inten    --      3.0224                 8.3530                26.4232

                     40                     41                     42
                      A                      A                      A
 Frequencies --   1182.4427              1218.6431              1230.2673
 Red. masses --      2.0538                 2.0215                 2.8045
 Frc consts  --      1.6918                 1.7688                 2.5010
 IR Inten    --    147.8325                17.0868               335.7700

                     43                     44                     45
                      A                      A                      A
 Frequencies --   1266.3097              1302.9305              1312.3922
 Red. masses --      1.3576                 1.3208                 1.1968
 Frc consts  --      1.2827                 1.3211                 1.2145
 IR Inten    --     12.5713                 0.1548                 0.7118

                     46                     47                     48
                      A                      A                      A
 Frequencies --   1336.1782              1367.8450              1375.0721
 Red. masses --      1.4486                 1.4258                 1.6484
 Frc consts  --      1.5238                 1.5717                 1.8364
 IR Inten    --      2.1300                 7.1754                16.7195

                     49                     50                     51
                      A                      A                      A
 Frequencies --   1391.5782              1398.1245              1403.3236
 Red. masses --      1.3026                 1.3978                 1.4684
 Frc consts  --      1.4862                 1.6098                 1.7038
 IR Inten    --      2.6437                 0.4587                 1.1079

                     52                     53                     54
                      A                      A                      A
 Frequencies --   1407.6025              1414.1349              1427.1157
 Red. masses --      1.4257                 1.3812                 1.3498
 Frc consts  --      1.6643                 1.6274                 1.6198
 IR Inten    --      1.8130                 0.2761                18.8417

                     55                     56                     57
                      A                      A                      A
 Frequencies --   1429.0162              1441.1658              1508.0120
 Red. masses --      1.4270                 1.2456                 1.0883
 Frc consts  --      1.7170                 1.5242                 1.4582
 IR Inten    --     19.0976                22.3684                 3.6190

                     58                     59                     60
                      A                      A                      A
 Frequencies --   1509.9450              1514.7713              1519.4795
 Red. masses --      1.0475                 1.0910                 1.0902
 Frc consts  --      1.4071                 1.4750                 1.4830
 IR Inten    --      0.1052                 0.9132                 4.6290

                     61                     62                     63
                      A                      A                      A
 Frequencies --   1521.5374              1525.6977              1530.2307
 Red. masses --      1.0510                 1.0861                 1.0499
 Frc consts  --      1.4336                 1.4895                 1.4485
 IR Inten    --     11.8743                15.8245                 0.7686

                     64                     65                     66
                      A                      A                      A
 Frequencies --   1537.9634              1549.7422              1800.9858
 Red. masses --      1.0990                 1.0550                11.2135
 Frc consts  --      1.5315                 1.4929                21.4295
 IR Inten    --      3.9392                 8.7172               156.5832

                     67                     68                     69
                      A                      A                      A
 Frequencies --   3018.7979              3024.2897              3026.6521
 Red. masses --      1.0693                 1.0700                 1.0734
 Frc consts  --      5.7416                 5.7661                 5.7936
 IR Inten    --     17.4446                 9.5430                40.5071

                     70                     71                     72
                      A                      A                      A
 Frequencies --   3038.2863              3046.7495              3052.2710
 Red. masses --      1.0687                 1.0723                 1.0649
 Frc consts  --      5.8127                 5.8644                 5.8453
 IR Inten    --      2.8235                61.8904                32.6001

                     73                     74                     75
                      A                      A                      A
 Frequencies --   3059.9558              3063.5615              3072.4265
 Red. masses --      1.0382                 1.0413                 1.0932
 Frc consts  --      5.7276                 5.7582                 6.0801
 IR Inten    --     23.0634                10.7693                59.0306

                     76                     77                     78
                      A                      A                      A
 Frequencies --   3075.7973              3081.7497              3097.4261
 Red. masses --      1.0993                 1.0836                 1.0991
 Frc consts  --      6.1277                 6.0632                 6.2127
 IR Inten    --     66.0593                33.2395                44.7534

                     79                     80                     81
                      A                      A                      A
 Frequencies --   3108.6959              3117.3808              3122.4823
 Red. masses --      1.0973                 1.0944                 1.1019
 Frc consts  --      6.2479                 6.2661                 6.3299
 IR Inten    --     31.4475                28.2806                15.1336

                     82                     83                     84
                      A                      A                      A
 Frequencies --   3125.4009              3168.6463              3173.0369
 Red. masses --      1.1019                 1.1003                 1.0997
 Frc consts  --      6.3418                 6.5090                 6.5235
 IR Inten    --     41.3245                 1.8550                19.1978

 - Thermochemistry -
 -------------------
 Temperature   298.150 Kelvin.  Pressure   1.00000 Atm.
 Atom     1 has atomic number  6 and mass  12.00000

 Molecular mass:   170.13068 amu.
 Principal axes and moments of inertia in atomic units:
                           1         2         3
     Eigenvalues --  1023.979013198.782783375.73700
           X            0.99999  -0.00096  -0.00359
           Y            0.00121   0.99735   0.07280
           Z            0.00351  -0.07280   0.99734
 This molecule is an asymmetric top.
 Rotational symmetry number  1.
 Warning -- assumption of classical behavior for rotation
           may cause significant error
 Rotational temperatures (Kelvin)      0.08459     0.02708     0.02566
 Rotational constants (GHZ):           1.76248     0.56420     0.53462
 Zero-point vibrational energy     713326.0 (Joules/Mol)
                                  170.48901 (Kcal/Mol)
 Warning -- explicit consideration of  18 degrees of freedom as
           vibrations may cause significant error
 Vibrational temperatures:     27.88    70.05   164.58   180.24   197.67
          (Kelvin)            313.79   339.67   356.39   360.44   426.72
                              502.40   552.17   571.99   599.31   660.69
                              674.59   733.47   827.35   907.85  1123.15
                             1152.90  1158.06  1179.48  1230.75  1267.79
                             1280.35  1327.81  1363.62  1373.38  1378.52
                             1382.86  1503.17  1515.97  1520.57  1593.14
                             1642.01  1656.12  1686.25  1688.09  1701.27
                             1753.36  1770.08  1821.94  1874.63  1888.24
                             1922.46  1968.02  1978.42  2002.17  2011.59
                             2019.07  2025.23  2034.62  2053.30  2056.04
                             2073.52  2169.69  2172.47  2179.42  2186.19
                             2189.15  2195.14  2201.66  2212.79  2229.73
                             2591.22  4343.38  4351.28  4354.68  4371.42
                             4383.59  4391.54  4402.59  4407.78  4420.54
                             4425.39  4433.95  4456.51  4472.72  4485.22
                             4492.56  4496.75  4558.98  4565.29

 Zero-point correction=                           0.271692 (Hartree/Particle)
 Thermal correction to Energy=                    0.284209
 Thermal correction to Enthalpy=                  0.285153
 Thermal correction to Gibbs Free Energy=         0.232236
 Sum of electronic and zero-point Energies=           -542.165069
 Sum of electronic and thermal Energies=              -542.152551
 Sum of electronic and thermal Enthalpies=            -542.151607
 Sum of electronic and thermal Free Energies=         -542.204524

                     E (Thermal)             CV                S
                      KCal/Mol        Cal/Mol-Kelvin    Cal/Mol-Kelvin
 Total                  178.344             47.876            111.374
 Electronic               0.000              0.000              0.000
 Translational            0.889              2.981             41.302
 Rotational               0.889              2.981             30.781
 Vibrational            176.567             41.914             39.291
 Vibration     1          0.593              1.986              6.697
 Vibration     2          0.595              1.978              4.870
 Vibration     3          0.607              1.938              3.193
 Vibration     4          0.610              1.928              3.017
 Vibration     5          0.614              1.916              2.840
 Vibration     6          0.646              1.813              1.975
 Vibration     7          0.655              1.786              1.832
 Vibration     8          0.661              1.767              1.747
 Vibration     9          0.663              1.762              1.727
 Vibration    10          0.690              1.680              1.436
 Vibration    11          0.726              1.577              1.170
 Vibration    12          0.753              1.505              1.024
 Vibration    13          0.764              1.475              0.972
 Vibration    14          0.780              1.434              0.904
 Vibration    15          0.817              1.341              0.768
 Vibration    16          0.826              1.319              0.741
 Vibration    17          0.865              1.228              0.634
 Vibration    18          0.931              1.085              0.495

 Optimization completed.
    -- Stationary point found.
 Normal termination of Gaussian 16 at Wed Dec  9 18:39:47 2020.

 ----------------------------------------------------------------------
 # B3LYP/6-311++G(d,p) empiricaldispersion=gd3bj scf=xqc pop=npa geom=c
 heck
 ----------------------------------------------------------------------

 --------------------------------------
 CID_23584717_JID_2977_Energie_neutraal
 --------------------------------------
 Structure from the checkpoint file:  "JID_2977.chk"
 Charge =  0 Multiplicity = 1

 SCF Done:  E(RB3LYP) =  -542.589611796     A.U. after   13 cycles
 Normal termination of Gaussian 16 at Wed Dec  9 18:42:42 2020.

 ----------------------------------------------------------------------
 # B3LYP/6-311++G(d,p) empiricaldispersion=gd3bj scf=xqc pop=npa geom=c
 heck
 ----------------------------------------------------------------------

 ------------------------------------
 CID_23584717_JID_2977_Energie_kation
 ------------------------------------
 Structure from the checkpoint file:  "JID_2977.chk"
 Charge =  1 Multiplicity = 2

 SCF Done:  E(UB3LYP) =  -542.246464243     A.U. after   28 cycles
 Normal termination of Gaussian 16 at Wed Dec  9 18:51:23 2020.
 Gaussian 16:  ES64L-G16RevA.03 25-Dec-2016

 ----------------------------------------------------------------------
 # B3LYP/6-311++G(d,p) empiricaldispersion=gd3bj scf=xqc pop=npa geom=c
 heck
 ----------------------------------------------------------------------

 -----------------------------------
 CID_23584717_JID_2977_Energie_anion
 -----------------------------------
 Structure from the checkpoint file:  "JID_2977.chk"
 Charge = -1 Multiplicity = 2

                         Standard orientation:
 ---------------------------------------------------------------------
 Center     Atomic      Atomic             Coordinates (Angstroms)
 Number     Number       Type             X           Y           Z
 ---------------------------------------------------------------------
      1          6           0       -3.482919   -0.758416   -0.195843
      2          6           0       -2.637932    0.511378   -0.216506
      3          6           0       -2.531979    1.211183    1.134895
      4          8           0       -1.319134    0.271938   -0.795919
      5          6           0       -0.445717   -0.548775   -0.176543
      6          8           0       -0.683081   -1.155862    0.848747
      7          6           0        0.863862   -0.629575   -0.957151
      8          6           0        1.404556    0.770018   -1.322208
      9          6           0        1.906538    1.519853   -0.082142
     10          6           0        2.976819    0.707672    0.659558
     11          6           0        2.457544   -0.686768    1.035107
     12          6           0        1.917897   -1.443210   -0.188001
     13          1           0       -3.104015   -1.471005    0.538393
     14          1           0       -3.483938   -1.231472   -1.183325
     15          1           0       -4.517090   -0.501379    0.059754
     16          1           0       -3.066088    1.208993   -0.942981
     17          1           0       -2.130654    0.539228    1.895245
     18          1           0       -1.883167    2.090111    1.058198
     19          1           0       -3.526295    1.547852    1.449090
     20          1           0        0.611470   -1.150818   -1.891835
     21          1           0        2.238825    0.637855   -2.024459
     22          1           0        0.632184    1.344322   -1.840637
     23          1           0        1.060377    1.713524    0.593565
     24          1           0        2.302480    2.500197   -0.374357
     25          1           0        3.307437    1.243737    1.557829
     26          1           0        3.859699    0.606643    0.010779
     27          1           0        1.652738   -0.591903    1.773066
     28          1           0        3.254641   -1.273142    1.508468
     29          1           0        1.492043   -2.402404    0.121487
     30          1           0        2.745064   -1.659104   -0.877905
 ---------------------------------------------------------------------

 SCF Done:  E(UB3LYP) =  -542.574307296     A.U. after   31 cycles

 The electronic state is 2-A.
 Alpha  occ. eigenvalues --  -19.05755 -19.00469 -10.19416 -10.13288 -10.08116
 Alpha  occ. eigenvalues --  -10.06322 -10.06302 -10.06255 -10.06219 -10.06110
 Alpha  occ. eigenvalues --  -10.06017 -10.05932  -0.99783  -0.91448  -0.73666
 Alpha  occ. eigenvalues --   -0.69435  -0.65106  -0.64046  -0.59458  -0.56024
 Alpha  occ. eigenvalues --   -0.51316  -0.50579  -0.46576  -0.41508  -0.39569
 Alpha  occ. eigenvalues --   -0.38871  -0.37394  -0.36334  -0.34790  -0.34029
 Alpha  occ. eigenvalues --   -0.33373  -0.31590  -0.30981  -0.28967  -0.28107
 Alpha  occ. eigenvalues --   -0.27770  -0.27587  -0.27192  -0.25737  -0.25527
 Alpha  occ. eigenvalues --   -0.24147  -0.23441  -0.22202  -0.20557  -0.20180
 Alpha  occ. eigenvalues --   -0.19814  -0.16568   0.04497
 Alpha virt. eigenvalues --    0.06255   0.07247   0.07949   0.08858   0.09003
 Alpha virt. eigenvalues --    0.09274   0.10275   0.10460   0.10910   0.11347
 Alpha virt. eigenvalues --    0.11634   0.12066   0.12794   0.13301   0.13675

  Beta  occ. eigenvalues --  -19.05753 -19.00456 -10.19400 -10.13272 -10.08109
  Beta  occ. eigenvalues --  -10.06302 -10.06287 -10.06239 -10.06203 -10.06087
  Beta  occ. eigenvalues --  -10.06011 -10.05900  -0.99763  -0.91428  -0.73635
  Beta  occ. eigenvalues --   -0.69398  -0.65071  -0.64014  -0.59402  -0.55977
  Beta  occ. eigenvalues --   -0.51273  -0.50530  -0.46523  -0.41467  -0.39516
  Beta  occ. eigenvalues --   -0.38806  -0.37363  -0.36292  -0.34749  -0.34003
  Beta  occ. eigenvalues --   -0.33344  -0.31560  -0.30941  -0.28929  -0.28075
  Beta  occ. eigenvalues --   -0.27742  -0.27555  -0.27157  -0.25701  -0.25486
  Beta  occ. eigenvalues --   -0.24110  -0.23405  -0.22169  -0.20518  -0.20148
  Beta  occ. eigenvalues --   -0.19781  -0.16546
  Beta virt. eigenvalues --    0.06672   0.07372   0.07829   0.08463   0.09427
  Beta virt. eigenvalues --    0.09533   0.09863   0.10604   0.10762   0.11177
  Beta virt. eigenvalues --    0.11785   0.12030   0.12414   0.13079   0.13512

 Mulliken charges and spin densities:
               1          2
     1  C    1.078550  -1.576375
     2  C   -0.910536   0.983795
     3  C    0.616602  -1.038483
     4  O    0.041274   0.028134
     5  C   -0.051630  -0.716511
     6  O   -0.219783   0.021063
     7  C    0.030763   0.840738
     8  C    0.274733  -0.876694
     9  C   -0.241537   0.127957
    10  C    0.391574  -0.920162
    11  C   -0.539514   0.358784
    12  C    0.812555  -1.459854
    13  H    0.034414   0.139732
    14  H   -0.085117   0.224117
    15  H   -0.327116   0.487445
    16  H   -0.661599   0.846843
    17  H    0.102695   0.066222
    18  H   -0.081298   0.209561
    19  H   -0.429138   0.589446
    20  H   -0.317800   0.572896
    21  H   -0.347782   0.500987
    22  H    0.008344   0.185778
    23  H    0.325050  -0.213103
    24  H   -0.316408   0.500139
    25  H   -0.232628   0.387339
    26  H   -0.020880   0.142198
    27  H    0.135502   0.035530
    28  H   -0.020767   0.172635
    29  H    0.120058   0.053683
    30  H   -0.168579   0.326160
 Sum of Mulliken charges =  -1.00000   1.00000

 Dipole moment (field-independent basis, Debye):
    X=              2.1753    Y=             -1.5672    Z=              2.2905  Tot=              3.5263
 Quadrupole moment (field-independent basis, Debye-Ang):
   XX=           -153.5304   YY=           -113.8194   ZZ=           -111.1449
   XY=              2.6613   XZ=              1.8395   YZ=              0.6828

 Summary of Natural Population Analysis:

                                       Natural Population
                Natural  -----------------------------------------------
    Atom  No    Charge         Core      Valence    Rydberg      Total
 -----------------------------------------------------------------------
      C    1   -0.30046      0.99964     2.29459    0.00623     3.30046
      C    2    0.06444      0.99955     1.92222    0.01379     2.93556
      C    3   -0.30044      0.99964     2.29455    0.00626     3.30044
      O    4   -0.28810      0.99986     3.27791    0.01034     4.28810
      C    5    0.41905      0.99965     1.55367    0.02762     2.58095
      O    6   -0.31447      0.99987     3.30984    0.00476     4.31447
      C    7   -0.15457      0.99955     2.14336    0.01166     3.15457
      C    8   -0.18632      0.99962     2.17736    0.00934     3.18632
      C    9   -0.19194      0.99963     2.18387    0.00844     3.19194
      C   10   -0.18922      0.99963     2.18174    0.00785     3.18922
      C   11   -0.19345      0.99962     2.18538    0.00845     3.19345
      C   12   -0.18893      0.99962     2.17944    0.00987     3.18893
      H   13    0.10869      0.00000     0.39032    0.00099     0.39131
      H   14    0.10297      0.00000     0.39587    0.00117     0.39703
      H   15    0.10349      0.00000     0.39507    0.00144     0.39651
      H   16    0.09328      0.00000     0.40426    0.00247     0.40672
      H   17    0.10819      0.00000     0.39075    0.00107     0.39181
      H   18    0.10213      0.00000     0.39667    0.00120     0.39787
      H   19    0.10353      0.00000     0.39530    0.00117     0.39647
      H   20    0.11634      0.00000     0.38191    0.00175     0.38366
      H   21    0.09673      0.00000     0.40157    0.00170     0.40327
      H   22    0.10889      0.00000     0.38958    0.00152     0.39111
      H   23    0.09300      0.00000     0.40544    0.00156     0.40700
      H   24    0.09987      0.00000     0.39901    0.00112     0.40013
      H   25    0.09639      0.00000     0.40270    0.00091     0.40361
      H   26    0.09197      0.00000     0.40667    0.00137     0.40803
      H   27    0.10100      0.00000     0.39758    0.00142     0.39900
      H   28    0.09587      0.00000     0.40330    0.00083     0.40413
      H   29    0.10561      0.00000     0.39339    0.00100     0.39439
      H   30    0.09647      0.00000     0.40230    0.00123     0.40353
 =======================================================================
   * Total *    0.00000     11.99586    34.85563    0.14851    47.00000

 Normal termination of Gaussian 16 at Wed Dec  9 19:00:52 2020.
