 Gaussian 16, Revision A.03,

 -----------------------------------------------------------
 # opt freq B3LYP/6-31G(d) empiricaldispersion=gd3bj scf=xqc
 -----------------------------------------------------------

 -------------------------------
 CID_115280950_JID_4769_neutraal
 -------------------------------
 Symbolic Z-matrix:
 Charge =  0 Multiplicity = 1

 SCF Done:  E(RB3LYP) =  -667.979869492     A.U. after   15 cycles
 SCF Done:  E(RB3LYP) =  -667.976743815     A.U. after   13 cycles
 SCF Done:  E(RB3LYP) =  -667.985736320     A.U. after   12 cycles
 SCF Done:  E(RB3LYP) =  -667.985924795     A.U. after   12 cycles
 SCF Done:  E(RB3LYP) =  -667.986691654     A.U. after   12 cycles
 SCF Done:  E(RB3LYP) =  -667.986735850     A.U. after   12 cycles
 SCF Done:  E(RB3LYP) =  -667.986879233     A.U. after   12 cycles
 SCF Done:  E(RB3LYP) =  -667.986930393     A.U. after   10 cycles
 SCF Done:  E(RB3LYP) =  -667.986969777     A.U. after   11 cycles
 SCF Done:  E(RB3LYP) =  -667.986993937     A.U. after   10 cycles
 SCF Done:  E(RB3LYP) =  -667.997085098     A.U. after   11 cycles
 SCF Done:  E(RB3LYP) =  -667.997098181     A.U. after   10 cycles
 SCF Done:  E(RB3LYP) =  -667.997100888     A.U. after    9 cycles
 SCF Done:  E(RB3LYP) =  -667.997101139     A.U. after    8 cycles
 SCF Done:  E(RB3LYP) =  -667.997101175     A.U. after    7 cycles
 SCF Done:  E(RB3LYP) =  -667.997101179     A.U. after    6 cycles
 Optimization completed.
    -- Stationary point found.
 Normal termination of Gaussian 16 at Thu Dec 10 11:16:32 2020.

 --------------------------------------------------------------------
 #N Geom=AllCheck Guess=TCheck SCRF=Check GenChk RB3LYP/6-31G(d) Freq
 --------------------------------------------------------------------

 Structure from the checkpoint file:  "JID_4769.chk"
 -------------------------------
 CID_115280950_JID_4769_neutraal
 -------------------------------
 Charge =  0 Multiplicity = 1

 SCF Done:  E(RB3LYP) =  -667.997101179     A.U. after    1 cycles

  Exact polarizability: 124.506   0.306 124.272   5.169   1.059  98.376
 Approx polarizability: 155.782  -0.523 189.672   7.175  10.375 151.070

                      1                      2                      3
                      A                      A                      A
 Frequencies --     29.8599                57.9093                60.1871
 Red. masses --      5.0658                 4.0979                 3.0495
 Frc consts  --      0.0027                 0.0081                 0.0065
 IR Inten    --      3.0286                 0.1182                 1.9511

                      4                      5                      6
                      A                      A                      A
 Frequencies --     79.0209                86.9517               113.1510
 Red. masses --      2.6467                 4.5423                 3.7475
 Frc consts  --      0.0097                 0.0202                 0.0283
 IR Inten    --      0.0710                11.4116                 0.1997

                      7                      8                      9
                      A                      A                      A
 Frequencies --    133.9730               171.3429               226.4057
 Red. masses --      6.1350                 3.5275                 1.0386
 Frc consts  --      0.0649                 0.0610                 0.0314
 IR Inten    --      1.3007                 0.2994                 0.0257

                     10                     11                     12
                      A                      A                      A
 Frequencies --    246.3174               269.4542               302.3999
 Red. masses --      1.5419                 3.2349                 2.2032
 Frc consts  --      0.0551                 0.1384                 0.1187
 IR Inten    --      2.4785                 2.2574                 2.1420

                     13                     14                     15
                      A                      A                      A
 Frequencies --    321.9378               340.4425               413.5414
 Red. masses --      1.9628                 2.5428                 3.0029
 Frc consts  --      0.1199                 0.1736                 0.3026
 IR Inten    --     20.5534                 2.2079                 1.6740

                     16                     17                     18
                      A                      A                      A
 Frequencies --    425.4711               451.9907               461.1939
 Red. masses --      2.8598                 2.7934                 1.6300
 Frc consts  --      0.3050                 0.3362                 0.2043
 IR Inten    --      2.3682                 6.7764                50.4235

                     19                     20                     21
                      A                      A                      A
 Frequencies --    509.4251               523.8415               538.4862
 Red. masses --      1.6367                 2.7960                 3.4403
 Frc consts  --      0.2503                 0.4521                 0.5878
 IR Inten    --     43.6604                 5.8039                52.7919

                     22                     23                     24
                      A                      A                      A
 Frequencies --    557.7714               611.2898               671.1042
 Red. masses --      4.9881                 1.6012                 2.3052
 Frc consts  --      0.9143                 0.3525                 0.6117
 IR Inten    --      4.4174                59.9475                48.8698

                     25                     26                     27
                      A                      A                      A
 Frequencies --    705.0739               745.6130               785.9942
 Red. masses --      2.8755                11.8117                 3.9207
 Frc consts  --      0.8422                 3.8689                 1.4271
 IR Inten    --      1.4323                34.1431                 1.9138

                     28                     29                     30
                      A                      A                      A
 Frequencies --    847.4984               890.4872               906.7289
 Red. masses --      3.8147                 2.6831                 1.8637
 Frc consts  --      1.6143                 1.2536                 0.9028
 IR Inten    --     19.1197                 1.0216                 1.0496

                     31                     32                     33
                      A                      A                      A
 Frequencies --    913.2320               943.9023               946.3462
 Red. masses --      1.6234                 1.4721                 1.8519
 Frc consts  --      0.7977                 0.7728                 0.9772
 IR Inten    --      2.9656                 1.5839                 2.4767

                     34                     35                     36
                      A                      A                      A
 Frequencies --    964.3899               993.7889              1010.2876
 Red. masses --      1.3019                 2.3064                 1.9270
 Frc consts  --      0.7134                 1.3420                 1.1588
 IR Inten    --      1.5454                 8.0627                 4.5387

                     37                     38                     39
                      A                      A                      A
 Frequencies --   1042.6436              1111.0730              1150.9526
 Red. masses --      1.9171                 2.0822                 1.8407
 Frc consts  --      1.2279                 1.5144                 1.4366
 IR Inten    --      3.4705                 2.5208                 5.7811

                     40                     41                     42
                      A                      A                      A
 Frequencies --   1160.9897              1174.6714              1200.9044
 Red. masses --      2.2579                 1.6195                 1.9076
 Frc consts  --      1.7931                 1.3166                 1.6209
 IR Inten    --     17.5689                64.0630                10.5486

                     43                     44                     45
                      A                      A                      A
 Frequencies --   1208.0964              1221.9281              1239.1043
 Red. masses --      2.5217                 1.8844                 1.4309
 Frc consts  --      2.1685                 1.6578                 1.2944
 IR Inten    --     28.6499                 1.8818                23.7278

                     46                     47                     48
                      A                      A                      A
 Frequencies --   1261.8810              1314.7056              1324.7983
 Red. masses --      1.7196                 2.0564                 1.2550
 Frc consts  --      1.6133                 2.0942                 1.2978
 IR Inten    --      0.5432               141.0916                17.0439

                     49                     50                     51
                      A                      A                      A
 Frequencies --   1363.4385              1368.1168              1385.4024
 Red. masses --      1.4307                 1.4260                 1.2987
 Frc consts  --      1.5671                 1.5726                 1.4687
 IR Inten    --     21.4018                31.3985                 0.7849

                     52                     53                     54
                      A                      A                      A
 Frequencies --   1392.6928              1400.8129              1415.7313
 Red. masses --      1.3270                 1.4392                 2.6430
 Frc consts  --      1.5164                 1.6639                 3.1211
 IR Inten    --     12.1177                13.0595                96.6900

                     55                     56                     57
                      A                      A                      A
 Frequencies --   1420.1211              1426.5075              1446.7329
 Red. masses --      1.5948                 1.2836                 1.2414
 Frc consts  --      1.8950                 1.5390                 1.5309
 IR Inten    --     24.4345                 6.1012                 8.6621

                     58                     59                     60
                      A                      A                      A
 Frequencies --   1474.3512              1499.9025              1505.9521
 Red. masses --      1.5911                 1.3999                 1.6230
 Frc consts  --      2.0377                 1.8555                 2.1686
 IR Inten    --      5.1839                52.6658                91.1226

                     61                     62                     63
                      A                      A                      A
 Frequencies --   1510.9253              1514.0869              1514.4270
 Red. masses --      1.1214                 1.0618                 1.0796
 Frc consts  --      1.5083                 1.4342                 1.4588
 IR Inten    --      5.9218                 5.5916                17.6509

                     64                     65                     66
                      A                      A                      A
 Frequencies --   1518.3920              1532.8491              1539.4047
 Red. masses --      1.1052                 1.0853                 1.1423
 Frc consts  --      1.5013                 1.5024                 1.5949
 IR Inten    --     30.1657                 8.9820                13.3447

                     67                     68                     69
                      A                      A                      A
 Frequencies --   1552.5568              1562.6640              1761.6715
 Red. masses --      1.0924                 1.4722                 7.3453
 Frc consts  --      1.5515                 2.1181                13.4311
 IR Inten    --      3.2905               132.7346               336.5967

                     70                     71                     72
                      A                      A                      A
 Frequencies --   1779.1085              2991.8047              3011.1979
 Red. masses --      7.7610                 1.0727                 1.0724
 Frc consts  --     14.4734                 5.6574                 5.7291
 IR Inten    --    422.8054                46.2688                47.2245

                     73                     74                     75
                      A                      A                      A
 Frequencies --   3042.2887              3048.3086              3069.2537
 Red. masses --      1.0393                 1.0385                 1.0632
 Frc consts  --      5.6674                 5.6854                 5.9010
 IR Inten    --     24.2745                26.5387                10.2021

                     76                     77                     78
                      A                      A                      A
 Frequencies --   3079.4195              3089.5767              3094.4027
 Red. masses --      1.0666                 1.0906                 1.0900
 Frc consts  --      5.9592                 6.1335                 6.1492
 IR Inten    --     27.0898                43.9444                33.3514

                     79                     80                     81
                      A                      A                      A
 Frequencies --   3107.4385              3110.5509              3120.2360
 Red. masses --      1.0937                 1.0988                 1.1059
 Frc consts  --      6.2223                 6.2638                 6.3434
 IR Inten    --     27.2504                17.5607                27.9502

                     82                     83                     84
                      A                      A                      A
 Frequencies --   3133.2372              3135.5839              3139.2438
 Red. masses --      1.1021                 1.1017                 1.0923
 Frc consts  --      6.3747                 6.3820                 6.3421
 IR Inten    --     27.7957                34.9964                 7.3228

                     85                     86                     87
                      A                      A                      A
 Frequencies --   3162.6196              3566.6125              3639.9683
 Red. masses --      1.0974                 1.0750                 1.0769
 Frc consts  --      6.4671                 8.0568                 8.4063
 IR Inten    --      5.9906                11.5619                37.3907

 - Thermochemistry -
 -------------------
 Temperature   298.150 Kelvin.  Pressure   1.00000 Atm.
 Atom     1 has atomic number  6 and mass  12.00000

 Molecular mass:   199.13208 amu.
 Principal axes and moments of inertia in atomic units:
                           1         2         3
     Eigenvalues --  1896.565023355.395934149.24418
           X            0.99848   0.05435   0.00932
           Y           -0.05396   0.99783  -0.03763
           Z           -0.01135   0.03707   0.99925
 This molecule is an asymmetric top.
 Rotational symmetry number  1.
 Warning -- assumption of classical behavior for rotation
           may cause significant error
 Rotational temperatures (Kelvin)      0.04567     0.02581     0.02087
 Rotational constants (GHZ):           0.95158     0.53786     0.43496
 Zero-point vibrational energy     712353.2 (Joules/Mol)
                                  170.25650 (Kcal/Mol)
 Warning -- explicit consideration of  23 degrees of freedom as
           vibrations may cause significant error
 Vibrational temperatures:     42.96    83.32    86.60   113.69   125.10
          (Kelvin)            162.80   192.76   246.52   325.75   354.40
                              387.68   435.09   463.20   489.82   594.99
                              612.16   650.31   663.56   732.95   753.69
                              774.76   802.51   879.51   965.57  1014.44
                             1072.77  1130.87  1219.36  1281.21  1304.58
                             1313.94  1358.06  1361.58  1387.54  1429.84
                             1453.58  1500.13  1598.59  1655.96  1670.41
                             1690.09  1727.83  1738.18  1758.08  1782.79
                             1815.57  1891.57  1906.09  1961.68  1968.41
                             1993.29  2003.77  2015.46  2036.92  2043.24
                             2052.43  2081.53  2121.26  2158.03  2166.73
                             2173.88  2178.43  2178.92  2184.63  2205.43
                             2214.86  2233.78  2248.32  2534.65  2559.74
                             4304.54  4332.44  4377.17  4385.84  4415.97
                             4430.60  4445.21  4452.16  4470.91  4475.39
                             4489.32  4508.03  4511.41  4516.67  4550.30
                             5131.56  5237.10

 Zero-point correction=                           0.271321 (Hartree/Particle)
 Thermal correction to Energy=                    0.286076
 Thermal correction to Enthalpy=                  0.287020
 Thermal correction to Gibbs Free Energy=         0.228712
 Sum of electronic and zero-point Energies=           -667.725780
 Sum of electronic and thermal Energies=              -667.711026
 Sum of electronic and thermal Enthalpies=            -667.710081
 Sum of electronic and thermal Free Energies=         -667.768389

                     E (Thermal)             CV                S
                      KCal/Mol        Cal/Mol-Kelvin    Cal/Mol-Kelvin
 Total                  179.515             54.545            122.719
 Electronic               0.000              0.000              0.000
 Translational            0.889              2.981             41.771
 Rotational               0.889              2.981             31.646
 Vibrational            177.738             48.583             49.302
 Vibration     1          0.594              1.984              5.839
 Vibration     2          0.596              1.974              4.527
 Vibration     3          0.597              1.973              4.451
 Vibration     4          0.600              1.963              3.915
 Vibration     5          0.601              1.958              3.728
 Vibration     6          0.607              1.939              3.214
 Vibration     7          0.613              1.919              2.888
 Vibration     8          0.626              1.878              2.421
 Vibration     9          0.650              1.801              1.907
 Vibration    10          0.661              1.769              1.757
 Vibration    11          0.674              1.729              1.600
 Vibration    12          0.694              1.669              1.404
 Vibration    13          0.707              1.631              1.300
 Vibration    14          0.720              1.595              1.210
 Vibration    15          0.777              1.441              0.914
 Vibration    16          0.787              1.415              0.874
 Vibration    17          0.811              1.356              0.790
 Vibration    18          0.819              1.336              0.763
 Vibration    19          0.865              1.229              0.635
 Vibration    20          0.879              1.197              0.601
 Vibration    21          0.894              1.165              0.569
 Vibration    22          0.913              1.123              0.528
 Vibration    23          0.970              1.008              0.431

 Optimization completed.
    -- Stationary point found.
 Normal termination of Gaussian 16 at Thu Dec 10 11:25:48 2020.

 ----------------------------------------------------------------------
 # B3LYP/6-311++G(d,p) empiricaldispersion=gd3bj scf=xqc pop=npa geom=c
 heck
 ----------------------------------------------------------------------

 ---------------------------------------
 CID_115280950_JID_4769_Energie_neutraal
 ---------------------------------------
 Structure from the checkpoint file:  "JID_4769.chk"
 Charge =  0 Multiplicity = 1

 SCF Done:  E(RB3LYP) =  -668.197028647     A.U. after   14 cycles
 Normal termination of Gaussian 16 at Thu Dec 10 11:29:05 2020.

 ----------------------------------------------------------------------
 # B3LYP/6-311++G(d,p) empiricaldispersion=gd3bj scf=xqc pop=npa geom=c
 heck
 ----------------------------------------------------------------------

 -------------------------------------
 CID_115280950_JID_4769_Energie_kation
 -------------------------------------
 Structure from the checkpoint file:  "JID_4769.chk"
 Charge =  1 Multiplicity = 2

 SCF Done:  E(UB3LYP) =  -667.888213399     A.U. after   26 cycles
 Normal termination of Gaussian 16 at Thu Dec 10 11:37:03 2020.
 Gaussian 16:  ES64L-G16RevA.03 25-Dec-2016

 ----------------------------------------------------------------------
 # B3LYP/6-311++G(d,p) empiricaldispersion=gd3bj scf=xqc pop=npa geom=c
 heck
 ----------------------------------------------------------------------

 ------------------------------------
 CID_115280950_JID_4769_Energie_anion
 ------------------------------------
 Structure from the checkpoint file:  "JID_4769.chk"
 Charge = -1 Multiplicity = 2

                         Standard orientation:
 ---------------------------------------------------------------------
 Center     Atomic      Atomic             Coordinates (Angstroms)
 Number     Number       Type             X           Y           Z
 ---------------------------------------------------------------------
      1          6           0        3.420467    1.428135   -0.007236
      2          6           0        2.010443    0.866830   -0.210630
      3          6           0        1.296354    1.537484   -1.391065
      4          7           0        2.086218   -0.582605   -0.401206
      5          6           0        1.347726   -1.580228    0.163103
      6          8           0        1.507745   -2.756711   -0.149390
      7          6           0        0.270800   -1.187535    1.184712
      8          7           0       -0.865061   -0.532957    0.555586
      9          6           0       -1.535350   -1.262921   -0.519846
     10          6           0       -2.962403   -0.762705   -0.711189
     11          6           0       -2.949156    0.753872   -0.870302
     12          7           0       -2.258161    1.327357    0.272394
     13          6           0       -1.174470    0.764685    0.908497
     14          8           0       -0.541872    1.395149    1.759493
     15          1           0        4.047567    1.245326   -0.889821
     16          1           0        3.902990    0.961951    0.857285
     17          1           0        3.382483    2.510059    0.156973
     18          1           0        1.426016    1.055213    0.691596
     19          1           0        1.849674    1.379765   -2.325233
     20          1           0        0.290060    1.126985   -1.516812
     21          1           0        1.208369    2.616534   -1.224044
     22          1           0        2.735123   -0.922032   -1.103433
     23          1           0       -0.049543   -2.127247    1.645981
     24          1           0        0.648146   -0.517338    1.957625
     25          1           0       -1.524474   -2.326773   -0.260836
     26          1           0       -0.968518   -1.162610   -1.457993
     27          1           0       -3.569378   -1.030231    0.160862
     28          1           0       -3.404887   -1.235236   -1.593887
     29          1           0       -3.968501    1.152714   -0.900559
     30          1           0       -2.459520    1.026482   -1.819418
     31          1           0       -2.360023    2.310683    0.477205
 ---------------------------------------------------------------------

 SCF Done:  E(UB3LYP) =  -668.187269111     A.U. after   30 cycles

 The electronic state is 2-A.
 Alpha  occ. eigenvalues --  -18.99705 -18.98160 -14.24802 -14.24431 -14.23027
 Alpha  occ. eigenvalues --  -10.19718 -10.18179 -10.12080 -10.11896 -10.11544
 Alpha  occ. eigenvalues --  -10.10776 -10.08095 -10.07721 -10.06619  -0.95334
 Alpha  occ. eigenvalues --   -0.94585  -0.85337  -0.83457  -0.81528  -0.69317
 Alpha  occ. eigenvalues --   -0.68747  -0.64364  -0.60163  -0.59382  -0.54271
 Alpha  occ. eigenvalues --   -0.52483  -0.50108  -0.45819  -0.42904  -0.41736
 Alpha  occ. eigenvalues --   -0.40091  -0.38350  -0.38127  -0.37317  -0.35462
 Alpha  occ. eigenvalues --   -0.34513  -0.34006  -0.33193  -0.32611  -0.32070
 Alpha  occ. eigenvalues --   -0.30718  -0.30028  -0.29565  -0.28588  -0.27260
 Alpha  occ. eigenvalues --   -0.26570  -0.25950  -0.25684  -0.24947  -0.17627
 Alpha  occ. eigenvalues --   -0.17307  -0.16427  -0.15652  -0.14363   0.04174
 Alpha virt. eigenvalues --    0.06035   0.07492   0.07749   0.08786   0.08798
 Alpha virt. eigenvalues --    0.09250   0.09823   0.10478   0.11084   0.11168
 Alpha virt. eigenvalues --    0.11691   0.11773   0.12258   0.13373   0.13859

  Beta  occ. eigenvalues --  -18.99703 -18.98153 -14.24801 -14.24420 -14.23014
  Beta  occ. eigenvalues --  -10.19714 -10.18178 -10.12077 -10.11892 -10.11529
  Beta  occ. eigenvalues --  -10.10723 -10.08064 -10.07696 -10.06582  -0.95322
  Beta  occ. eigenvalues --   -0.94578  -0.85323  -0.83441  -0.81496  -0.69279
  Beta  occ. eigenvalues --   -0.68715  -0.64334  -0.60104  -0.59328  -0.54208
  Beta  occ. eigenvalues --   -0.52437  -0.50071  -0.45768  -0.42876  -0.41681
  Beta  occ. eigenvalues --   -0.40066  -0.38309  -0.38087  -0.37280  -0.35433
  Beta  occ. eigenvalues --   -0.34478  -0.33972  -0.33163  -0.32576  -0.32049
  Beta  occ. eigenvalues --   -0.30690  -0.29992  -0.29545  -0.28561  -0.27216
  Beta  occ. eigenvalues --   -0.26532  -0.25912  -0.25629  -0.24903  -0.17620
  Beta  occ. eigenvalues --   -0.17293  -0.16416  -0.15623  -0.14354
  Beta virt. eigenvalues --    0.06385   0.07233   0.08120   0.08290   0.09263
  Beta virt. eigenvalues --    0.09401   0.09613   0.09996   0.10923   0.11280
  Beta virt. eigenvalues --    0.11669   0.11940   0.12096   0.12803   0.13567

 Mulliken charges and spin densities:
               1          2
     1  C   -0.264287  -0.260938
     2  C   -0.597237   0.520240
     3  C    0.628927  -1.110121
     4  N   -0.041767  -0.023655
     5  C    0.022709  -0.031822
     6  O   -0.328833   0.011121
     7  C   -0.084456  -0.148818
     8  N   -0.001321   0.053543
     9  C    0.130511  -0.271432
    10  C    0.052233  -0.501593
    11  C    1.252414  -1.584797
    12  N   -0.524727   0.359615
    13  C    0.462637  -0.513253
    14  O   -0.376117   0.020426
    15  H   -0.144669   0.283723
    16  H   -0.045658   0.201421
    17  H    0.016726   0.130271
    18  H    0.333665  -0.160536
    19  H   -0.341318   0.500171
    20  H    0.192624  -0.081097
    21  H   -0.121327   0.272673
    22  H    0.252922   0.033902
    23  H    0.147571   0.056648
    24  H    0.194971   0.005331
    25  H    0.023961   0.152532
    26  H    0.040889   0.158442
    27  H    0.116424   0.052555
    28  H   -0.562362   0.752884
    29  H   -1.119649   1.314086
    30  H   -0.261730   0.434363
    31  H   -0.053723   0.374114
 Sum of Mulliken charges =  -1.00000   1.00000

 Dipole moment (field-independent basis, Debye):
    X=              4.7647    Y=             -2.1252    Z=              4.0135  Tot=              6.5823
 Quadrupole moment (field-independent basis, Debye-Ang):
   XX=           -158.9057   YY=           -133.4562   ZZ=           -126.3236
   XY=              9.4586   XZ=             -7.2187   YZ=             -1.1451

 Summary of Natural Population Analysis:

                                       Natural Population
                Natural  -----------------------------------------------
    Atom  No    Charge         Core      Valence    Rydberg      Total
 -----------------------------------------------------------------------
      C    1   -0.28501      0.99965     2.27983    0.00553     3.28501
      C    2   -0.02914      0.99959     2.01905    0.01049     3.02914
      C    3   -0.28487      0.99964     2.27936    0.00587     3.28487
      N    4   -0.31490      0.99965     2.80478    0.01047     3.81490
      C    5    0.33585      0.99967     1.64235    0.02213     2.66415
      O    6   -0.32770      0.99988     3.32183    0.00599     4.32770
      C    7   -0.12518      0.99957     2.11621    0.00940     3.12518
      N    8   -0.26850      0.99964     2.75921    0.00965     3.76850
      C    9   -0.08205      0.99961     2.07211    0.01033     3.08205
      C   10   -0.19719      0.99963     2.18855    0.00902     3.19719
      C   11   -0.08438      0.99962     2.07310    0.01166     3.08438
      N   12   -0.32768      0.99968     2.81729    0.01071     3.82768
      C   13    0.41031      0.99965     1.56651    0.02353     2.58969
      O   14   -0.35384      0.99988     3.34900    0.00497     4.35384
      H   15    0.09678      0.00000     0.40216    0.00106     0.40322
      H   16    0.10046      0.00000     0.39877    0.00077     0.39954
      H   17    0.10302      0.00000     0.39631    0.00067     0.39698
      H   18    0.11488      0.00000     0.38235    0.00277     0.38512
      H   19    0.09746      0.00000     0.40119    0.00135     0.40254
      H   20    0.10279      0.00000     0.39528    0.00193     0.39721
      H   21    0.10261      0.00000     0.39639    0.00100     0.39739
      H   22    0.19182      0.00000     0.30587    0.00231     0.30818
      H   23    0.10233      0.00000     0.39658    0.00109     0.39767
      H   24    0.12192      0.00000     0.37691    0.00117     0.37808
      H   25    0.10166      0.00000     0.39722    0.00112     0.39834
      H   26    0.09426      0.00000     0.40411    0.00162     0.40574
      H   27    0.09930      0.00000     0.39935    0.00134     0.40070
      H   28    0.11004      0.00000     0.38798    0.00199     0.38996
      H   29    0.10489      0.00000     0.38942    0.00569     0.39511
      H   30    0.09039      0.00000     0.40620    0.00341     0.40961
      H   31    0.19967      0.00000     0.29799    0.00234     0.30033
 =======================================================================
   * Total *   -0.00000     13.99536    39.82327    0.18137    54.00000

 Normal termination of Gaussian 16 at Thu Dec 10 11:46:09 2020.
