 Gaussian 16, Revision A.03,

 -----------------------------------------------------------
 # opt freq B3LYP/6-31G(d) empiricaldispersion=gd3bj scf=xqc
 -----------------------------------------------------------

 -------------------------------
 CID_47295024_JID_10891_neutraal
 -------------------------------
 Symbolic Z-matrix:
 Charge =  0 Multiplicity = 1

 SCF Done:  E(RB3LYP) =  -1328.44254774     A.U. after   16 cycles
 SCF Done:  E(RB3LYP) =  -1328.45172871     A.U. after   14 cycles
 SCF Done:  E(RB3LYP) =  -1328.45265578     A.U. after   13 cycles
 SCF Done:  E(RB3LYP) =  -1328.45277467     A.U. after   13 cycles
 SCF Done:  E(RB3LYP) =  -1328.45292865     A.U. after   13 cycles
 SCF Done:  E(RB3LYP) =  -1328.45292002     A.U. after   13 cycles
 SCF Done:  E(RB3LYP) =  -1328.45271458     A.U. after   14 cycles
 SCF Done:  E(RB3LYP) =  -1328.45298583     A.U. after   14 cycles
 SCF Done:  E(RB3LYP) =  -1328.45311225     A.U. after   12 cycles
 SCF Done:  E(RB3LYP) =  -1328.45317804     A.U. after   13 cycles
 SCF Done:  E(RB3LYP) =  -1328.45354846     A.U. after    9 cycles
 SCF Done:  E(RB3LYP) =  -1328.45354880     A.U. after   10 cycles
 SCF Done:  E(RB3LYP) =  -1328.45354910     A.U. after    8 cycles
 SCF Done:  E(RB3LYP) =  -1328.45354916     A.U. after    8 cycles
 SCF Done:  E(RB3LYP) =  -1328.45354919     A.U. after    8 cycles
 Optimization completed.
    -- Stationary point found.
 Normal termination of Gaussian 16 at Mon Dec 14 19:17:36 2020.

 --------------------------------------------------------------------
 #N Geom=AllCheck Guess=TCheck SCRF=Check GenChk RB3LYP/6-31G(d) Freq
 --------------------------------------------------------------------

 Structure from the checkpoint file:  "JID_10891.chk"
 -------------------------------
 CID_47295024_JID_10891_neutraal
 -------------------------------
 Charge =  0 Multiplicity = 1

 SCF Done:  E(RB3LYP) =  -1328.45354919     A.U. after    1 cycles

  Exact polarizability: 186.135   0.251 177.616 -16.358 -11.765 128.603
 Approx polarizability: 261.853  -2.925 309.945 -48.016 -45.863 232.670

                      1                      2                      3
                      A                      A                      A
 Frequencies --     17.3818                21.9508                31.5542
 Red. masses --      6.5965                 7.4186                 6.1471
 Frc consts  --      0.0012                 0.0021                 0.0036
 IR Inten    --      1.3215                 0.4110                 0.0486

                      4                      5                      6
                      A                      A                      A
 Frequencies --     44.4443                63.5725                81.6224
 Red. masses --      2.6979                 7.2772                12.0562
 Frc consts  --      0.0031                 0.0173                 0.0473
 IR Inten    --      0.0354                 1.4916                 0.7537

                      7                      8                      9
                      A                      A                      A
 Frequencies --    109.5941               141.0722               152.5370
 Red. masses --      6.1808                10.1833                 7.3425
 Frc consts  --      0.0437                 0.1194                 0.1007
 IR Inten    --      1.2253                 3.7401                 0.9913

                     10                     11                     12
                      A                      A                      A
 Frequencies --    191.1969               225.0432               233.0790
 Red. masses --      4.3315                 4.7543                 5.5767
 Frc consts  --      0.0933                 0.1419                 0.1785
 IR Inten    --      3.4870                 0.3727                 0.9287

                     13                     14                     15
                      A                      A                      A
 Frequencies --    263.6796               307.0770               319.7427
 Red. masses --      2.8922                 2.3806                 4.6809
 Frc consts  --      0.1185                 0.1323                 0.2820
 IR Inten    --      2.4253                 2.6849                 9.7347

                     16                     17                     18
                      A                      A                      A
 Frequencies --    338.8336               353.6468               402.0997
 Red. masses --      2.4275                 5.5690                 6.5535
 Frc consts  --      0.1642                 0.4104                 0.6243
 IR Inten    --      4.6154                13.0113                 0.2917

                     19                     20                     21
                      A                      A                      A
 Frequencies --    412.0496               420.8405               447.9343
 Red. masses --      3.1484                 2.4380                 2.9963
 Frc consts  --      0.3149                 0.2544                 0.3542
 IR Inten    --     66.5399                14.3376                40.2107

                     22                     23                     24
                      A                      A                      A
 Frequencies --    468.7497               494.1397               547.8867
 Red. masses --      3.3875                10.2299                 1.8277
 Frc consts  --      0.4385                 1.4717                 0.3232
 IR Inten    --     41.3528                 0.5026                 3.1712

                     25                     26                     27
                      A                      A                      A
 Frequencies --    571.2843               610.2440               656.7998
 Red. masses --      4.8367                 7.0659                 3.2824
 Frc consts  --      0.9301                 1.5503                 0.8343
 IR Inten    --     15.2589                 6.6566                 1.1951

                     28                     29                     30
                      A                      A                      A
 Frequencies --    681.6975               691.9910               732.4069
 Red. masses --      4.2446                 2.6368                 5.3262
 Frc consts  --      1.1622                 0.7439                 1.6833
 IR Inten    --     22.2531                 9.1557                12.4101

                     31                     32                     33
                      A                      A                      A
 Frequencies --    734.2975               739.9741               745.3702
 Red. masses --      4.4446                 7.7278                 5.5178
 Frc consts  --      1.4120                 2.4931                 1.8062
 IR Inten    --      8.5173                16.2289                22.1780

                     34                     35                     36
                      A                      A                      A
 Frequencies --    775.2856               813.0477               817.9505
 Red. masses --      4.8620                 2.6620                 4.1584
 Frc consts  --      1.7218                 1.0368                 1.6392
 IR Inten    --     39.1379                20.0617                15.7152

                     37                     38                     39
                      A                      A                      A
 Frequencies --    837.9276               867.2347               879.7872
 Red. masses --      1.8177                 3.6434                 2.1145
 Frc consts  --      0.7519                 1.6145                 0.9643
 IR Inten    --      3.9207                 7.3420                 0.9882

                     40                     41                     42
                      A                      A                      A
 Frequencies --    895.7717               902.7791               912.1761
 Red. masses --      2.7289                 1.9292                 1.6851
 Frc consts  --      1.2901                 0.9264                 0.8261
 IR Inten    --      0.6837                 4.5745                18.7452

                     43                     44                     45
                      A                      A                      A
 Frequencies --    923.3295               965.2979               973.7374
 Red. masses --      2.2495                 2.4423                 1.9405
 Frc consts  --      1.1299                 1.3408                 1.0841
 IR Inten    --      0.6850                21.5662                 6.5925

                     46                     47                     48
                      A                      A                      A
 Frequencies --    986.1605              1042.7486              1059.0164
 Red. masses --      3.6499                 2.1106                 1.7696
 Frc consts  --      2.0914                 1.3521                 1.1693
 IR Inten    --      4.2233                 3.9732                15.5892

                     49                     50                     51
                      A                      A                      A
 Frequencies --   1080.1850              1102.0840              1106.9728
 Red. masses --      1.4471                 3.0055                 3.1882
 Frc consts  --      0.9948                 2.1508                 2.3018
 IR Inten    --      1.9924                 9.7604                47.8067

                     52                     53                     54
                      A                      A                      A
 Frequencies --   1127.9361              1153.2507              1204.0116
 Red. masses --      2.3844                 2.5713                 1.9149
 Frc consts  --      1.7873                 2.0149                 1.6356
 IR Inten    --     10.9010                10.6613                 4.6761

                     55                     56                     57
                      A                      A                      A
 Frequencies --   1214.8970              1223.3703              1242.2924
 Red. masses --      1.7787                 2.6606                 1.6129
 Frc consts  --      1.5468                 2.3461                 1.4666
 IR Inten    --      7.0865                12.1836                27.5371

                     58                     59                     60
                      A                      A                      A
 Frequencies --   1266.8763              1275.0840              1303.5330
 Red. masses --      1.4026                 1.4160                 1.8679
 Frc consts  --      1.3264                 1.3564                 1.8700
 IR Inten    --      5.2575                 9.3428                20.9006

                     61                     62                     63
                      A                      A                      A
 Frequencies --   1336.6640              1358.3135              1364.8172
 Red. masses --      1.4333                 1.5786                 1.3377
 Frc consts  --      1.5088                 1.7160                 1.4681
 IR Inten    --      1.8924                33.8585                 5.6032

                     64                     65                     66
                      A                      A                      A
 Frequencies --   1371.3592              1376.3306              1388.2548
 Red. masses --      1.5581                 1.7981                 1.9241
 Frc consts  --      1.7264                 2.0068                 2.1849
 IR Inten    --     54.4061                96.0992               245.0359

                     67                     68                     69
                      A                      A                      A
 Frequencies --   1396.7023              1423.8655              1452.9632
 Red. masses --      3.1362                 1.9203                 3.8759
 Frc consts  --      3.6046                 2.2938                 4.8210
 IR Inten    --    161.7969                23.0983               112.6407

                     70                     71                     72
                      A                      A                      A
 Frequencies --   1453.2224              1475.4928              1499.1501
 Red. masses --      4.1292                 6.8620                 1.1362
 Frc consts  --      5.1378                 8.8019                 1.5045
 IR Inten    --    178.9569                48.4023                59.7564

                     73                     74                     75
                      A                      A                      A
 Frequencies --   1510.1685              1514.4011              1521.3457
 Red. masses --      1.0830                 1.0942                 1.0875
 Frc consts  --      1.4553                 1.4785                 1.4830
 IR Inten    --      2.1462                 5.7037                 7.3378

                     76                     77                     78
                      A                      A                      A
 Frequencies --   1540.3613              1598.3059              1625.8257
 Red. masses --      1.1073                 6.7635                12.3463
 Frc consts  --      1.5480                10.1799                19.2280
 IR Inten    --      4.5471                34.7885               150.9197

                     79                     80                     81
                      A                      A                      A
 Frequencies --   1810.2041              1870.8397              3045.3363
 Red. masses --     11.9140                10.9973                 1.0676
 Frc consts  --     23.0018                22.6783                 5.8334
 IR Inten    --    507.6954               212.7841                16.9117

                     82                     83                     84
                      A                      A                      A
 Frequencies --   3050.3288              3074.5097              3082.7505
 Red. masses --      1.0695                 1.0601                 1.0621
 Frc consts  --      5.8632                 5.9041                 5.9469
 IR Inten    --     38.4431                16.5380                14.3445

                     85                     86                     87
                      A                      A                      A
 Frequencies --   3108.3342              3112.8963              3114.3697
 Red. masses --      1.0593                 1.0953                 1.0973
 Frc consts  --      6.0302                 6.2531                 6.2705
 IR Inten    --     11.5687                29.4424                16.3882

                     88                     89                     90
                      A                      A                      A
 Frequencies --   3124.9518              3134.2802              3163.3527
 Red. masses --      1.1068                 1.1063                 1.1073
 Frc consts  --      6.3682                 6.4034                 6.5284
 IR Inten    --     22.4244                23.0153                 0.3067

                     91                     92                     93
                      A                      A                      A
 Frequencies --   3264.0993              3268.5197              3640.9579
 Red. masses --      1.0947                 1.0940                 1.0785
 Frc consts  --      6.8719                 6.8862                 8.4239
 IR Inten    --      6.2761                 3.7107                39.8755

 - Thermochemistry -
 -------------------
 Temperature   298.150 Kelvin.  Pressure   1.00000 Atm.
 Atom     1 has atomic number  6 and mass  12.00000

 Molecular mass:   295.06268 amu.
 Principal axes and moments of inertia in atomic units:
                           1         2         3
     Eigenvalues --  3384.775829457.31380**********
           X            0.99965   0.02524   0.00809
           Y           -0.02540   0.99948   0.02006
           Z           -0.00758  -0.02026   0.99977
 This molecule is an asymmetric top.
 Rotational symmetry number  1.
 Warning -- assumption of classical behavior for rotation
           may cause significant error
 Rotational temperatures (Kelvin)      0.02559     0.00916     0.00767
 Rotational constants (GHZ):           0.53319     0.19083     0.15983
 Zero-point vibrational energy     665601.1 (Joules/Mol)
                                  159.08248 (Kcal/Mol)
 Warning -- explicit consideration of  26 degrees of freedom as
           vibrations may cause significant error
 Vibrational temperatures:     25.01    31.58    45.40    63.95    91.47
          (Kelvin)            117.44   157.68   202.97   219.47   275.09
                              323.79   335.35   379.38   441.82   460.04
                              487.51   508.82   578.53   592.85   605.50
                              644.48   674.43   710.96   788.29   821.95
                              878.01   944.99   980.81   995.62  1053.77
                             1056.49  1064.66  1072.42  1115.46  1169.79
                             1176.85  1205.59  1247.76  1265.82  1288.82
                             1298.90  1312.42  1328.47  1388.85  1400.99
                             1418.87  1500.28  1523.69  1554.15  1585.65
                             1592.69  1622.85  1659.27  1732.30  1747.97
                             1760.16  1787.38  1822.75  1834.56  1875.49
                             1923.16  1954.31  1963.67  1973.08  1980.23
                             1997.39  2009.54  2048.62  2090.49  2090.86
                             2122.91  2156.94  2172.80  2178.89  2188.88
                             2216.24  2299.61  2339.20  2604.48  2691.72
                             4381.56  4388.74  4423.53  4435.39  4472.20
                             4478.76  4480.88  4496.11  4509.53  4551.36
                             4696.31  4702.67  5238.53

 Zero-point correction=                           0.253514 (Hartree/Particle)
 Thermal correction to Energy=                    0.271136
 Thermal correction to Enthalpy=                  0.272081
 Thermal correction to Gibbs Free Energy=         0.204440
 Sum of electronic and zero-point Energies=          -1328.200035
 Sum of electronic and thermal Energies=             -1328.182413
 Sum of electronic and thermal Enthalpies=           -1328.181469
 Sum of electronic and thermal Free Energies=        -1328.249110

                     E (Thermal)             CV                S
                      KCal/Mol        Cal/Mol-Kelvin    Cal/Mol-Kelvin
 Total                  170.141             66.103            142.363
 Electronic               0.000              0.000              0.000
 Translational            0.889              2.981             42.943
 Rotational               0.889              2.981             34.246
 Vibrational            168.363             60.141             65.173
 Vibration     1          0.593              1.986              6.913
 Vibration     2          0.593              1.985              6.449
 Vibration     3          0.594              1.983              5.729
 Vibration     4          0.595              1.980              5.050
 Vibration     5          0.597              1.972              4.343
 Vibration     6          0.600              1.962              3.851
 Vibration     7          0.606              1.942              3.276
 Vibration     8          0.615              1.912              2.789
 Vibration     9          0.619              1.900              2.640
 Vibration    10          0.634              1.852              2.216
 Vibration    11          0.650              1.803              1.918
 Vibration    12          0.654              1.790              1.855
 Vibration    13          0.670              1.739              1.637
 Vibration    14          0.697              1.660              1.378
 Vibration    15          0.706              1.636              1.311
 Vibration    16          0.719              1.598              1.218
 Vibration    17          0.730              1.568              1.150
 Vibration    18          0.768              1.466              0.955
 Vibration    19          0.776              1.444              0.919
 Vibration    20          0.783              1.425              0.889
 Vibration    21          0.807              1.365              0.802
 Vibration    22          0.826              1.319              0.741
 Vibration    23          0.850              1.263              0.673
 Vibration    24          0.903              1.144              0.549
 Vibration    25          0.927              1.093              0.502
 Vibration    26          0.969              1.010              0.432

                           ! Non-Optimized Parameters !
 Normal termination of Gaussian 16 at Mon Dec 14 19:36:03 2020.

 ----------------------------------------------------------------------
 # B3LYP/6-311++G(d,p) empiricaldispersion=gd3bj scf=xqc pop=npa geom=c
 heck
 ----------------------------------------------------------------------

 ---------------------------------------
 CID_47295024_JID_10891_Energie_neutraal
 ---------------------------------------
 Structure from the checkpoint file:  "JID_10891.chk"
 Charge =  0 Multiplicity = 1

 SCF Done:  E(RB3LYP) =  -1328.74402514     A.U. after   18 cycles
 Normal termination of Gaussian 16 at Mon Dec 14 19:45:19 2020.

 ----------------------------------------------------------------------
 # B3LYP/6-311++G(d,p) empiricaldispersion=gd3bj scf=xqc pop=npa geom=c
 heck
 ----------------------------------------------------------------------

 -------------------------------------
 CID_47295024_JID_10891_Energie_kation
 -------------------------------------
 Structure from the checkpoint file:  "JID_10891.chk"
 Charge =  1 Multiplicity = 2

 SCF Done:  E(UB3LYP) =  -1328.41062675     A.U. after   33 cycles
 SCF Done:  E(UB3LYP) =  -1328.41062675     a.u. after    1 cycles
 Normal termination of Gaussian 16 at Mon Dec 14 20:09:53 2020.
 Gaussian 16:  ES64L-G16RevA.03 25-Dec-2016

 ----------------------------------------------------------------------
 # B3LYP/6-311++G(d,p) empiricaldispersion=gd3bj scf=xqc pop=npa geom=c
 heck
 ----------------------------------------------------------------------

 ------------------------------------
 CID_47295024_JID_10891_Energie_anion
 ------------------------------------
 Structure from the checkpoint file:  "JID_10891.chk"
 Charge = -1 Multiplicity = 2

                         Standard orientation:
 ---------------------------------------------------------------------
 Center     Atomic      Atomic             Coordinates (Angstroms)
 Number     Number       Type             X           Y           Z
 ---------------------------------------------------------------------
      1          6           0       -4.574860   -1.724534   -0.322279
      2          6           0       -3.247350   -2.387953   -0.720421
      3          6           0       -2.420032   -1.204535   -1.230610
      4          6           0       -2.742495   -0.056989   -0.230760
      5          6           0       -4.143250   -0.411316    0.362536
      6          6           0       -1.665317   -0.006289    0.859306
      7          8           0       -1.384234   -0.888347    1.650046
      8          7           0       -1.049769    1.219677    0.758870
      9          6           0       -1.548484    1.979394   -0.323010
     10          8           0       -1.087572    3.039232   -0.700729
     11          7           0       -2.622836    1.280161   -0.805490
     12          6           0        0.157365    1.595322    1.481999
     13          6           0        1.389528    1.093685    0.775096
     14          6           0        2.107510    1.840236   -0.131478
     15         16           0        3.414141    0.967024   -0.849010
     16          6           0        2.974703   -0.433488    0.082250
     17          6           0        1.889453   -0.234453    0.894995
     18          7           0        3.732802   -1.642939   -0.048947
     19          8           0        4.684774   -1.627438   -0.836343
     20          8           0        3.381262   -2.609704    0.628149
     21          1           0       -5.163778   -1.507496   -1.222711
     22          1           0       -5.191801   -2.351017    0.328431
     23          1           0       -3.362641   -3.178011   -1.468849
     24          1           0       -2.761301   -2.819167    0.161562
     25          1           0       -2.769213   -0.899380   -2.225938
     26          1           0       -1.346516   -1.403095   -1.302306
     27          1           0       -4.047033   -0.562210    1.441910
     28          1           0       -4.841259    0.414519    0.202931
     29          1           0       -2.993564    1.520032   -1.713889
     30          1           0        0.165640    2.684000    1.553307
     31          1           0        0.078787    1.168486    2.484253
     32          1           0        1.904227    2.860308   -0.430460
     33          1           0        1.466355   -1.002093    1.530155
 ---------------------------------------------------------------------

 SCF Done:  E(UB3LYP) =  -1328.78775742     A.U. after   29 cycles

 The electronic state is 2-A.
 Alpha  occ. eigenvalues --  -88.73328 -19.02682 -19.02154 -18.94162 -18.94124
 Alpha  occ. eigenvalues --  -14.32352 -14.27740 -14.27138 -10.22951 -10.20470
 Alpha  occ. eigenvalues --  -10.16369 -10.11821 -10.11211 -10.11004 -10.10979
 Alpha  occ. eigenvalues --  -10.10254 -10.07385 -10.05331 -10.05254 -10.02662
 Alpha  occ. eigenvalues --   -7.81943  -5.78234  -5.77879  -5.77558  -1.02272
 Alpha  occ. eigenvalues --   -0.99727  -0.96749  -0.90066  -0.85140  -0.84171
 Alpha  occ. eigenvalues --   -0.77271  -0.74869  -0.67413  -0.65747  -0.65631
 Alpha  occ. eigenvalues --   -0.61654  -0.59188  -0.56402  -0.53620  -0.51962
 Alpha  occ. eigenvalues --   -0.51163  -0.49848  -0.45219  -0.43166  -0.42431
 Alpha  occ. eigenvalues --   -0.40918  -0.39416  -0.39015  -0.38671  -0.36792
 Alpha  occ. eigenvalues --   -0.36471  -0.36344  -0.35615  -0.34771  -0.32678
 Alpha  occ. eigenvalues --   -0.31748  -0.31634  -0.31092  -0.30687  -0.29404
 Alpha  occ. eigenvalues --   -0.28996  -0.28664  -0.28086  -0.26759  -0.26035
 Alpha  occ. eigenvalues --   -0.25273  -0.24065  -0.21673  -0.21248  -0.19784
 Alpha  occ. eigenvalues --   -0.18679  -0.18368  -0.13598  -0.12063  -0.11998
 Alpha  occ. eigenvalues --   -0.10771  -0.09998   0.02436
 Alpha virt. eigenvalues --    0.04544   0.06177   0.06605   0.07214   0.08075
 Alpha virt. eigenvalues --    0.08986   0.09481   0.09973   0.10631   0.11320
 Alpha virt. eigenvalues --    0.12021   0.12087   0.12431   0.12874   0.13369

  Beta  occ. eigenvalues --  -88.73277 -19.02681 -19.02151 -18.93695 -18.93648
  Beta  occ. eigenvalues --  -14.31756 -14.27749 -14.27139 -10.22951 -10.20470
  Beta  occ. eigenvalues --  -10.16369 -10.11814 -10.11211 -10.11004 -10.10978
  Beta  occ. eigenvalues --  -10.10254 -10.07329 -10.05434 -10.04944 -10.02412
  Beta  occ. eigenvalues --   -7.81897  -5.78212  -5.77858  -5.77385  -1.01252
  Beta  occ. eigenvalues --   -0.99727  -0.96746  -0.90066  -0.84251  -0.84178
  Beta  occ. eigenvalues --   -0.77270  -0.74597  -0.67380  -0.65742  -0.65606
  Beta  occ. eigenvalues --   -0.60920  -0.58912  -0.56399  -0.53377  -0.51918
  Beta  occ. eigenvalues --   -0.50662  -0.49693  -0.45219  -0.43150  -0.42287
  Beta  occ. eigenvalues --   -0.40855  -0.39283  -0.38912  -0.38334  -0.36651
  Beta  occ. eigenvalues --   -0.36456  -0.36072  -0.35605  -0.32555  -0.31881
  Beta  occ. eigenvalues --   -0.31732  -0.31081  -0.30957  -0.30583  -0.29383
  Beta  occ. eigenvalues --   -0.28945  -0.28662  -0.28083  -0.26747  -0.25871
  Beta  occ. eigenvalues --   -0.25104  -0.23167  -0.21480  -0.21117  -0.19762
  Beta  occ. eigenvalues --   -0.18677  -0.18357  -0.11652  -0.11603  -0.09789
  Beta  occ. eigenvalues --   -0.09530  -0.09146
  Beta virt. eigenvalues --    0.04517   0.06173   0.06582   0.07191   0.08024
  Beta virt. eigenvalues --    0.08954   0.09317   0.09464   0.09939   0.10601
  Beta virt. eigenvalues --    0.11307   0.12045   0.12091   0.12515   0.13087

 Mulliken charges and spin densities:
               1          2
     1  C   -0.418679  -0.018780
     2  C   -0.398260  -0.021117
     3  C   -0.158805   0.029576
     4  C    0.693283  -0.024251
     5  C   -0.297501   0.016893
     6  C   -0.935561  -0.051158
     7  O   -0.248465   0.001497
     8  N    0.241801   0.005512
     9  C    0.285682   0.014296
    10  O   -0.358565   0.000713
    11  N   -0.215204   0.004293
    12  C   -0.916387   0.007580
    13  C   -0.507948  -0.099921
    14  C    0.634747   0.232141
    15  S   -0.557593   0.097895
    16  C   -1.036219  -0.069076
    17  C    1.314228   0.268750
    18  N   -0.178373   0.208318
    19  O   -0.233789   0.178501
    20  O   -0.177338   0.183111
    21  H    0.110908   0.005602
    22  H    0.156952  -0.001331
    23  H    0.161187   0.000054
    24  H    0.181124   0.001801
    25  H    0.138845  -0.004007
    26  H    0.157323   0.053200
    27  H    0.195590   0.004893
    28  H    0.157863   0.000813
    29  H    0.303237   0.002589
    30  H    0.182662   0.002622
    31  H    0.192977   0.000690
    32  H    0.255466  -0.016890
    33  H    0.274811  -0.014810
 Sum of Mulliken charges =  -1.00000   1.00000

 Dipole moment (field-independent basis, Debye):
    X=            -17.2268    Y=              4.3529    Z=             -0.8409  Tot=             17.7881
 Quadrupole moment (field-independent basis, Debye-Ang):
   XX=           -191.4138   YY=           -160.5934   ZZ=           -131.7440
   XY=             28.6237   XZ=              9.8628   YZ=              6.9634

 Summary of Natural Population Analysis:

                                       Natural Population
                Natural  -----------------------------------------------
    Atom  No    Charge         Core      Valence    Rydberg      Total
 -----------------------------------------------------------------------
      C    1   -0.19167      0.99965     2.18535    0.00667     3.19167
      C    2   -0.19550      0.99964     2.18884    0.00702     3.19550
      C    3   -0.18824      0.99960     2.18042    0.00822     3.18824
      C    4    0.02619      0.99954     1.96115    0.01313     2.97381
      C    5   -0.19113      0.99961     2.18390    0.00763     3.19113
      C    6    0.35652      0.99958     1.62081    0.02310     2.64348
      O    7   -0.30238      0.99987     3.29631    0.00619     4.30238
      N    8   -0.25842      0.99959     2.74689    0.01194     3.75842
      C    9    0.41674      0.99969     1.56115    0.02242     2.58326
      O   10   -0.31361      0.99987     3.30763    0.00611     4.31361
      N   11   -0.32812      0.99964     2.81954    0.00894     3.82812
      C   12   -0.09230      0.99958     2.08123    0.01149     3.09230
      C   13   -0.09491      0.99948     2.08589    0.00955     3.09491
      C   14   -0.12752      0.99948     2.11681    0.01123     3.12752
      S   15    0.23311      4.99942     2.74293    0.02454     7.76689
      C   16   -0.03243      0.99942     2.01525    0.01775     3.03243
      C   17   -0.07396      0.99943     2.06422    0.01031     3.07396
      N   18    0.29282      0.99966     2.18096    0.02656     3.20718
      O   19   -0.19774      0.99990     3.19028    0.00756     4.19774
      O   20   -0.19329      0.99990     3.18555    0.00785     4.19329
      H   21    0.09085      0.00000     0.40796    0.00119     0.40915
      H   22    0.10013      0.00000     0.39890    0.00097     0.39987
      H   23    0.09964      0.00000     0.39935    0.00102     0.40036
      H   24    0.10898      0.00000     0.38983    0.00120     0.39102
      H   25    0.09447      0.00000     0.40438    0.00115     0.40553
      H   26    0.11743      0.00000     0.38154    0.00104     0.38257
      H   27    0.10785      0.00000     0.39106    0.00109     0.39215
      H   28    0.10336      0.00000     0.39563    0.00101     0.39664
      H   29    0.19707      0.00000     0.30092    0.00201     0.30293
      H   30    0.10917      0.00000     0.38972    0.00111     0.39083
      H   31    0.10790      0.00000     0.39072    0.00138     0.39210
      H   32    0.10185      0.00000     0.39707    0.00108     0.39815
      H   33    0.11717      0.00000     0.38162    0.00121     0.38283
 =======================================================================
   * Total *    0.00000     23.99254    52.74381    0.26365    77.00000

 Normal termination of Gaussian 16 at Mon Dec 14 20:31:09 2020.
