 Gaussian 16, Revision A.03,

 -----------------------------------------------------------
 # opt freq B3LYP/6-31G(d) empiricaldispersion=gd3bj scf=xqc
 -----------------------------------------------------------

 -------------------------------
 CID_152644038_JID_2296_neutraal
 -------------------------------
 Symbolic Z-matrix:
 Charge =  0 Multiplicity = 1

 SCF Done:  E(RB3LYP) =  -691.727506584     A.U. after   17 cycles
 SCF Done:  E(RB3LYP) =  -691.729666275     A.U. after   17 cycles
 SCF Done:  E(RB3LYP) =  -691.722633696     A.U. after   18 cycles
 SCF Done:  E(RB3LYP) =  -691.732977555     A.U. after   15 cycles
 SCF Done:  E(RB3LYP) =  -691.733073050     A.U. after   15 cycles
 SCF Done:  E(RB3LYP) =  -691.730778263     A.U. after   16 cycles
 SCF Done:  E(RB3LYP) =  -691.733694115     A.U. after   15 cycles
 SCF Done:  E(RB3LYP) =  -691.733968704     A.U. after   15 cycles
 SCF Done:  E(RB3LYP) =  -691.734158355     A.U. after   14 cycles
 SCF Done:  E(RB3LYP) =  -691.734378447     A.U. after   14 cycles
 SCF Done:  E(RB3LYP) =  -691.738143494     A.U. after   14 cycles
 SCF Done:  E(RB3LYP) =  -691.738221277     A.U. after   13 cycles
 SCF Done:  E(RB3LYP) =  -691.738214358     A.U. after   13 cycles
 SCF Done:  E(RB3LYP) =  -691.738233448     A.U. after   12 cycles
 SCF Done:  E(RB3LYP) =  -691.738237187     A.U. after   10 cycles
 SCF Done:  E(RB3LYP) =  -691.738237309     A.U. after    9 cycles
 Optimization completed.
    -- Stationary point found.
 Normal termination of Gaussian 16 at Wed Dec  9 17:01:49 2020.

 --------------------------------------------------------------------
 #N Geom=AllCheck Guess=TCheck SCRF=Check GenChk RB3LYP/6-31G(d) Freq
 --------------------------------------------------------------------

 Structure from the checkpoint file:  "JID_2296.chk"
 -------------------------------
 CID_152644038_JID_2296_neutraal
 -------------------------------
 Charge =  0 Multiplicity = 1

 SCF Done:  E(RB3LYP) =  -691.738237309     A.U. after    1 cycles

  Exact polarizability:  81.442   0.024  69.771 -15.578  -0.215  75.936
 Approx polarizability: 155.313  -5.555 109.837 -51.067  11.949 151.392

                      1                      2                      3
                      A                      A                      A
 Frequencies --     54.4074                62.4031                67.6533
 Red. masses --     13.4379                 7.9411                13.0021
 Frc consts  --      0.0234                 0.0182                 0.0351
 IR Inten    --      0.4490                 1.5728                 1.1574

                      4                      5                      6
                      A                      A                      A
 Frequencies --    102.4329               126.7663               176.1896
 Red. masses --     13.0932                 9.5604                10.4413
 Frc consts  --      0.0809                 0.0905                 0.1910
 IR Inten    --      0.2682                 2.3461                 0.7115

                      7                      8                      9
                      A                      A                      A
 Frequencies --    214.9841               242.3901               290.8423
 Red. masses --      8.4205                 5.5171                 7.7773
 Frc consts  --      0.2293                 0.1910                 0.3876
 IR Inten    --     10.9249                 2.7641                12.8931

                     10                     11                     12
                      A                      A                      A
 Frequencies --    356.0097               406.6260               502.3421
 Red. masses --      2.1621                 6.0123                 4.4723
 Frc consts  --      0.1615                 0.5857                 0.6649
 IR Inten    --      4.6451                 0.2461                19.7558

                     13                     14                     15
                      A                      A                      A
 Frequencies --    568.7056               570.2327               596.9803
 Red. masses --      9.4318                 4.9503                 5.1238
 Frc consts  --      1.7973                 0.9484                 1.0759
 IR Inten    --      7.6248                16.1014                11.8698

                     16                     17                     18
                      A                      A                      A
 Frequencies --    621.0024               670.6833               681.8758
 Red. masses --      5.8993                 6.8549                 5.7225
 Frc consts  --      1.3404                 1.8167                 1.5677
 IR Inten    --      1.8250                10.0201                 2.2104

                     19                     20                     21
                      A                      A                      A
 Frequencies --    826.1315               863.3058               896.0821
 Red. masses --      4.1755                 9.6525                 4.7560
 Frc consts  --      1.6790                 4.2386                 2.2500
 IR Inten    --     13.5858                 9.4055                22.0323

                     22                     23                     24
                      A                      A                      A
 Frequencies --    905.2085               960.6435               977.1883
 Red. masses --      3.7934                 2.2852                 4.4851
 Frc consts  --      1.8314                 1.2425                 2.5234
 IR Inten    --     20.7803                 2.8831                 4.3397

                     25                     26                     27
                      A                      A                      A
 Frequencies --   1095.9758              1117.0914              1259.7260
 Red. masses --      2.3464                 1.7130                 1.1237
 Frc consts  --      1.6606                 1.2594                 1.0506
 IR Inten    --      3.3198                 4.9608                 4.6095

                     28                     29                     30
                      A                      A                      A
 Frequencies --   1282.1680              1328.8372              1354.7081
 Red. masses --      1.3565                 3.1003                 1.5295
 Frc consts  --      1.3139                 3.2255                 1.6539
 IR Inten    --      9.6182                81.4491                18.4717

                     31                     32                     33
                      A                      A                      A
 Frequencies --   1373.6240              1384.3788              1406.2402
 Red. masses --      2.0268                 1.3428                 1.5203
 Frc consts  --      2.2532                 1.5162                 1.7714
 IR Inten    --     49.5159                 6.3135                19.5619

                     34                     35                     36
                      A                      A                      A
 Frequencies --   1420.3985              1443.3147              1481.7809
 Red. masses --      5.8900                 5.0111                 1.1298
 Frc consts  --      7.0014                 6.1504                 1.4615
 IR Inten    --     59.3889                81.2037                36.9352

                     37                     38                     39
                      A                      A                      A
 Frequencies --   1505.2907              1684.3582              1686.1865
 Red. masses --      1.0986                11.4801                12.4313
 Frc consts  --      1.4667                19.1895                20.8247
 IR Inten    --     12.7084               302.8881               169.7289

                     40                     41                     42
                      A                      A                      A
 Frequencies --   2286.8696              3081.0100              3090.6822
 Red. masses --     13.6954                 1.0732                 1.0694
 Frc consts  --     42.1996                 6.0024                 6.0187
 IR Inten    --    363.0725                 5.0944                19.9797

                     43                     44                     45
                      A                      A                      A
 Frequencies --   3127.8628              3135.2652              3194.3666
 Red. masses --      1.0611                 1.1063                 1.1076
 Frc consts  --      6.1166                 6.4075                 6.6590
 IR Inten    --      0.5062                 3.9787                 1.1394

 - Thermochemistry -
 -------------------
 Temperature   298.150 Kelvin.  Pressure   1.00000 Atm.
 Atom     1 has atomic number  6 and mass  12.00000

 Molecular mass:   175.03415 amu.
 Principal axes and moments of inertia in atomic units:
                           1         2         3
     Eigenvalues --  1675.078831715.160572421.41210
           X            0.99948  -0.03164  -0.00543
           Y            0.03155   0.99937  -0.01636
           Z            0.00594   0.01618   0.99985
 This molecule is an asymmetric top.
 Rotational symmetry number  1.
 Warning -- assumption of classical behavior for rotation
           may cause significant error
 Rotational temperatures (Kelvin)      0.05171     0.05050     0.03577
 Rotational constants (GHZ):           1.07741     1.05223     0.74533
 Zero-point vibrational energy     301944.8 (Joules/Mol)
                                   72.16653 (Kcal/Mol)
 Warning -- explicit consideration of  15 degrees of freedom as
           vibrations may cause significant error
 Vibrational temperatures:     78.28    89.78    97.34   147.38   182.39
          (Kelvin)            253.50   309.31   348.75   418.46   512.22
                              585.04   722.76   818.24   820.44   858.92
                              893.48   964.96   981.07  1188.62  1242.10
                             1289.26  1302.39  1382.15  1405.96  1576.86
                             1607.25  1812.46  1844.75  1911.90  1949.12
                             1976.34  1991.81  2023.27  2043.64  2076.61
                             2131.95  2165.78  2423.42  2426.05  3290.30
                             4432.89  4446.80  4500.30  4510.95  4595.98

 Zero-point correction=                           0.115005 (Hartree/Particle)
 Thermal correction to Energy=                    0.126009
 Thermal correction to Enthalpy=                  0.126954
 Thermal correction to Gibbs Free Energy=         0.076847
 Sum of electronic and zero-point Energies=           -691.623233
 Sum of electronic and thermal Energies=              -691.612228
 Sum of electronic and thermal Enthalpies=            -691.611284
 Sum of electronic and thermal Free Energies=         -691.661390

                     E (Thermal)             CV                S
                      KCal/Mol        Cal/Mol-Kelvin    Cal/Mol-Kelvin
 Total                   79.072             38.017            105.458
 Electronic               0.000              0.000              0.000
 Translational            0.889              2.981             41.387
 Rotational               0.889              2.981             30.321
 Vibrational             77.295             32.055             33.750
 Vibration     1          0.596              1.976              4.650
 Vibration     2          0.597              1.972              4.380
 Vibration     3          0.598              1.970              4.220
 Vibration     4          0.605              1.947              3.407
 Vibration     5          0.611              1.926              2.995
 Vibration     6          0.628              1.872              2.368
 Vibration     7          0.645              1.818              2.001
 Vibration     8          0.659              1.775              1.785
 Vibration     9          0.687              1.691              1.469
 Vibration    10          0.732              1.563              1.139
 Vibration    11          0.771              1.456              0.939
 Vibration    12          0.858              1.245              0.652
 Vibration    13          0.925              1.099              0.507
 Vibration    14          0.926              1.096              0.504
 Vibration    15          0.955              1.038              0.455

 Optimization completed.
    -- Stationary point found.
 Normal termination of Gaussian 16 at Wed Dec  9 17:05:50 2020.

 ----------------------------------------------------------------------
 # B3LYP/6-311++G(d,p) empiricaldispersion=gd3bj scf=xqc pop=npa geom=c
 heck
 ----------------------------------------------------------------------

 ---------------------------------------
 CID_152644038_JID_2296_Energie_neutraal
 ---------------------------------------
 Structure from the checkpoint file:  "JID_2296.chk"
 Charge =  0 Multiplicity = 1

 SCF Done:  E(RB3LYP) =  -691.947197682     A.U. after   16 cycles
 Normal termination of Gaussian 16 at Wed Dec  9 17:08:23 2020.

 ----------------------------------------------------------------------
 # B3LYP/6-311++G(d,p) empiricaldispersion=gd3bj scf=xqc pop=npa geom=c
 heck
 ----------------------------------------------------------------------

 -------------------------------------
 CID_152644038_JID_2296_Energie_kation
 -------------------------------------
 Structure from the checkpoint file:  "JID_2296.chk"
 Charge =  1 Multiplicity = 2

 SCF Done:  E(UB3LYP) =  -691.579205699     A.U. after   30 cycles
 Normal termination of Gaussian 16 at Wed Dec  9 17:13:25 2020.
 Gaussian 16:  ES64L-G16RevA.03 25-Dec-2016

 ----------------------------------------------------------------------
 # B3LYP/6-311++G(d,p) empiricaldispersion=gd3bj scf=xqc pop=npa geom=c
 heck
 ----------------------------------------------------------------------

 ------------------------------------
 CID_152644038_JID_2296_Energie_anion
 ------------------------------------
 Structure from the checkpoint file:  "JID_2296.chk"
 Charge = -1 Multiplicity = 2

                         Standard orientation:
 ---------------------------------------------------------------------
 Center     Atomic      Atomic             Coordinates (Angstroms)
 Number     Number       Type             X           Y           Z
 ---------------------------------------------------------------------
      1          6           0        0.859231   -0.199610    1.576253
      2          6           0       -0.407269   -0.847673    1.009839
      3          6           0       -1.576742    0.091341    0.753212
      4          7           0       -1.324006    1.108814   -0.332841
      5          8           0       -0.683905    0.735210   -1.310841
      6          8           0       -1.841288    2.205447   -0.181918
      7          7           0       -0.129684   -1.697240   -0.232579
      8          8           0       -1.101396   -2.255642   -0.723650
      9          8           0        1.030792   -1.806647   -0.602155
     10          7           0        1.253343    1.053341    0.926664
     11          7           0        1.942935    0.946721   -0.101904
     12          7           0        2.577831    1.014900   -1.041801
     13          1           0        1.666501   -0.937538    1.582784
     14          1           0        0.638935    0.072085    2.612240
     15          1           0       -0.760944   -1.592079    1.732206
     16          1           0       -2.444869   -0.476437    0.413042
     17          1           0       -1.827504    0.656924    1.649644
 ---------------------------------------------------------------------

 SCF Done:  E(UB3LYP) =  -691.984942147     A.U. after   25 cycles

 The electronic state is 2-A.
 Alpha  occ. eigenvalues --  -18.98118 -18.97910 -18.97327 -18.97298 -14.36365
 Alpha  occ. eigenvalues --  -14.35281 -14.34200 -14.26421 -14.24023 -10.11376
 Alpha  occ. eigenvalues --  -10.10978 -10.09634  -1.05931  -1.05098  -1.02105
 Alpha  occ. eigenvalues --   -0.88933  -0.88377  -0.86333  -0.72276  -0.64145
 Alpha  occ. eigenvalues --   -0.59095  -0.49188  -0.45495  -0.42266  -0.41146
 Alpha  occ. eigenvalues --   -0.40457  -0.38369  -0.37860  -0.37016  -0.35602
 Alpha  occ. eigenvalues --   -0.34942  -0.34293  -0.33704  -0.31280  -0.29652
 Alpha  occ. eigenvalues --   -0.28223  -0.26374  -0.19020  -0.16294  -0.15376
 Alpha  occ. eigenvalues --   -0.14837  -0.14250  -0.13576  -0.13345  -0.12703
 Alpha  occ. eigenvalues --    0.03199
 Alpha virt. eigenvalues --    0.06648   0.07828   0.08652   0.10649   0.11130
 Alpha virt. eigenvalues --    0.11976   0.12258   0.13830   0.15135   0.17213
 Alpha virt. eigenvalues --    0.17938   0.18152   0.18728   0.20136   0.21315

  Beta  occ. eigenvalues --  -18.97789 -18.97692 -18.97025 -18.96913 -14.36355
  Beta  occ. eigenvalues --  -14.34686 -14.33495 -14.26415 -14.24024 -10.11366
  Beta  occ. eigenvalues --  -10.11005 -10.09641  -1.05123  -1.04154  -1.02086
  Beta  occ. eigenvalues --   -0.88406  -0.87729  -0.86316  -0.72112  -0.63908
  Beta  occ. eigenvalues --   -0.58546  -0.48380  -0.45034  -0.41748  -0.40816
  Beta  occ. eigenvalues --   -0.39967  -0.37891  -0.37201  -0.35583  -0.34679
  Beta  occ. eigenvalues --   -0.34191  -0.33640  -0.33536  -0.30870  -0.29414
  Beta  occ. eigenvalues --   -0.27465  -0.26049  -0.18982  -0.14726  -0.14365
  Beta  occ. eigenvalues --   -0.14001  -0.13334  -0.13123  -0.12939  -0.12404
  Beta virt. eigenvalues --    0.07209   0.08555   0.09956   0.10569   0.10822
  Beta virt. eigenvalues --    0.11901   0.12403   0.12726   0.13984   0.15083
  Beta virt. eigenvalues --    0.17146   0.18002   0.18165   0.18769   0.20156

 Mulliken charges and spin densities:
               1          2
     1  C   -0.635144  -0.116219
     2  C    0.612306  -0.062121
     3  C   -0.536304  -0.094555
     4  N   -0.277186   0.192156
     5  O   -0.104071   0.087246
     6  O   -0.128298   0.126476
     7  N   -0.163444   0.213078
     8  O   -0.186183   0.117247
     9  O   -0.204849   0.159105
    10  N   -0.042785   0.033016
    11  N    0.406830  -0.016332
    12  N   -0.349981  -0.020144
    13  H    0.146027   0.044725
    14  H    0.120420   0.035178
    15  H    0.011364   0.227282
    16  H    0.223163   0.010543
    17  H    0.108135   0.063319
 Sum of Mulliken charges =  -1.00000   1.00000

 Dipole moment (field-independent basis, Debye):
    X=              1.0193    Y=             -0.1355    Z=              5.9654  Tot=              6.0534
 Quadrupole moment (field-independent basis, Debye-Ang):
   XX=            -84.5576   YY=            -99.3836   ZZ=            -79.7241
   XY=              4.2556   XZ=              0.1697   YZ=             -4.2326

 Summary of Natural Population Analysis:

                                       Natural Population
                Natural  -----------------------------------------------
    Atom  No    Charge         Core      Valence    Rydberg      Total
 -----------------------------------------------------------------------
      C    1   -0.10635      0.99955     2.09148    0.01531     3.10635
      C    2   -0.05065      0.99952     2.03731    0.01381     3.05065
      C    3   -0.12820      0.99954     2.11565    0.01302     3.12820
      N    4    0.30869      0.99978     2.16266    0.02888     3.19131
      O    5   -0.20041      0.99990     3.19129    0.00922     4.20041
      O    6   -0.19585      0.99989     3.18806    0.00790     4.19585
      N    7    0.32454      0.99976     2.14611    0.02959     3.17546
      O    8   -0.20919      0.99989     3.20133    0.00797     4.20919
      O    9   -0.18767      0.99989     3.17968    0.00809     4.18767
      N   10   -0.19212      0.99970     2.67842    0.01400     3.69212
      N   11    0.12787      0.99970     2.35626    0.01617     3.37213
      N   12   -0.03149      0.99981     2.51911    0.01257     3.53149
      H   13    0.10801      0.00000     0.39048    0.00151     0.39199
      H   14    0.09676      0.00000     0.40201    0.00122     0.40324
      H   15    0.11101      0.00000     0.38711    0.00188     0.38899
      H   16    0.12025      0.00000     0.37874    0.00101     0.37975
      H   17    0.10479      0.00000     0.39404    0.00117     0.39521
 =======================================================================
   * Total *    0.00000     11.99694    32.81973    0.18333    45.00000

 Normal termination of Gaussian 16 at Wed Dec  9 17:17:08 2020.
