 Gaussian 16, Revision A.03,

 -----------------------------------------------------------
 # opt freq B3LYP/6-31G(d) empiricaldispersion=gd3bj scf=xqc
 -----------------------------------------------------------

 ------------------------------
 CID_80499275_JID_1606_neutraal
 ------------------------------
 Symbolic Z-matrix:
 Charge =  0 Multiplicity = 1

 SCF Done:  E(RB3LYP) =  -806.148582296     A.U. after   13 cycles
 SCF Done:  E(RB3LYP) =  -806.153848095     A.U. after   11 cycles
 SCF Done:  E(RB3LYP) =  -806.154623753     A.U. after   11 cycles
 SCF Done:  E(RB3LYP) =  -806.154801635     A.U. after   10 cycles
 SCF Done:  E(RB3LYP) =  -806.154846465     A.U. after    9 cycles
 SCF Done:  E(RB3LYP) =  -806.154856596     A.U. after    9 cycles
 SCF Done:  E(RB3LYP) =  -806.154863049     A.U. after    9 cycles
 SCF Done:  E(RB3LYP) =  -806.154864041     A.U. after    7 cycles
 Optimization completed.
    -- Stationary point found.
 Normal termination of Gaussian 16 at Tue Dec  8 20:29:04 2020.

 --------------------------------------------------------------------
 #N Geom=AllCheck Guess=TCheck SCRF=Check GenChk RB3LYP/6-31G(d) Freq
 --------------------------------------------------------------------

 Structure from the checkpoint file:  "JID_1606.chk"
 ------------------------------
 CID_80499275_JID_1606_neutraal
 ------------------------------
 Charge =  0 Multiplicity = 1

 SCF Done:  E(RB3LYP) =  -806.154864041     A.U. after    1 cycles

  Exact polarizability: 134.922   0.300 106.999   2.372   0.432  99.796
 Approx polarizability: 177.878   0.609 168.453   4.015   5.509 152.276

                      1                      2                      3
                      A                      A                      A
 Frequencies --     72.7185               109.8683               146.0396
 Red. masses --      3.5713                 2.9007                 2.6928
 Frc consts  --      0.0111                 0.0206                 0.0338
 IR Inten    --      0.7135                 0.8913                 0.1951

                      4                      5                      6
                      A                      A                      A
 Frequencies --    181.0471               219.2705               224.8348
 Red. masses --      3.5907                 1.0929                 2.2479
 Frc consts  --      0.0693                 0.0310                 0.0670
 IR Inten    --      0.7027                 0.4586                 0.1042

                      7                      8                      9
                      A                      A                      A
 Frequencies --    258.5828               294.5598               308.8403
 Red. masses --      1.2444                 2.2722                 2.7580
 Frc consts  --      0.0490                 0.1162                 0.1550
 IR Inten    --      0.4825                 0.6983                 0.5383

                     10                     11                     12
                      A                      A                      A
 Frequencies --    318.3723               349.0006               360.4203
 Red. masses --      3.6522                 2.7001                 3.5512
 Frc consts  --      0.2181                 0.1938                 0.2718
 IR Inten    --      2.4476                 2.1030                 3.2631

                     13                     14                     15
                      A                      A                      A
 Frequencies --    398.1205               443.4721               482.4273
 Red. masses --      2.6329                 2.8070                 2.9947
 Frc consts  --      0.2459                 0.3253                 0.4106
 IR Inten    --      3.6450                11.8358                 1.9190

                     16                     17                     18
                      A                      A                      A
 Frequencies --    488.7858               559.0040               596.8737
 Red. masses --      3.0042                 2.8132                 2.7597
 Frc consts  --      0.4229                 0.5179                 0.5793
 IR Inten    --      1.7233                 4.3854                 0.4800

                     19                     20                     21
                      A                      A                      A
 Frequencies --    641.9943               775.1853               792.6104
 Red. masses --      2.7402                 1.4824                 1.6675
 Frc consts  --      0.6654                 0.5249                 0.6172
 IR Inten    --      5.2608                39.1104                89.0314

                     22                     23                     24
                      A                      A                      A
 Frequencies --    825.3243               845.9516               850.5040
 Red. masses --      1.4617                 1.9673                 1.3738
 Frc consts  --      0.5866                 0.8295                 0.5855
 IR Inten    --      1.7786                 9.9097                39.6675

                     25                     26                     27
                      A                      A                      A
 Frequencies --    874.6271               912.9284               955.3861
 Red. masses --      2.1034                 2.4167                 3.5470
 Frc consts  --      0.9480                 1.1867                 1.9075
 IR Inten    --      0.1681                 2.8661                 5.0529

                     28                     29                     30
                      A                      A                      A
 Frequencies --    975.7686               991.3153              1002.6891
 Red. masses --      2.0336                 1.8719                 1.8489
 Frc consts  --      1.1408                 1.0838                 1.0952
 IR Inten    --      8.0828                 3.1895                 4.4210

                     31                     32                     33
                      A                      A                      A
 Frequencies --   1028.9556              1066.2560              1069.7031
 Red. masses --      1.5657                 1.3451                 1.3964
 Frc consts  --      0.9767                 0.9010                 0.9414
 IR Inten    --      5.0769                14.2511                11.4149

                     34                     35                     36
                      A                      A                      A
 Frequencies --   1090.6760              1093.0621              1114.9556
 Red. masses --      1.4403                 1.6461                 1.7726
 Frc consts  --      1.0095                 1.1587                 1.2983
 IR Inten    --      2.1392                 4.8272                14.4372

                     37                     38                     39
                      A                      A                      A
 Frequencies --   1138.5803              1149.3663              1168.8178
 Red. masses --      1.9126                 1.1767                 2.1045
 Frc consts  --      1.4608                 0.9159                 1.6939
 IR Inten    --      1.5699                 5.1667                40.9725

                     40                     41                     42
                      A                      A                      A
 Frequencies --   1194.9880              1213.4842              1225.8358
 Red. masses --      2.1857                 1.4150                 2.3360
 Frc consts  --      1.8390                 1.2276                 2.0682
 IR Inten    --      2.6296                 1.4684                11.2898

                     43                     44                     45
                      A                      A                      A
 Frequencies --   1255.8243              1266.6334              1297.6709
 Red. masses --      1.4757                 1.8241                 1.6179
 Frc consts  --      1.3712                 1.7242                 1.6052
 IR Inten    --      7.3589                28.6435                 3.3727

                     46                     47                     48
                      A                      A                      A
 Frequencies --   1329.9615              1361.7350              1397.7891
 Red. masses --      1.2695                 1.2937                 1.3716
 Frc consts  --      1.3230                 1.4134                 1.5789
 IR Inten    --     24.8294                 3.4002                 0.4845

                     49                     50                     51
                      A                      A                      A
 Frequencies --   1411.6089              1415.0912              1432.6382
 Red. masses --      1.3857                 1.5939                 1.2421
 Frc consts  --      1.6269                 1.8805                 1.5020
 IR Inten    --      1.6452                 5.7234                 3.7509

                     52                     53                     54
                      A                      A                      A
 Frequencies --   1441.2098              1490.0911              1499.1911
 Red. masses --      1.2351                 1.0927                 1.0948
 Frc consts  --      1.5115                 1.4295                 1.4497
 IR Inten    --     10.7804                 2.7406                 7.1314

                     55                     56                     57
                      A                      A                      A
 Frequencies --   1509.4332              1516.0239              1521.7643
 Red. masses --      1.0616                 1.0716                 1.0507
 Frc consts  --      1.4250                 1.4511                 1.4336
 IR Inten    --      2.0161                 5.7440                 1.7272

                     58                     59                     60
                      A                      A                      A
 Frequencies --   1525.0782              1531.5660              1535.7323
 Red. masses --      1.1677                 1.0810                 1.3324
 Frc consts  --      1.6001                 1.4941                 1.8514
 IR Inten    --     15.3721                 3.0479                13.1297

                     61                     62                     63
                      A                      A                      A
 Frequencies --   1540.9827              3029.6066              3045.7260
 Red. masses --      1.0936                 1.0607                 1.0461
 Frc consts  --      1.5301                 5.7363                 5.7175
 IR Inten    --      7.6610                25.9235                33.0284

                     64                     65                     66
                      A                      A                      A
 Frequencies --   3059.6962              3061.7083              3066.5549
 Red. masses --      1.0553                 1.0625                 1.0743
 Frc consts  --      5.8206                 5.8682                 5.9522
 IR Inten    --     12.0683                39.8779                29.3317

                     67                     68                     69
                      A                      A                      A
 Frequencies --   3074.0527              3104.1334              3119.6494
 Red. masses --      1.0974                 1.1034                 1.0921
 Frc consts  --      6.1102                 6.2642                 6.2621
 IR Inten    --     44.8637                31.5177                34.8775

                     70                     71                     72
                      A                      A                      A
 Frequencies --   3137.8974              3146.7278              3147.5306
 Red. masses --      1.0949                 1.0980                 1.0829
 Frc consts  --      6.3519                 6.4056                 6.3211
 IR Inten    --     22.3092                25.0489                 5.8726

                     73                     74                     75
                      A                      A                      A
 Frequencies --   3150.8411              3155.6622              3164.0815
 Red. masses --      1.0540                 1.0645                 1.1006
 Frc consts  --      6.1654                 6.2455                 6.4919
 IR Inten    --     16.1206                12.2374                25.4432

                     76                     77                     78
                      A                      A                      A
 Frequencies --   3228.2896              3240.2690              3493.7030
 Red. masses --      1.1187                 1.1158                 1.0735
 Frc consts  --      6.8692                 6.9026                 7.7199
 IR Inten    --      1.6541                22.2837                 0.4165

 - Thermochemistry -
 -------------------
 Temperature   298.150 Kelvin.  Pressure   1.00000 Atm.
 Atom     1 has atomic number  6 and mass  12.00000

 Molecular mass:   171.10817 amu.
 Principal axes and moments of inertia in atomic units:
                           1         2         3
     Eigenvalues --  1129.694952467.434152680.18869
           X            0.99999   0.00017  -0.00424
           Y           -0.00044   0.99808  -0.06194
           Z            0.00422   0.06194   0.99807
 This molecule is an asymmetric top.
 Rotational symmetry number  1.
 Warning -- assumption of classical behavior for rotation
           may cause significant error
 Rotational temperatures (Kelvin)      0.07667     0.03510     0.03232
 Rotational constants (GHZ):           1.59755     0.73142     0.67336
 Zero-point vibrational energy     661040.6 (Joules/Mol)
                                  157.99250 (Kcal/Mol)
 Warning -- explicit consideration of  18 degrees of freedom as
           vibrations may cause significant error
 Vibrational temperatures:    104.63   158.08   210.12   260.49   315.48
          (Kelvin)            323.49   372.04   423.81   444.35   458.07
                              502.13   518.56   572.81   638.06   694.11
                              703.25   804.28   858.77   923.69  1115.32
                             1140.39  1187.46  1217.14  1223.69  1258.39
                             1313.50  1374.59  1403.91  1426.28  1442.65
                             1480.44  1534.10  1539.06  1569.24  1572.67
                             1604.17  1638.16  1653.68  1681.67  1719.32
                             1745.93  1763.70  1806.85  1822.40  1867.06
                             1913.52  1959.23  2011.11  2030.99  2036.00
                             2061.25  2073.58  2143.91  2157.00  2171.74
                             2181.22  2189.48  2194.25  2203.58  2209.58
                             2217.13  4358.93  4382.12  4402.22  4405.12
                             4412.09  4422.88  4466.16  4488.48  4514.73
                             4527.44  4528.59  4533.36  4540.29  4552.41
                             4644.79  4662.02  5026.66

 Zero-point correction=                           0.251777 (Hartree/Particle)
 Thermal correction to Energy=                    0.263408
 Thermal correction to Enthalpy=                  0.264352
 Thermal correction to Gibbs Free Energy=         0.215277
 Sum of electronic and zero-point Energies=           -805.903087
 Sum of electronic and thermal Energies=              -805.891456
 Sum of electronic and thermal Enthalpies=            -805.890512
 Sum of electronic and thermal Free Energies=         -805.939587

                     E (Thermal)             CV                S
                      KCal/Mol        Cal/Mol-Kelvin    Cal/Mol-Kelvin
 Total                  165.291             46.341            103.287
 Electronic               0.000              0.000              0.000
 Translational            0.889              2.981             41.319
 Rotational               0.889              2.981             30.392
 Vibrational            163.513             40.380             31.576
 Vibration     1          0.599              1.967              4.078
 Vibration     2          0.606              1.941              3.271
 Vibration     3          0.617              1.907              2.723
 Vibration     4          0.630              1.865              2.318
 Vibration     5          0.647              1.812              1.965
 Vibration     6          0.649              1.803              1.920
 Vibration     7          0.667              1.748              1.671
 Vibration     8          0.689              1.684              1.448
 Vibration     9          0.698              1.657              1.369
 Vibration    10          0.705              1.638              1.318
 Vibration    11          0.726              1.577              1.171
 Vibration    12          0.735              1.554              1.120
 Vibration    13          0.764              1.474              0.970
 Vibration    14          0.803              1.375              0.816
 Vibration    15          0.839              1.289              0.704
 Vibration    16          0.845              1.275              0.687
 Vibration    17          0.915              1.120              0.526
 Vibration    18          0.955              1.038              0.455

                           ! Non-Optimized Parameters !
 Normal termination of Gaussian 16 at Tue Dec  8 20:36:13 2020.

 ----------------------------------------------------------------------
 # B3LYP/6-311++G(d,p) empiricaldispersion=gd3bj scf=xqc pop=npa geom=c
 heck
 ----------------------------------------------------------------------

 --------------------------------------
 CID_80499275_JID_1606_Energie_neutraal
 --------------------------------------
 Structure from the checkpoint file:  "JID_1606.chk"
 Charge =  0 Multiplicity = 1

 SCF Done:  E(RB3LYP) =  -806.296517364     A.U. after   14 cycles
 Normal termination of Gaussian 16 at Tue Dec  8 20:40:37 2020.

 ----------------------------------------------------------------------
 # B3LYP/6-311++G(d,p) empiricaldispersion=gd3bj scf=xqc pop=npa geom=c
 heck
 ----------------------------------------------------------------------

 ------------------------------------
 CID_80499275_JID_1606_Energie_kation
 ------------------------------------
 Structure from the checkpoint file:  "JID_1606.chk"
 Charge =  1 Multiplicity = 2

 SCF Done:  E(UB3LYP) =  -806.007451622     A.U. after   19 cycles
 Normal termination of Gaussian 16 at Tue Dec  8 20:48:02 2020.
 Gaussian 16:  ES64L-G16RevA.03 25-Dec-2016

 ----------------------------------------------------------------------
 # B3LYP/6-311++G(d,p) empiricaldispersion=gd3bj scf=xqc pop=npa geom=c
 heck
 ----------------------------------------------------------------------

 -----------------------------------
 CID_80499275_JID_1606_Energie_anion
 -----------------------------------
 Structure from the checkpoint file:  "JID_1606.chk"
 Charge = -1 Multiplicity = 2

                         Standard orientation:
 ---------------------------------------------------------------------
 Center     Atomic      Atomic             Coordinates (Angstroms)
 Number     Number       Type             X           Y           Z
 ---------------------------------------------------------------------
      1          6           0       -2.754477   -1.110015    0.609927
      2          6           0       -1.892445   -0.722898   -0.595798
      3          6           0       -2.058062    0.744717   -1.011173
      4          6           0       -1.367680    1.739524   -0.070493
      5          7           0        0.085511    1.592312   -0.007146
      6          6           0        0.608822    0.337518    0.493356
      7         16           0       -0.107790   -1.187057   -0.399729
      8          6           0        0.358872    0.206523    2.000430
      9          6           0        2.114549    0.368290    0.250185
     10          6           0        2.969535   -0.846498    0.013526
     11          6           0        2.745013    0.147085   -1.102948
     12          1           0       -2.591914   -2.156130    0.883073
     13          1           0       -3.816867   -0.976327    0.366651
     14          1           0       -2.535895   -0.498768    1.489715
     15          1           0       -2.197844   -1.351498   -1.439565
     16          1           0       -1.653247    0.879565   -2.022446
     17          1           0       -3.131556    0.974881   -1.059482
     18          1           0       -1.771798    1.654812    0.943911
     19          1           0       -1.578806    2.763075   -0.400012
     20          1           0        0.481037    1.754320   -0.931670
     21          1           0        0.806084   -0.719101    2.370085
     22          1           0        0.815080    1.059382    2.516688
     23          1           0       -0.704065    0.187560    2.247973
     24          1           0        2.570411    1.154434    0.849849
     25          1           0        3.942037   -0.879375    0.496314
     26          1           0        2.485018   -1.813824   -0.076588
     27          1           0        2.099729   -0.170478   -1.916278
     28          1           0        3.563890    0.798719   -1.394609
 ---------------------------------------------------------------------

 SCF Done:  E(UB3LYP) =  -806.279821211     A.U. after   28 cycles

 The electronic state is 2-A.
 Alpha  occ. eigenvalues --  -88.72058 -14.20095 -10.13740 -10.10031 -10.08903
 Alpha  occ. eigenvalues --  -10.08262 -10.07475 -10.07164 -10.06371 -10.06167
 Alpha  occ. eigenvalues --  -10.05925  -7.80744  -5.77095  -5.76783  -5.76127
 Alpha  occ. eigenvalues --   -0.82515  -0.76029  -0.70597  -0.67143  -0.60822
 Alpha  occ. eigenvalues --   -0.58914  -0.54500  -0.51519  -0.50300  -0.47022
 Alpha  occ. eigenvalues --   -0.43975  -0.40658  -0.39035  -0.36169  -0.35155
 Alpha  occ. eigenvalues --   -0.34403  -0.32888  -0.30942  -0.30691  -0.29852
 Alpha  occ. eigenvalues --   -0.28768  -0.27080  -0.26832  -0.26595  -0.24490
 Alpha  occ. eigenvalues --   -0.23402  -0.22476  -0.20527  -0.19573  -0.19456
 Alpha  occ. eigenvalues --   -0.12909  -0.11452   0.04660
 Alpha virt. eigenvalues --    0.06423   0.07615   0.07958   0.08893   0.09012
 Alpha virt. eigenvalues --    0.09504   0.10438   0.10571   0.11365   0.11828
 Alpha virt. eigenvalues --    0.12420   0.12883   0.13675   0.14063   0.14238

  Beta  occ. eigenvalues --  -88.72054 -14.20087 -10.13740 -10.10020 -10.08878
  Beta  occ. eigenvalues --  -10.08254 -10.07463 -10.07147 -10.06341 -10.06151
  Beta  occ. eigenvalues --  -10.05890  -7.80739  -5.77092  -5.76779  -5.76123
  Beta  occ. eigenvalues --   -0.82495  -0.76008  -0.70557  -0.67119  -0.60776
  Beta  occ. eigenvalues --   -0.58872  -0.54458  -0.51469  -0.50251  -0.46979
  Beta  occ. eigenvalues --   -0.43935  -0.40625  -0.38981  -0.36116  -0.35118
  Beta  occ. eigenvalues --   -0.34367  -0.32850  -0.30905  -0.30658  -0.29815
  Beta  occ. eigenvalues --   -0.28737  -0.27056  -0.26804  -0.26569  -0.24448
  Beta  occ. eigenvalues --   -0.23364  -0.22448  -0.20501  -0.19550  -0.19437
  Beta  occ. eigenvalues --   -0.12891  -0.11437
  Beta virt. eigenvalues --    0.06854   0.07557   0.08143   0.08585   0.09514
  Beta virt. eigenvalues --    0.09593   0.09908   0.10697   0.10935   0.11864
  Beta virt. eigenvalues --    0.12298   0.12973   0.13178   0.13781   0.14193

 Mulliken charges and spin densities:
               1          2
     1  C    1.218699  -1.831575
     2  C   -1.082335   1.410705
     3  C    0.865985  -1.369998
     4  C    0.490740  -0.792471
     5  N   -0.063488   0.136211
     6  C    0.293745  -0.139843
     7  S   -0.233874  -0.160059
     8  C   -0.223814  -0.466306
     9  C   -0.480417   0.416342
    10  C    0.313791  -0.742916
    11  C    0.395003  -0.758782
    12  H    0.019150   0.118695
    13  H   -0.392808   0.538299
    14  H   -0.167325   0.293225
    15  H   -0.374751   0.641793
    16  H   -0.043676   0.185237
    17  H   -0.600159   0.766057
    18  H    0.079290   0.067113
    19  H   -0.664147   0.857929
    20  H    0.057012   0.197760
    21  H    0.093360   0.072983
    22  H   -0.094481   0.249133
    23  H    0.149552  -0.078717
    24  H   -0.218155   0.454708
    25  H   -0.123725   0.275971
    26  H    0.025708   0.122901
    27  H    0.086140   0.051669
    28  H   -0.325020   0.483938
 Sum of Mulliken charges =  -1.00000   1.00000

 Dipole moment (field-independent basis, Debye):
    X=              3.0520    Y=             -2.4787    Z=              1.8642  Tot=              4.3513
 Quadrupole moment (field-independent basis, Debye-Ang):
   XX=           -151.1459   YY=           -120.3153   ZZ=           -109.5649
   XY=             -0.3266   XZ=             -4.3774   YZ=              1.7902

 Summary of Natural Population Analysis:

                                       Natural Population
                Natural  -----------------------------------------------
    Atom  No    Charge         Core      Valence    Rydberg      Total
 -----------------------------------------------------------------------
      C    1   -0.28810      0.99962     2.28139    0.00709     3.28810
      C    2   -0.16450      0.99956     2.15078    0.01416     3.16450
      C    3   -0.20184      0.99959     2.19193    0.01032     3.20184
      C    4   -0.08994      0.99961     2.07759    0.01275     3.08994
      N    5   -0.33937      0.99969     2.82580    0.01388     3.83937
      C    6    0.02235      0.99952     1.95906    0.01907     2.97765
      S    7    0.05583      4.99959     2.93041    0.01417     7.94417
      C    8   -0.28997      0.99958     2.28363    0.00676     3.28997
      C    9   -0.12568      0.99952     2.11059    0.01557     3.12568
      C   10   -0.19930      0.99961     2.19086    0.00883     3.19930
      C   11   -0.20267      0.99962     2.19397    0.00908     3.20267
      H   12    0.10238      0.00000     0.39659    0.00103     0.39762
      H   13    0.10247      0.00000     0.39574    0.00179     0.39753
      H   14    0.09534      0.00000     0.40346    0.00120     0.40466
      H   15    0.10492      0.00000     0.39376    0.00132     0.39508
      H   16    0.10051      0.00000     0.39771    0.00178     0.39949
      H   17    0.10639      0.00000     0.39058    0.00302     0.39361
      H   18    0.09172      0.00000     0.40671    0.00157     0.40828
      H   19    0.10023      0.00000     0.39816    0.00160     0.39977
      H   20    0.17862      0.00000     0.31800    0.00338     0.32138
      H   21    0.10451      0.00000     0.39455    0.00094     0.39549
      H   22    0.10153      0.00000     0.39703    0.00144     0.39847
      H   23    0.10063      0.00000     0.39836    0.00101     0.39937
      H   24    0.11127      0.00000     0.38718    0.00155     0.38873
      H   25    0.10212      0.00000     0.39696    0.00091     0.39788
      H   26    0.10779      0.00000     0.39123    0.00098     0.39221
      H   27    0.11019      0.00000     0.38860    0.00121     0.38981
      H   28    0.10258      0.00000     0.39625    0.00118     0.39742
 =======================================================================
   * Total *   -0.00000     14.99552    31.84689    0.15759    47.00000

 Normal termination of Gaussian 16 at Tue Dec  8 20:59:02 2020.
