 Gaussian 16, Revision A.03,

 -----------------------------------------------------------
 # opt freq B3LYP/6-31G(d) empiricaldispersion=gd3bj scf=xqc
 -----------------------------------------------------------

 -----------------------------
 CID_13082834_JID_725_neutraal
 -----------------------------
 Symbolic Z-matrix:
 Charge =  0 Multiplicity = 1

 SCF Done:  E(RB3LYP) =  -393.149832127     A.U. after   12 cycles
 SCF Done:  E(RB3LYP) =  -393.150976014     A.U. after   10 cycles
 SCF Done:  E(RB3LYP) =  -393.151112173     A.U. after   10 cycles
 SCF Done:  E(RB3LYP) =  -393.151145618     A.U. after    9 cycles
 SCF Done:  E(RB3LYP) =  -393.151166566     A.U. after    9 cycles
 SCF Done:  E(RB3LYP) =  -393.151180559     A.U. after    9 cycles
 SCF Done:  E(RB3LYP) =  -393.151184682     A.U. after    8 cycles
 SCF Done:  E(RB3LYP) =  -393.151184742     A.U. after    7 cycles
 SCF Done:  E(RB3LYP) =  -393.151184766     A.U. after    6 cycles
 SCF Done:  E(RB3LYP) =  -393.151184781     A.U. after    6 cycles
 SCF Done:  E(RB3LYP) =  -393.151184795     A.U. after    6 cycles
 SCF Done:  E(RB3LYP) =  -393.151184805     A.U. after    6 cycles
 Optimization completed.
    -- Stationary point found.
 Normal termination of Gaussian 16 at Tue Dec  8 12:29:19 2020.

 --------------------------------------------------------------------
 #N Geom=AllCheck Guess=TCheck SCRF=Check GenChk RB3LYP/6-31G(d) Freq
 --------------------------------------------------------------------

 Structure from the checkpoint file:  "JID_725.chk"
 -----------------------------
 CID_13082834_JID_725_neutraal
 -----------------------------
 Charge =  0 Multiplicity = 1

 SCF Done:  E(RB3LYP) =  -393.151184805     A.U. after    1 cycles

  Exact polarizability: 134.041   0.000 101.040  -7.059  -0.000  88.083
 Approx polarizability: 162.689   0.001 137.016 -16.407  -0.001 134.481

                      1                      2                      3
                      A                      A                      A
 Frequencies --     22.2299                28.0331                51.7573
 Red. masses --      2.7905                 3.3828                 2.4979
 Frc consts  --      0.0008                 0.0016                 0.0039
 IR Inten    --      0.0318                 0.0005                 0.0033

                      4                      5                      6
                      A                      A                      A
 Frequencies --     88.7965               117.4497               227.9989
 Red. masses --      2.5185                 3.3644                 1.4117
 Frc consts  --      0.0117                 0.0273                 0.0432
 IR Inten    --      0.0058                 0.0101                 0.0148

                      7                      8                      9
                      A                      A                      A
 Frequencies --    231.5437               234.8950               261.0558
 Red. masses --      1.1047                 1.0544                 1.1204
 Frc consts  --      0.0349                 0.0343                 0.0450
 IR Inten    --      0.1275                 0.0002                 0.0542

                     10                     11                     12
                      A                      A                      A
 Frequencies --    266.6689               295.9450               352.2286
 Red. masses --      2.0898                 1.5503                 2.6937
 Frc consts  --      0.0876                 0.0800                 0.1969
 IR Inten    --      0.0265                 0.0117                 0.0037

                     13                     14                     15
                      A                      A                      A
 Frequencies --    355.0740               380.0176               405.9501
 Red. masses --      2.2183                 2.1460                 1.9235
 Frc consts  --      0.1648                 0.1826                 0.1868
 IR Inten    --      0.0004                 0.0053                 1.1680

                     16                     17                     18
                      A                      A                      A
 Frequencies --    435.6710               440.3279               549.5021
 Red. masses --      2.3582                 1.8366                 3.3226
 Frc consts  --      0.2637                 0.2098                 0.5911
 IR Inten    --      1.0241                 0.0000                 0.3478

                     19                     20                     21
                      A                      A                      A
 Frequencies --    585.9426               742.0050               824.4936
 Red. masses --      2.1686                 1.6488                 2.6342
 Frc consts  --      0.4387                 0.5348                 1.0551
 IR Inten    --     10.3656                17.1517                 0.2619

                     22                     23                     24
                      A                      A                      A
 Frequencies --    852.6462               871.3998               911.4868
 Red. masses --      2.0560                 1.5710                 1.6176
 Frc consts  --      0.8807                 0.7029                 0.7918
 IR Inten    --     14.5371                 0.0000                 8.1975

                     25                     26                     27
                      A                      A                      A
 Frequencies --    939.0612               941.6190               952.2995
 Red. masses --      1.3129                 1.1863                 1.6755
 Frc consts  --      0.6822                 0.6197                 0.8952
 IR Inten    --      1.3917                 0.5810                 0.1423

                     28                     29                     30
                      A                      A                      A
 Frequencies --    971.5792               976.1037               978.3299
 Red. masses --      1.7250                 1.4650                 1.8084
 Frc consts  --      0.9594                 0.8224                 1.0198
 IR Inten    --      0.3002                 0.9405                 0.5129

                     31                     32                     33
                      A                      A                      A
 Frequencies --    991.3109              1016.4199              1052.8321
 Red. masses --      1.9765                 1.2437                 2.0369
 Frc consts  --      1.1443                 0.7570                 1.3303
 IR Inten    --      0.0371                 0.4643                 0.9562

                     34                     35                     36
                      A                      A                      A
 Frequencies --   1116.0724              1150.7136              1152.2571
 Red. masses --      1.3505                 2.1162                 2.1432
 Frc consts  --      0.9911                 1.6509                 1.6766
 IR Inten    --      1.8287                 0.4408                 0.6060

                     37                     38                     39
                      A                      A                      A
 Frequencies --   1185.0997              1205.7398              1205.7654
 Red. masses --      2.0611                 1.7487                 1.7763
 Frc consts  --      1.7055                 1.4979                 1.5216
 IR Inten    --      8.1165                 1.2841                11.2691

                     40                     41                     42
                      A                      A                      A
 Frequencies --   1256.2687              1291.7002              1308.6459
 Red. masses --      1.4014                 1.3051                 1.1832
 Frc consts  --      1.3031                 1.2829                 1.1939
 IR Inten    --      0.5371                 3.5777                 0.5091

                     43                     44                     45
                      A                      A                      A
 Frequencies --   1320.0497              1329.7442              1382.0255
 Red. masses --      1.2569                 1.2495                 1.3957
 Frc consts  --      1.2904                 1.3017                 1.5706
 IR Inten    --      6.9371                 1.4017                 2.0723

                     46                     47                     48
                      A                      A                      A
 Frequencies --   1382.9669              1383.5720              1389.5863
 Red. masses --      1.3965                 1.3633                 1.3891
 Frc consts  --      1.5737                 1.5376                 1.5804
 IR Inten    --      0.5788                 5.3195                 3.6003

                     49                     50                     51
                      A                      A                      A
 Frequencies --   1428.6932              1430.0446              1446.1055
 Red. masses --      1.2750                 1.2900                 1.2504
 Frc consts  --      1.5333                 1.5543                 1.5407
 IR Inten    --      4.0198                10.9217                11.7438

                     52                     53                     54
                      A                      A                      A
 Frequencies --   1447.7247              1450.8020              1507.3131
 Red. masses --      1.2380                 1.4033                 1.1201
 Frc consts  --      1.5288                 1.7403                 1.4993
 IR Inten    --      0.1978                 0.8535                 0.8159

                     55                     56                     57
                      A                      A                      A
 Frequencies --   1518.1319              1520.3317              1521.6621
 Red. masses --      1.0540                 1.0482                 1.0475
 Frc consts  --      1.4313                 1.4275                 1.4290
 IR Inten    --      0.0002                 1.5129                 2.8121

                     58                     59                     60
                      A                      A                      A
 Frequencies --   1524.2378              1534.0766              1534.3221
 Red. masses --      1.0558                 1.0556                 1.0517
 Frc consts  --      1.4453                 1.4637                 1.4587
 IR Inten    --      1.1264                 0.9156                 4.5035

                     61                     62                     63
                      A                      A                      A
 Frequencies --   1536.7151              1541.5854              1543.6278
 Red. masses --      1.0692                 1.0471                 1.0578
 Frc consts  --      1.4876                 1.4662                 1.4851
 IR Inten    --      2.5497                17.6493                 0.2375

                     64                     65                     66
                      A                      A                      A
 Frequencies --   1739.0269              3016.5031              3017.3088
 Red. masses --      6.4577                 1.0752                 1.0787
 Frc consts  --     11.5064                 5.7641                 5.7860
 IR Inten    --      0.5187                 1.7415                 0.7808

                     67                     68                     69
                      A                      A                      A
 Frequencies --   3028.4460              3029.4851              3035.3762
 Red. masses --      1.0696                 1.0683                 1.0363
 Frc consts  --      5.7795                 5.7769                 5.6255
 IR Inten    --     53.4865                 0.4907                 6.4738

                     70                     71                     72
                      A                      A                      A
 Frequencies --   3035.4748              3041.4794              3041.9246
 Red. masses --      1.0365                 1.0399                 1.0405
 Frc consts  --      5.6270                 5.6679                 5.6724
 IR Inten    --     52.9951                88.7751                 0.1705

                     73                     74                     75
                      A                      A                      A
 Frequencies --   3072.5912              3084.8322              3098.3953
 Red. masses --      1.0977                 1.0945                 1.1008
 Frc consts  --      6.1059                 6.1365                 6.2261
 IR Inten    --     23.0125                13.9510                 8.0155

                     76                     77                     78
                      A                      A                      A
 Frequencies --   3098.5017              3104.4558              3104.8560
 Red. masses --      1.1007                 1.1007                 1.1004
 Frc consts  --      6.2260                 6.2502                 6.2503
 IR Inten    --      9.1701                92.0521                28.3671

                     79                     80                     81
                      A                      A                      A
 Frequencies --   3109.2162              3109.2843              3120.5522
 Red. masses --      1.1019                 1.1020                 1.1009
 Frc consts  --      6.2762                 6.2772                 6.3161
 IR Inten    --    105.1087                 1.5920                56.3529

                     82                     83                     84
                      A                      A                      A
 Frequencies --   3121.0533              3142.9226              3166.6042
 Red. masses --      1.1012                 1.0839                 1.0948
 Frc consts  --      6.3202                 6.3084                 6.4682
 IR Inten    --     20.7277                 6.6261                48.4630

 - Thermochemistry -
 -------------------
 Temperature   298.150 Kelvin.  Pressure   1.00000 Atm.
 Atom     1 has atomic number  6 and mass  12.00000

 Molecular mass:   140.15650 amu.
 Principal axes and moments of inertia in atomic units:
                           1         2         3
     Eigenvalues --   737.996173424.417083861.51237
           X            1.00000  -0.00000  -0.00065
           Y            0.00000   1.00000   0.00001
           Z            0.00065  -0.00001   1.00000
 This molecule is an asymmetric top.
 Rotational symmetry number  1.
 Warning -- assumption of classical behavior for rotation
           may cause significant error
 Rotational temperatures (Kelvin)      0.11736     0.02529     0.02243
 Rotational constants (GHZ):           2.44546     0.52702     0.46737
 Zero-point vibrational energy     736998.6 (Joules/Mol)
                                  176.14689 (Kcal/Mol)
 Warning -- explicit consideration of  19 degrees of freedom as
           vibrations may cause significant error
 Vibrational temperatures:     31.98    40.33    74.47   127.76   168.98
          (Kelvin)            328.04   333.14   337.96   375.60   383.68
                              425.80   506.78   510.87   546.76   584.07
                              626.83   633.53   790.61   843.04  1067.58
                             1186.26  1226.77  1253.75  1311.43  1351.10
                             1354.78  1370.15  1397.89  1404.40  1407.60
                             1426.28  1462.40  1514.79  1605.78  1655.62
                             1657.84  1705.09  1734.79  1734.83  1807.49
                             1858.47  1882.85  1899.26  1913.21  1988.43
                             1989.78  1990.65  1999.30  2055.57  2057.52
                             2080.62  2082.95  2087.38  2168.69  2184.25
                             2187.42  2189.33  2193.04  2207.19  2207.55
                             2210.99  2218.00  2220.94  2502.07  4340.08
                             4341.23  4357.26  4358.75  4367.23  4367.37
                             4376.01  4376.65  4420.77  4438.39  4457.90
                             4458.05  4466.62  4467.20  4473.47  4473.57
                             4489.78  4490.50  4521.96  4556.04

 Zero-point correction=                           0.280708 (Hartree/Particle)
 Thermal correction to Energy=                    0.293744
 Thermal correction to Enthalpy=                  0.294688
 Thermal correction to Gibbs Free Energy=         0.239983
 Sum of electronic and zero-point Energies=           -392.870477
 Sum of electronic and thermal Energies=              -392.857441
 Sum of electronic and thermal Enthalpies=            -392.856497
 Sum of electronic and thermal Free Energies=         -392.911202

                     E (Thermal)             CV                S
                      KCal/Mol        Cal/Mol-Kelvin    Cal/Mol-Kelvin
 Total                  184.327             47.708            115.137
 Electronic               0.000              0.000              0.000
 Translational            0.889              2.981             40.724
 Rotational               0.889              2.981             30.657
 Vibrational            182.550             41.746             43.756
 Vibration     1          0.593              1.985              6.424
 Vibration     2          0.593              1.984              5.964
 Vibration     3          0.596              1.977              4.749
 Vibration     4          0.602              1.957              3.686
 Vibration     5          0.608              1.935              3.142
 Vibration     6          0.651              1.798              1.895
 Vibration     7          0.653              1.793              1.867
 Vibration     8          0.655              1.787              1.841
 Vibration     9          0.669              1.744              1.655
 Vibration    10          0.672              1.734              1.618
 Vibration    11          0.690              1.681              1.440
 Vibration    12          0.729              1.571              1.156
 Vibration    13          0.731              1.565              1.144
 Vibration    14          0.750              1.513              1.039
 Vibration    15          0.771              1.457              0.941
 Vibration    16          0.796              1.392              0.840
 Vibration    17          0.800              1.382              0.826
 Vibration    18          0.905              1.141              0.545
 Vibration    19          0.943              1.062              0.474

 Optimization completed.
    -- Stationary point found.
 Normal termination of Gaussian 16 at Tue Dec  8 12:43:03 2020.

 ----------------------------------------------------------------------
 # B3LYP/6-311++G(d,p) empiricaldispersion=gd3bj scf=xqc pop=npa geom=c
 heck
 ----------------------------------------------------------------------

 -------------------------------------
 CID_13082834_JID_725_Energie_neutraal
 -------------------------------------
 Structure from the checkpoint file:  "JID_725.chk"
 Charge =  0 Multiplicity = 1

 SCF Done:  E(RB3LYP) =  -393.262678638     A.U. after   12 cycles
 Normal termination of Gaussian 16 at Tue Dec  8 12:50:23 2020.

 ----------------------------------------------------------------------
 # B3LYP/6-311++G(d,p) empiricaldispersion=gd3bj scf=xqc pop=npa geom=c
 heck
 ----------------------------------------------------------------------

 -----------------------------------
 CID_13082834_JID_725_Energie_kation
 -----------------------------------
 Structure from the checkpoint file:  "JID_725.chk"
 Charge =  1 Multiplicity = 2

 SCF Done:  E(UB3LYP) =  -392.944507716     A.U. after   17 cycles
 Normal termination of Gaussian 16 at Tue Dec  8 13:04:56 2020.
 Gaussian 16:  ES64L-G16RevA.03 25-Dec-2016

 ----------------------------------------------------------------------
 # B3LYP/6-311++G(d,p) empiricaldispersion=gd3bj scf=xqc pop=npa geom=c
 heck
 ----------------------------------------------------------------------

 ----------------------------------
 CID_13082834_JID_725_Energie_anion
 ----------------------------------
 Structure from the checkpoint file:  "JID_725.chk"
 Charge = -1 Multiplicity = 2

                         Standard orientation:
 ---------------------------------------------------------------------
 Center     Atomic      Atomic             Coordinates (Angstroms)
 Number     Number       Type             X           Y           Z
 ---------------------------------------------------------------------
      1          6           0        3.506428   -0.810849    0.411296
      2          6           0        2.492342    0.324148    0.229726
      3          6           0        3.184682    1.609567   -0.236035
      4          6           0        1.361521   -0.064081   -0.751704
      5          6           0        0.580900   -1.282195   -0.331738
      6          6           0       -0.580984   -1.282266    0.332155
      7          6           0       -1.361773   -0.064239    0.752089
      8          6           0       -2.492196    0.324196   -0.229720
      9          6           0       -3.506146   -0.810811   -0.411987
     10          6           0       -3.184788    1.609473    0.236059
     11          1           0        3.976970   -1.068623   -0.546869
     12          1           0        3.031459   -1.714200    0.807520
     13          1           0        4.303305   -0.518134    1.104657
     14          1           0        2.021873    0.517587    1.204716
     15          1           0        3.666260    1.460762   -1.211238
     16          1           0        2.469317    2.434049   -0.339996
     17          1           0        3.959829    1.922453    0.473166
     18          1           0        0.692157    0.795777   -0.870314
     19          1           0        1.808850   -0.243601   -1.740344
     20          1           0        1.029671   -2.244556   -0.575564
     21          1           0       -1.029631   -2.244682    0.575990
     22          1           0       -1.809500   -0.243984    1.740503
     23          1           0       -0.692460    0.795596    0.871161
     24          1           0       -2.021324    0.517884   -1.204465
     25          1           0       -3.977095   -1.068819    0.545914
     26          1           0       -4.302732   -0.517987   -1.105636
     27          1           0       -3.030944   -1.714047   -0.808196
     28          1           0       -2.469502    2.433957    0.340532
     29          1           0       -3.959641    1.922501   -0.473401
     30          1           0       -3.666782    1.460409    1.211017
 ---------------------------------------------------------------------

 SCF Done:  E(UB3LYP) =  -393.245275385     A.U. after   28 cycles

 The electronic state is 2-A.
 Alpha  occ. eigenvalues --  -10.07167 -10.07167 -10.06317 -10.06270 -10.06262
 Alpha  occ. eigenvalues --  -10.06227 -10.05427 -10.05427 -10.05286 -10.05286
 Alpha  occ. eigenvalues --   -0.72234  -0.70439  -0.66386  -0.59927  -0.58183
 Alpha  occ. eigenvalues --   -0.58141  -0.55188  -0.47350  -0.45738  -0.42023
 Alpha  occ. eigenvalues --   -0.39168  -0.35517  -0.34342  -0.33664  -0.33623
 Alpha  occ. eigenvalues --   -0.32740  -0.30213  -0.28463  -0.28253  -0.28162
 Alpha  occ. eigenvalues --   -0.27120  -0.26187  -0.25205  -0.23690  -0.23312
 Alpha  occ. eigenvalues --   -0.23050  -0.22428  -0.22077  -0.20853  -0.14288
 Alpha  occ. eigenvalues --    0.04706
 Alpha virt. eigenvalues --    0.06595   0.07309   0.08074   0.08795   0.08858
 Alpha virt. eigenvalues --    0.09334   0.10059   0.10631   0.10849   0.11205
 Alpha virt. eigenvalues --    0.11353   0.11741   0.12377   0.12430   0.14136

  Beta  occ. eigenvalues --  -10.07158 -10.07158 -10.06303 -10.06255 -10.06246
  Beta  occ. eigenvalues --  -10.06213 -10.05396 -10.05395 -10.05250 -10.05250
  Beta  occ. eigenvalues --   -0.72202  -0.70410  -0.66345  -0.59880  -0.58116
  Beta  occ. eigenvalues --   -0.58073  -0.55134  -0.47279  -0.45667  -0.41977
  Beta  occ. eigenvalues --   -0.39129  -0.35468  -0.34298  -0.33624  -0.33584
  Beta  occ. eigenvalues --   -0.32689  -0.30165  -0.28424  -0.28219  -0.28127
  Beta  occ. eigenvalues --   -0.27082  -0.26159  -0.25167  -0.23656  -0.23269
  Beta  occ. eigenvalues --   -0.23013  -0.22379  -0.22029  -0.20819  -0.14238
  Beta virt. eigenvalues --    0.06792   0.07447   0.07931   0.08545   0.09268
  Beta virt. eigenvalues --    0.09447   0.09807   0.10261   0.10912   0.11148
  Beta virt. eigenvalues --    0.11619   0.11775   0.12224   0.12616   0.12662

 Mulliken charges and spin densities:
               1          2
     1  C    0.649570  -1.373432
     2  C   -1.671898   2.111425
     3  C    1.051357  -1.674357
     4  C    1.093677  -1.644197
     5  C   -0.540445   0.553193
     6  C   -0.541707   0.554365
     7  C    1.093398  -1.643789
     8  C   -1.671458   2.110986
     9  C    0.649177  -1.373078
    10  C    1.051426  -1.674395
    11  H   -0.176229   0.312391
    12  H    0.000420   0.147749
    13  H   -0.208657   0.340126
    14  H    0.012691   0.136441
    15  H   -0.113450   0.243052
    16  H   -0.358249   0.493116
    17  H   -0.245007   0.382675
    18  H    0.133581   0.021892
    19  H   -0.068193   0.216122
    20  H   -0.058313   0.232912
    21  H   -0.058480   0.233078
    22  H   -0.068090   0.216020
    23  H    0.133192   0.022318
    24  H    0.012688   0.136431
    25  H   -0.176180   0.312327
    26  H   -0.208621   0.340094
    27  H    0.000481   0.147719
    28  H   -0.358284   0.493157
    29  H   -0.244950   0.382613
    30  H   -0.113448   0.243047
 Sum of Mulliken charges =  -1.00000   1.00000

 Dipole moment (field-independent basis, Debye):
    X=             -0.0005    Y=             -2.6654    Z=              0.0001  Tot=              2.6654
 Quadrupole moment (field-independent basis, Debye-Ang):
   XX=           -151.3601   YY=           -110.1503   ZZ=            -96.5431
   XY=              0.0001   XZ=             -1.8582   YZ=             -0.0012

 Summary of Natural Population Analysis:

                                       Natural Population
                Natural  -----------------------------------------------
    Atom  No    Charge         Core      Valence    Rydberg      Total
 -----------------------------------------------------------------------
      C    1   -0.28448      0.99965     2.27980    0.00503     3.28448
      C    2   -0.11223      0.99961     2.10118    0.01143     3.11223
      C    3   -0.28159      0.99965     2.27680    0.00514     3.28159
      C    4   -0.20891      0.99959     2.19943    0.00988     3.20891
      C    5   -0.08849      0.99952     2.07863    0.01034     3.08849
      C    6   -0.08850      0.99952     2.07864    0.01034     3.08850
      C    7   -0.20891      0.99959     2.19944    0.00988     3.20891
      C    8   -0.11223      0.99961     2.10119    0.01143     3.11223
      C    9   -0.28448      0.99965     2.27980    0.00503     3.28448
      C   10   -0.28159      0.99965     2.27680    0.00514     3.28159
      H   11    0.09484      0.00000     0.40391    0.00125     0.40516
      H   12    0.10064      0.00000     0.39817    0.00119     0.39936
      H   13    0.09879      0.00000     0.40008    0.00113     0.40121
      H   14    0.09218      0.00000     0.40575    0.00207     0.40782
      H   15    0.09509      0.00000     0.40352    0.00138     0.40491
      H   16    0.10082      0.00000     0.39763    0.00155     0.39918
      H   17    0.09858      0.00000     0.40016    0.00126     0.40142
      H   18    0.10247      0.00000     0.39587    0.00166     0.39753
      H   19    0.09915      0.00000     0.39955    0.00131     0.40085
      H   20    0.09313      0.00000     0.40583    0.00103     0.40687
      H   21    0.09313      0.00000     0.40583    0.00103     0.40687
      H   22    0.09915      0.00000     0.39955    0.00130     0.40085
      H   23    0.10247      0.00000     0.39587    0.00166     0.39753
      H   24    0.09218      0.00000     0.40575    0.00207     0.40782
      H   25    0.09484      0.00000     0.40391    0.00125     0.40516
      H   26    0.09879      0.00000     0.40008    0.00113     0.40121
      H   27    0.10064      0.00000     0.39817    0.00119     0.39936
      H   28    0.10082      0.00000     0.39763    0.00155     0.39918
      H   29    0.09858      0.00000     0.40016    0.00126     0.40142
      H   30    0.09509      0.00000     0.40352    0.00138     0.40491
 =======================================================================
   * Total *   -0.00000      9.99604    29.89268    0.11129    40.00000

 Normal termination of Gaussian 16 at Tue Dec  8 13:17:15 2020.
