 Gaussian 16, Revision A.03,

 -----------------------------------------------------------
 # opt freq B3LYP/6-31G(d) empiricaldispersion=gd3bj scf=xqc
 -----------------------------------------------------------

 ------------------------------
 CID_83238718_JID_4073_neutraal
 ------------------------------
 Symbolic Z-matrix:
 Charge =  0 Multiplicity = 1

 SCF Done:  E(RB3LYP) =  -653.102754674     A.U. after   14 cycles
 SCF Done:  E(RB3LYP) =  -653.107135889     A.U. after   12 cycles
 SCF Done:  E(RB3LYP) =  -653.107523245     A.U. after   12 cycles
 SCF Done:  E(RB3LYP) =  -653.108120925     A.U. after   11 cycles
 SCF Done:  E(RB3LYP) =  -653.108410775     A.U. after   11 cycles
 SCF Done:  E(RB3LYP) =  -653.108545322     A.U. after   12 cycles
 SCF Done:  E(RB3LYP) =  -653.108725106     A.U. after   11 cycles
 SCF Done:  E(RB3LYP) =  -653.108814097     A.U. after   11 cycles
 SCF Done:  E(RB3LYP) =  -653.108843577     A.U. after   10 cycles
 SCF Done:  E(RB3LYP) =  -653.108859266     A.U. after    9 cycles
 SCF Done:  E(RB3LYP) =  -653.108884544     A.U. after    9 cycles
 SCF Done:  E(RB3LYP) =  -653.108886021     A.U. after    8 cycles
 SCF Done:  E(RB3LYP) =  -653.108886554     A.U. after    8 cycles
 SCF Done:  E(RB3LYP) =  -653.108886734     A.U. after    7 cycles
 SCF Done:  E(RB3LYP) =  -653.108886823     A.U. after    7 cycles
 SCF Done:  E(RB3LYP) =  -653.108886810     A.U. after    6 cycles
 Optimization completed.
    -- Stationary point found.
 Normal termination of Gaussian 16 at Thu Dec 10 09:22:48 2020.

 --------------------------------------------------------------------
 #N Geom=AllCheck Guess=TCheck SCRF=Check GenChk RB3LYP/6-31G(d) Freq
 --------------------------------------------------------------------

 Structure from the checkpoint file:  "JID_4073.chk"
 ------------------------------
 CID_83238718_JID_4073_neutraal
 ------------------------------
 Charge =  0 Multiplicity = 1

 SCF Done:  E(RB3LYP) =  -653.108886810     A.U. after    1 cycles

  Exact polarizability: 139.799  -3.668 113.286   4.642   2.822 112.091
 Approx polarizability: 174.614  -0.972 157.397  11.321  12.136 172.378

                      1                      2                      3
                      A                      A                      A
 Frequencies --     29.2801                35.6451                56.4534
 Red. masses --      3.0026                 2.8971                 4.8038
 Frc consts  --      0.0015                 0.0022                 0.0090
 IR Inten    --      0.4894                 0.2078                 5.1054

                      4                      5                      6
                      A                      A                      A
 Frequencies --     78.0207                92.0889               121.3379
 Red. masses --      4.0533                 2.0794                 1.9261
 Frc consts  --      0.0145                 0.0104                 0.0167
 IR Inten    --      0.9941                 4.9599                 1.1722

                      7                      8                      9
                      A                      A                      A
 Frequencies --    127.2684               165.4729               177.8421
 Red. masses --      2.3415                 2.9997                 2.2758
 Frc consts  --      0.0223                 0.0484                 0.0424
 IR Inten    --      0.5789                 0.8619                 0.8150

                     10                     11                     12
                      A                      A                      A
 Frequencies --    203.6566               216.8286               225.6273
 Red. masses --      1.6325                 1.8805                 1.1333
 Frc consts  --      0.0399                 0.0521                 0.0340
 IR Inten    --      1.9120                 5.9500                 0.7398

                     13                     14                     15
                      A                      A                      A
 Frequencies --    239.2769               257.8874               317.5425
 Red. masses --      2.3440                 2.2652                 2.1774
 Frc consts  --      0.0791                 0.0888                 0.1294
 IR Inten    --      0.7431                 9.8741                 1.9426

                     16                     17                     18
                      A                      A                      A
 Frequencies --    323.9485               372.3639               431.2468
 Red. masses --      3.9785                 3.3911                 2.6141
 Frc consts  --      0.2460                 0.2770                 0.2864
 IR Inten    --      3.1458                 1.0564                 3.0763

                     19                     20                     21
                      A                      A                      A
 Frequencies --    437.9065               445.2959               507.4196
 Red. masses --      3.2525                 2.3472                 3.5788
 Frc consts  --      0.3675                 0.2742                 0.5429
 IR Inten    --      5.1633                 1.1388                 8.7948

                     22                     23                     24
                      A                      A                      A
 Frequencies --    530.6476               580.2363               619.8735
 Red. masses --      3.2778                 2.9415                 3.1451
 Frc consts  --      0.5438                 0.5835                 0.7120
 IR Inten    --     20.1905                 3.8303                23.3905

                     25                     26                     27
                      A                      A                      A
 Frequencies --    730.7962               743.5062               771.9580
 Red. masses --      3.5150                 3.2675                 1.2710
 Frc consts  --      1.1060                 1.0642                 0.4462
 IR Inten    --     18.3055                23.8846                32.4057

                     28                     29                     30
                      A                      A                      A
 Frequencies --    865.0829               887.2794               897.9281
 Red. masses --      1.8269                 2.1452                 2.0139
 Frc consts  --      0.8055                 0.9951                 0.9567
 IR Inten    --     12.7254                17.4447                 3.0065

                     31                     32                     33
                      A                      A                      A
 Frequencies --    928.8973               938.9197               959.2445
 Red. masses --      2.4805                 1.8539                 1.9889
 Frc consts  --      1.2610                 0.9629                 1.0783
 IR Inten    --     12.3988                 8.1003                 4.5504

                     34                     35                     36
                      A                      A                      A
 Frequencies --    970.2097              1013.7213              1038.6226
 Red. masses --      2.3333                 1.8263                 2.2431
 Frc consts  --      1.2941                 1.1057                 1.4257
 IR Inten    --     19.2980                 2.0083                 8.7804

                     37                     38                     39
                      A                      A                      A
 Frequencies --   1081.2958              1091.3048              1102.3989
 Red. masses --      2.4550                 1.7665                 2.9119
 Frc consts  --      1.6912                 1.2395                 2.0850
 IR Inten    --      6.1121                 5.0341                 7.3117

                     40                     41                     42
                      A                      A                      A
 Frequencies --   1129.2598              1143.1276              1152.7051
 Red. masses --      2.0100                 1.7249                 2.0861
 Frc consts  --      1.5102                 1.3280                 1.6331
 IR Inten    --     49.4909                12.2384                16.8086

                     43                     44                     45
                      A                      A                      A
 Frequencies --   1159.6899              1178.8860              1183.1193
 Red. masses --      2.2786                 2.0308                 2.9569
 Frc consts  --      1.8055                 1.6629                 2.4386
 IR Inten    --     13.1559                 0.4755                29.0830

                     46                     47                     48
                      A                      A                      A
 Frequencies --   1196.3048              1218.4789              1231.5463
 Red. masses --      1.2581                 1.2884                 1.6175
 Frc consts  --      1.0608                 1.1270                 1.4454
 IR Inten    --      1.7610                28.8987                35.4793

                     49                     50                     51
                      A                      A                      A
 Frequencies --   1249.6060              1267.3016              1284.0696
 Red. masses --      1.5166                 2.0847                 1.4309
 Frc consts  --      1.3953                 1.9726                 1.3901
 IR Inten    --      0.8417                 7.3021                12.8897

                     52                     53                     54
                      A                      A                      A
 Frequencies --   1308.9838              1322.6337              1340.3107
 Red. masses --      1.3035                 1.3667                 1.2538
 Frc consts  --      1.3159                 1.4086                 1.3271
 IR Inten    --      2.8764                 5.4134                13.5779

                     55                     56                     57
                      A                      A                      A
 Frequencies --   1361.3493              1383.1535              1399.6250
 Red. masses --      1.2479                 1.8212                 1.4597
 Frc consts  --      1.3627                 2.0528                 1.6847
 IR Inten    --     56.1539                60.6839                56.5838

                     58                     59                     60
                      A                      A                      A
 Frequencies --   1413.8540              1419.3809              1421.7985
 Red. masses --      1.5642                 1.3754                 1.3687
 Frc consts  --      1.8423                 1.6326                 1.6302
 IR Inten    --     32.9371                 9.0303                18.5422

                     61                     62                     63
                      A                      A                      A
 Frequencies --   1435.0774              1442.6611              1458.8192
 Red. masses --      1.2650                 1.2586                 1.4337
 Frc consts  --      1.5350                 1.5433                 1.7977
 IR Inten    --     37.6371                 3.2423                28.4976

                     64                     65                     66
                      A                      A                      A
 Frequencies --   1499.5089              1504.9049              1514.0145
 Red. masses --      1.1018                 1.7758                 1.1092
 Frc consts  --      1.4597                 2.3695                 1.4981
 IR Inten    --      1.7970                64.4417                 4.9967

                     67                     68                     69
                      A                      A                      A
 Frequencies --   1518.1477              1522.2076              1523.8452
 Red. masses --      1.0923                 1.0724                 1.0573
 Frc consts  --      1.4833                 1.4641                 1.4466
 IR Inten    --      9.9607                11.5272                 1.9707

                     70                     71                     72
                      A                      A                      A
 Frequencies --   1533.0999              1535.2765              1537.9558
 Red. masses --      1.0563                 1.1005                 1.0636
 Frc consts  --      1.4628                 1.5283                 1.4823
 IR Inten    --      8.8959                 0.0745                 8.1025

                     73                     74                     75
                      A                      A                      A
 Frequencies --   1544.0918              1550.1530              1578.7703
 Red. masses --      1.0572                 1.0615                 1.0899
 Frc consts  --      1.4851                 1.5028                 1.6006
 IR Inten    --      3.7743                 5.1172                 2.8792

                     76                     77                     78
                      A                      A                      A
 Frequencies --   1791.4402              2927.9036              2955.9178
 Red. masses --     10.4908                 1.0747                 1.0800
 Frc consts  --     19.8364                 5.4283                 5.5596
 IR Inten    --    245.5344               122.1141                48.5406

                     79                     80                     81
                      A                      A                      A
 Frequencies --   3015.3968              3027.9840              3040.2427
 Red. masses --      1.0378                 1.0663                 1.0562
 Frc consts  --      5.5600                 5.7604                 5.7521
 IR Inten    --     45.6550                28.8775                35.1106

                     82                     83                     84
                      A                      A                      A
 Frequencies --   3040.9461              3047.8150              3061.0553
 Red. masses --      1.0381                 1.0705                 1.0815
 Frc consts  --      5.6560                 5.8590                 5.9708
 IR Inten    --     30.8615                35.1668                10.3716

                     85                     86                     87
                      A                      A                      A
 Frequencies --   3064.0868              3069.8030              3082.8220
 Red. masses --      1.0442                 1.0877                 1.0995
 Frc consts  --      5.7761                 6.0393                 6.1568
 IR Inten    --     28.8538                30.4954                40.6188

                     88                     89                     90
                      A                      A                      A
 Frequencies --   3084.9638              3094.0400              3096.8441
 Red. masses --      1.0965                 1.1065                 1.0973
 Frc consts  --      6.1484                 6.2412                 6.2002
 IR Inten    --     19.8232                40.6944                22.2920

                     91                     92                     93
                      A                      A                      A
 Frequencies --   3113.4140              3124.7798              3126.8220
 Red. masses --      1.1010                 1.0972                 1.1020
 Frc consts  --      6.2879                 6.3124                 6.3479
 IR Inten    --     50.4293                27.9116                20.9346

                     94                     95                     96
                      A                      A                      A
 Frequencies --   3127.1078              3166.1308              3535.1798
 Red. masses --      1.1025                 1.1005                 1.0754
 Frc consts  --      6.3523                 6.4999                 7.9185
 IR Inten    --     50.1189                 7.5885                 1.0225

 - Thermochemistry -
 -------------------
 Temperature   298.150 Kelvin.  Pressure   1.00000 Atm.
 Atom     1 has atomic number  6 and mass  12.00000

 Molecular mass:   200.15248 amu.
 Principal axes and moments of inertia in atomic units:
                           1         2         3
     Eigenvalues --  1677.210644254.839824559.61173
           X            0.99996  -0.00908   0.00255
           Y            0.00919   0.99881  -0.04790
           Z           -0.00212   0.04792   0.99885
 This molecule is an asymmetric top.
 Rotational symmetry number  1.
 Warning -- assumption of classical behavior for rotation
           may cause significant error
 Rotational temperatures (Kelvin)      0.05164     0.02036     0.01900
 Rotational constants (GHZ):           1.07604     0.42416     0.39581
 Zero-point vibrational energy     799540.6 (Joules/Mol)
                                  191.09478 (Kcal/Mol)
 Warning -- explicit consideration of  24 degrees of freedom as
           vibrations may cause significant error
 Vibrational temperatures:     42.13    51.29    81.22   112.25   132.50
          (Kelvin)            174.58   183.11   238.08   255.88   293.02
                              311.97   324.63   344.27   371.04   456.87
                              466.09   535.75   620.47   630.05   640.68
                              730.06   763.48   834.83   891.86  1051.45
                             1069.74  1110.68  1244.66  1276.60  1291.92
                             1336.48  1350.90  1380.14  1395.92  1458.52
                             1494.35  1555.74  1570.14  1586.11  1624.75
                             1644.71  1658.49  1668.54  1696.15  1702.24
                             1721.22  1753.12  1771.92  1797.90  1823.36
                             1847.49  1883.34  1902.97  1928.41  1958.68
                             1990.05  2013.75  2034.22  2042.17  2045.65
                             2064.76  2075.67  2098.92  2157.46  2165.22
                             2178.33  2184.28  2190.12  2192.47  2205.79
                             2208.92  2212.78  2221.60  2230.32  2271.50
                             2577.48  4212.60  4252.91  4338.48  4356.59
                             4374.23  4375.24  4385.13  4404.18  4408.54
                             4416.76  4435.49  4438.57  4451.63  4455.67
                             4479.51  4495.86  4498.80  4499.21  4555.36
                             5086.34

 Zero-point correction=                           0.304529 (Hartree/Particle)
 Thermal correction to Energy=                    0.320458
 Thermal correction to Enthalpy=                  0.321403
 Thermal correction to Gibbs Free Energy=         0.260241
 Sum of electronic and zero-point Energies=           -652.804358
 Sum of electronic and thermal Energies=              -652.788428
 Sum of electronic and thermal Enthalpies=            -652.787484
 Sum of electronic and thermal Free Energies=         -652.848646

                     E (Thermal)             CV                S
                      KCal/Mol        Cal/Mol-Kelvin    Cal/Mol-Kelvin
 Total                  201.091             57.594            128.726
 Electronic               0.000              0.000              0.000
 Translational            0.889              2.981             41.786
 Rotational               0.889              2.981             31.854
 Vibrational            199.313             51.632             55.085
 Vibration     1          0.593              1.984              5.878
 Vibration     2          0.594              1.982              5.488
 Vibration     3          0.596              1.975              4.577
 Vibration     4          0.599              1.964              3.940
 Vibration     5          0.602              1.955              3.615
 Vibration     6          0.609              1.931              3.079
 Vibration     7          0.611              1.926              2.987
 Vibration     8          0.624              1.885              2.486
 Vibration     9          0.628              1.870              2.351
 Vibration    10          0.639              1.835              2.100
 Vibration    11          0.646              1.815              1.985
 Vibration    12          0.650              1.802              1.913
 Vibration    13          0.657              1.780              1.808
 Vibration    14          0.667              1.749              1.676
 Vibration    15          0.704              1.640              1.323
 Vibration    16          0.709              1.628              1.290
 Vibration    17          0.744              1.529              1.070
 Vibration    18          0.792              1.402              0.855
 Vibration    19          0.798              1.388              0.833
 Vibration    20          0.805              1.371              0.810
 Vibration    21          0.863              1.234              0.640
 Vibration    22          0.886              1.182              0.586
 Vibration    23          0.937              1.074              0.485
 Vibration    24          0.980              0.990              0.417

                           ! Non-Optimized Parameters !
 Normal termination of Gaussian 16 at Thu Dec 10 09:33:17 2020.

 ----------------------------------------------------------------------
 # B3LYP/6-311++G(d,p) empiricaldispersion=gd3bj scf=xqc pop=npa geom=c
 heck
 ----------------------------------------------------------------------

 --------------------------------------
 CID_83238718_JID_4073_Energie_neutraal
 --------------------------------------
 Structure from the checkpoint file:  "JID_4073.chk"
 Charge =  0 Multiplicity = 1

 SCF Done:  E(RB3LYP) =  -653.299578282     A.U. after   14 cycles
 Normal termination of Gaussian 16 at Thu Dec 10 09:38:00 2020.

 ----------------------------------------------------------------------
 # B3LYP/6-311++G(d,p) empiricaldispersion=gd3bj scf=xqc pop=npa geom=c
 heck
 ----------------------------------------------------------------------

 ------------------------------------
 CID_83238718_JID_4073_Energie_kation
 ------------------------------------
 Structure from the checkpoint file:  "JID_4073.chk"
 Charge =  1 Multiplicity = 2

 SCF Done:  E(UB3LYP) =  -652.999996365     A.U. after   24 cycles
 Normal termination of Gaussian 16 at Thu Dec 10 09:48:13 2020.
 Gaussian 16:  ES64L-G16RevA.03 25-Dec-2016

 ----------------------------------------------------------------------
 # B3LYP/6-311++G(d,p) empiricaldispersion=gd3bj scf=xqc pop=npa geom=c
 heck
 ----------------------------------------------------------------------

 -----------------------------------
 CID_83238718_JID_4073_Energie_anion
 -----------------------------------
 Structure from the checkpoint file:  "JID_4073.chk"
 Charge = -1 Multiplicity = 2

                         Standard orientation:
 ---------------------------------------------------------------------
 Center     Atomic      Atomic             Coordinates (Angstroms)
 Number     Number       Type             X           Y           Z
 ---------------------------------------------------------------------
      1          6           0       -4.351654   -0.682096   -0.228608
      2          6           0       -3.315989    0.093496   -1.049485
      3          6           0       -2.372443    0.963658   -0.206169
      4          6           0       -1.424817    0.184626    0.710015
      5          6           0       -0.306693   -0.552423   -0.034746
      6          8           0       -0.401514   -1.151669   -1.100012
      7          7           0        0.823355   -0.413223    0.714281
      8          6           0        0.618651    0.426446    1.880820
      9          7           0       -0.657155    1.080603    1.588960
     10          6           0        2.150146   -0.901266    0.328710
     11          6           0        2.154568   -2.412659    0.081870
     12          6           0        2.685338   -0.114514   -0.875236
     13          8           0        2.859980    1.261508   -0.579625
     14          6           0        1.805502    2.116607   -0.995778
     15          1           0       -3.882268   -1.425027    0.426264
     16          1           0       -5.044987   -1.221373   -0.883461
     17          1           0       -4.945444   -0.008936    0.403228
     18          1           0       -2.716109   -0.599629   -1.646492
     19          1           0       -3.841390    0.750296   -1.754809
     20          1           0       -1.761615    1.598190   -0.858846
     21          1           0       -2.962918    1.644166    0.424083
     22          1           0       -1.993551   -0.576535    1.274677
     23          1           0        1.429042    1.160052    1.967058
     24          1           0        0.607801   -0.187741    2.801944
     25          1           0       -1.164389    1.309438    2.438653
     26          1           0        2.805825   -0.675409    1.177077
     27          1           0        1.505731   -2.666114   -0.758665
     28          1           0        3.172214   -2.755714   -0.133949
     29          1           0        1.794343   -2.943557    0.968825
     30          1           0        3.673563   -0.511993   -1.138551
     31          1           0        2.015977   -0.257174   -1.733121
     32          1           0        1.500693    1.899788   -2.030063
     33          1           0        0.923741    2.048480   -0.346344
     34          1           0        2.196954    3.137170   -0.951462
 ---------------------------------------------------------------------

 SCF Done:  E(UB3LYP) =  -653.287082819     A.U. after   28 cycles

 The electronic state is 2-A.
 Alpha  occ. eigenvalues --  -19.03379 -18.98937 -14.24200 -14.20364 -10.16755
 Alpha  occ. eigenvalues --  -10.12981 -10.12386 -10.11982 -10.11814 -10.10419
 Alpha  occ. eigenvalues --  -10.06695 -10.06431 -10.06364 -10.05963  -0.94726
 Alpha  occ. eigenvalues --   -0.93969  -0.87152  -0.78929  -0.69571  -0.68583
 Alpha  occ. eigenvalues --   -0.63666  -0.62113  -0.58208  -0.56071  -0.53737
 Alpha  occ. eigenvalues --   -0.52297  -0.47913  -0.43434  -0.42168  -0.40612
 Alpha  occ. eigenvalues --   -0.39821  -0.37661  -0.36897  -0.35442  -0.35300
 Alpha  occ. eigenvalues --   -0.34899  -0.33861  -0.32364  -0.31765  -0.30848
 Alpha  occ. eigenvalues --   -0.30330  -0.29181  -0.29036  -0.27850  -0.27381
 Alpha  occ. eigenvalues --   -0.26989  -0.25789  -0.23914  -0.23618  -0.23216
 Alpha  occ. eigenvalues --   -0.22749  -0.17988  -0.15292  -0.15182  -0.12779
 Alpha  occ. eigenvalues --    0.04496
 Alpha virt. eigenvalues --    0.06515   0.07190   0.07559   0.08702   0.08981
 Alpha virt. eigenvalues --    0.09095   0.09678   0.10217   0.11228   0.11439
 Alpha virt. eigenvalues --    0.11543   0.12036   0.12329   0.12633   0.13040

  Beta  occ. eigenvalues --  -19.03375 -18.98934 -14.24196 -14.20326 -10.16745
  Beta  occ. eigenvalues --  -10.12942 -10.12380 -10.11974 -10.11808 -10.10403
  Beta  occ. eigenvalues --  -10.06685 -10.06404 -10.06361 -10.05937  -0.94715
  Beta  occ. eigenvalues --   -0.93959  -0.87126  -0.78886  -0.69548  -0.68551
  Beta  occ. eigenvalues --   -0.63618  -0.62090  -0.58161  -0.56025  -0.53688
  Beta  occ. eigenvalues --   -0.52255  -0.47873  -0.43393  -0.42091  -0.40585
  Beta  occ. eigenvalues --   -0.39800  -0.37640  -0.36867  -0.35395  -0.35244
  Beta  occ. eigenvalues --   -0.34872  -0.33830  -0.32342  -0.31726  -0.30804
  Beta  occ. eigenvalues --   -0.30293  -0.29148  -0.29002  -0.27825  -0.27351
  Beta  occ. eigenvalues --   -0.26960  -0.25762  -0.23895  -0.23593  -0.23195
  Beta  occ. eigenvalues --   -0.22731  -0.17971  -0.15262  -0.15160  -0.12721
  Beta virt. eigenvalues --    0.06757   0.07148   0.07681   0.08266   0.09128
  Beta virt. eigenvalues --    0.09352   0.09496   0.10027   0.10707   0.11479
  Beta virt. eigenvalues --    0.11543   0.11821   0.12228   0.12669   0.12958

 Mulliken charges and spin densities:
               1          2
     1  C    0.445283  -1.042267
     2  C   -0.864963   0.622051
     3  C   -0.006008  -0.160927
     4  C    0.625411  -0.306392
     5  C   -0.540766  -0.236495
     6  O   -0.322507   0.014740
     7  N    0.134675   0.093953
     8  C    1.439044  -1.757249
     9  N   -0.233604   0.119292
    10  C   -0.623340   0.644524
    11  C    0.638044  -1.148999
    12  C   -0.023939  -0.431158
    13  O   -0.161024   0.018950
    14  C   -0.209931  -0.116451
    15  H   -0.064007   0.200471
    16  H   -0.045741   0.169392
    17  H   -0.177590   0.310570
    18  H    0.154133   0.020193
    19  H    0.028329   0.099847
    20  H    0.047173   0.067905
    21  H   -0.047632   0.219000
    22  H   -0.116093   0.353616
    23  H    0.077261   0.135174
    24  H   -1.013573   1.195786
    25  H   -0.308301   0.597355
    26  H   -0.191061   0.389048
    27  H    0.099229   0.076831
    28  H   -0.138370   0.281085
    29  H   -0.184277   0.346914
    30  H   -0.058234   0.224439
    31  H    0.216118  -0.031801
    32  H    0.093659   0.017839
    33  H    0.279022  -0.084914
    34  H    0.053582   0.097679
 Sum of Mulliken charges =  -1.00000   1.00000

 Dipole moment (field-independent basis, Debye):
    X=              1.7748    Y=              2.0230    Z=             -7.1055  Tot=              7.5981
 Quadrupole moment (field-independent basis, Debye-Ang):
   XX=           -151.0310   YY=           -124.5002   ZZ=           -139.1106
   XY=              2.9602   XZ=              3.1305   YZ=             -1.7640

 Summary of Natural Population Analysis:

                                       Natural Population
                Natural  -----------------------------------------------
    Atom  No    Charge         Core      Valence    Rydberg      Total
 -----------------------------------------------------------------------
      C    1   -0.28684      0.99967     2.28245    0.00473     3.28684
      C    2   -0.19641      0.99963     2.18866    0.00812     3.19641
      C    3   -0.18717      0.99961     2.17676    0.01080     3.18717
      C    4   -0.04685      0.99955     2.03384    0.01346     3.04685
      C    5    0.35207      0.99961     1.62465    0.02366     2.64793
      O    6   -0.33218      0.99988     3.32750    0.00481     4.33218
      N    7   -0.26071      0.99961     2.74539    0.01571     3.76071
      C    8    0.02672      0.99963     1.96042    0.01323     2.97328
      N    9   -0.34423      0.99974     2.83129    0.01321     3.84423
      C   10   -0.01601      0.99959     2.00211    0.01432     3.01601
      C   11   -0.29280      0.99964     2.28708    0.00608     3.29280
      C   12   -0.01070      0.99953     1.99842    0.01275     3.01070
      O   13   -0.30267      0.99989     3.29377    0.00901     4.30267
      C   14   -0.09874      0.99960     2.09130    0.00784     3.09874
      H   15    0.09861      0.00000     0.40034    0.00104     0.40139
      H   16    0.09555      0.00000     0.40370    0.00075     0.40445
      H   17    0.09550      0.00000     0.40337    0.00112     0.40450
      H   18    0.10941      0.00000     0.38936    0.00123     0.39059
      H   19    0.09036      0.00000     0.40875    0.00090     0.40964
      H   20    0.09877      0.00000     0.39984    0.00139     0.40123
      H   21    0.09814      0.00000     0.40065    0.00121     0.40186
      H   22    0.09753      0.00000     0.39982    0.00265     0.40247
      H   23    0.09084      0.00000     0.40728    0.00188     0.40916
      H   24    0.08558      0.00000     0.40951    0.00490     0.41442
      H   25    0.18843      0.00000     0.30406    0.00752     0.31157
      H   26    0.10131      0.00000     0.39662    0.00207     0.39869
      H   27    0.11213      0.00000     0.38689    0.00098     0.38787
      H   28    0.09838      0.00000     0.40065    0.00097     0.40162
      H   29    0.10633      0.00000     0.39243    0.00124     0.39367
      H   30    0.08731      0.00000     0.41150    0.00119     0.41269
      H   31    0.09014      0.00000     0.40864    0.00121     0.40986
      H   32    0.07651      0.00000     0.42242    0.00107     0.42349
      H   33    0.08996      0.00000     0.40820    0.00184     0.41004
      H   34    0.08573      0.00000     0.41337    0.00090     0.41427
 =======================================================================
   * Total *    0.00000     13.99517    40.81106    0.19377    55.00000

 Normal termination of Gaussian 16 at Thu Dec 10 10:00:01 2020.
