 Gaussian 16, Revision A.03,

 -----------------------------------------------------------
 # opt freq B3LYP/6-31G(d) empiricaldispersion=gd3bj scf=xqc
 -----------------------------------------------------------

 ------------------------------
 CID_66404698_JID_3484_neutraal
 ------------------------------
 Symbolic Z-matrix:
 Charge =  0 Multiplicity = 1

 SCF Done:  E(RB3LYP) =  -576.635586544     A.U. after   14 cycles
 SCF Done:  E(RB3LYP) =  -576.639980835     A.U. after   12 cycles
 SCF Done:  E(RB3LYP) =  -576.640821911     A.U. after   11 cycles
 SCF Done:  E(RB3LYP) =  -576.641300468     A.U. after   12 cycles
 SCF Done:  E(RB3LYP) =  -576.641479100     A.U. after   11 cycles
 SCF Done:  E(RB3LYP) =  -576.641618648     A.U. after   10 cycles
 SCF Done:  E(RB3LYP) =  -576.641650785     A.U. after   10 cycles
 SCF Done:  E(RB3LYP) =  -576.641664309     A.U. after    9 cycles
 SCF Done:  E(RB3LYP) =  -576.641669527     A.U. after    8 cycles
 SCF Done:  E(RB3LYP) =  -576.641670823     A.U. after    8 cycles
 SCF Done:  E(RB3LYP) =  -576.641671482     A.U. after    7 cycles
 SCF Done:  E(RB3LYP) =  -576.641671710     A.U. after    7 cycles
 SCF Done:  E(RB3LYP) =  -576.641671766     A.U. after    7 cycles
 SCF Done:  E(RB3LYP) =  -576.641671793     A.U. after    7 cycles
 SCF Done:  E(RB3LYP) =  -576.641671801     A.U. after    6 cycles
 Optimization completed.
    -- Stationary point found.
 Normal termination of Gaussian 16 at Wed Dec  9 23:26:15 2020.

 --------------------------------------------------------------------
 #N Geom=AllCheck Guess=TCheck SCRF=Check GenChk RB3LYP/6-31G(d) Freq
 --------------------------------------------------------------------

 Structure from the checkpoint file:  "JID_3484.chk"
 ------------------------------
 CID_66404698_JID_3484_neutraal
 ------------------------------
 Charge =  0 Multiplicity = 1

 SCF Done:  E(RB3LYP) =  -576.641671801     A.U. after    1 cycles

  Exact polarizability: 149.540   5.144 113.116  10.611   1.600  93.333
 Approx polarizability: 185.422   5.823 180.722  23.975   2.470 140.093

                      1                      2                      3
                      A                      A                      A
 Frequencies --     23.5824                33.0585                46.3249
 Red. masses --      4.4569                 3.3983                 4.3307
 Frc consts  --      0.0015                 0.0022                 0.0055
 IR Inten    --      0.3597                 0.0153                 0.6373

                      4                      5                      6
                      A                      A                      A
 Frequencies --     66.4013                92.2513               117.8340
 Red. masses --      3.3647                 4.0104                 2.5117
 Frc consts  --      0.0087                 0.0201                 0.0205
 IR Inten    --      1.8770                 2.2155                 0.1645

                      7                      8                      9
                      A                      A                      A
 Frequencies --    131.3741               186.8983               224.4304
 Red. masses --      2.9450                 1.9676                 2.8531
 Frc consts  --      0.0299                 0.0405                 0.0847
 IR Inten    --      1.3298                15.8603                 9.0878

                     10                     11                     12
                      A                      A                      A
 Frequencies --    256.3929               274.7587               298.7036
 Red. masses --      1.5921                 1.6041                 1.4086
 Frc consts  --      0.0617                 0.0713                 0.0740
 IR Inten    --      7.7785                29.1186                64.3963

                     13                     14                     15
                      A                      A                      A
 Frequencies --    341.8445               365.4143               399.5243
 Red. masses --      2.3411                 2.2746                 2.2026
 Frc consts  --      0.1612                 0.1789                 0.2071
 IR Inten    --      8.8676                 2.0787                 0.7687

                     16                     17                     18
                      A                      A                      A
 Frequencies --    447.8217               459.7360               533.4879
 Red. masses --      2.1620                 2.8887                 2.8164
 Frc consts  --      0.2555                 0.3597                 0.4723
 IR Inten    --      3.7544                 2.7885                 1.8691

                     19                     20                     21
                      A                      A                      A
 Frequencies --    610.4154               639.6644               668.6501
 Red. masses --      3.4854                 3.6684                 1.3179
 Frc consts  --      0.7652                 0.8844                 0.3471
 IR Inten    --      0.9113                 6.6886                 0.8286

                     22                     23                     24
                      A                      A                      A
 Frequencies --    682.0287               723.9504               769.4367
 Red. masses --      2.4597                 1.7229                 1.5177
 Frc consts  --      0.6741                 0.5320                 0.5294
 IR Inten    --      4.4749                64.1372                 5.9797

                     25                     26                     27
                      A                      A                      A
 Frequencies --    779.6047               808.7034               812.2576
 Red. masses --      1.6470                 1.9772                 2.2214
 Frc consts  --      0.5898                 0.7619                 0.8635
 IR Inten    --     19.2572               145.4472                 8.1908

                     28                     29                     30
                      A                      A                      A
 Frequencies --    830.1998               922.1259               924.5333
 Red. masses --      1.4359                 2.0956                 2.0822
 Frc consts  --      0.5831                 1.0499                 1.0486
 IR Inten    --     13.8923                 5.6866                 7.8755

                     31                     32                     33
                      A                      A                      A
 Frequencies --    951.5393               987.8616               996.2709
 Red. masses --      1.9043                 1.4990                 2.0538
 Frc consts  --      1.0159                 0.8619                 1.2010
 IR Inten    --      3.7334                 6.4124                29.3765

                     34                     35                     36
                      A                      A                      A
 Frequencies --   1009.0388              1041.2460              1080.5665
 Red. masses --      2.9171                 2.9702                 1.6105
 Frc consts  --      1.7499                 1.8973                 1.1080
 IR Inten    --      7.2157                 0.4682                 2.4617

                     37                     38                     39
                      A                      A                      A
 Frequencies --   1094.4116              1104.7393              1118.1567
 Red. masses --      2.8116                 1.2988                 2.7074
 Frc consts  --      1.9841                 0.9339                 1.9943
 IR Inten    --    103.0619                10.6096                 6.4840

                     40                     41                     42
                      A                      A                      A
 Frequencies --   1130.0182              1160.5129              1176.4028
 Red. masses --      2.3273                 1.5390                 1.2268
 Frc consts  --      1.7510                 1.2212                 1.0003
 IR Inten    --     27.1911                 3.9253                12.9141

                     43                     44                     45
                      A                      A                      A
 Frequencies --   1178.3344              1188.7514              1215.9372
 Red. masses --      1.5357                 1.7197                 1.2574
 Frc consts  --      1.2563                 1.4318                 1.0953
 IR Inten    --     11.4233                63.2593                 3.7599

                     46                     47                     48
                      A                      A                      A
 Frequencies --   1257.0213              1285.4532              1330.9814
 Red. masses --      1.3868                 1.5231                 1.2496
 Frc consts  --      1.2911                 1.4828                 1.3043
 IR Inten    --     10.9259                 1.8451                 9.3676

                     49                     50                     51
                      A                      A                      A
 Frequencies --   1336.7843              1373.0743              1389.7421
 Red. masses --      1.2571                 1.8353                 1.6889
 Frc consts  --      1.3236                 2.0386                 1.9219
 IR Inten    --      0.5914                58.8729                 1.1735

                     52                     53                     54
                      A                      A                      A
 Frequencies --   1390.3062              1394.0185              1406.6597
 Red. masses --      1.3211                 2.3353                 1.2036
 Frc consts  --      1.5045                 2.6738                 1.4031
 IR Inten    --      7.3624                 3.3906                45.2285

                     55                     56                     57
                      A                      A                      A
 Frequencies --   1423.1334              1438.1908              1438.7012
 Red. masses --      1.5240                 3.6432                 1.3556
 Frc consts  --      1.8185                 4.4399                 1.6532
 IR Inten    --     21.6875                 0.1479                21.3172

                     58                     59                     60
                      A                      A                      A
 Frequencies --   1451.3419              1477.6437              1500.6778
 Red. masses --      2.2018                 1.1674                 1.1060
 Frc consts  --      2.7326                 1.5018                 1.4675
 IR Inten    --      7.1129                 0.9446                 0.6129

                     61                     62                     63
                      A                      A                      A
 Frequencies --   1505.8335              1512.4877              1514.7318
 Red. masses --      1.0892                 1.1861                 1.1972
 Frc consts  --      1.4551                 1.5987                 1.6184
 IR Inten    --      5.4155                 1.0589                27.0293

                     64                     65                     66
                      A                      A                      A
 Frequencies --   1518.9348              1523.6646              1538.5460
 Red. masses --      1.0675                 1.1160                 1.2028
 Frc consts  --      1.4511                 1.5265                 1.6775
 IR Inten    --      3.0719                 4.1610                 4.9280

                     67                     68                     69
                      A                      A                      A
 Frequencies --   1550.3658              1553.9953              1603.7035
 Red. masses --      1.6419                 1.2023                 4.7886
 Frc consts  --      2.3252                 1.7107                 7.2561
 IR Inten    --     36.7276                10.0097                 6.3475

                     70                     71                     72
                      A                      A                      A
 Frequencies --   2987.2422              3006.4777              3037.9182
 Red. masses --      1.0524                 1.0715                 1.0658
 Frc consts  --      5.5329                 5.7061                 5.7952
 IR Inten    --     59.5868                62.8579                21.4871

                     73                     74                     75
                      A                      A                      A
 Frequencies --   3041.6928              3055.2828              3061.9583
 Red. masses --      1.0596                 1.0615                 1.0630
 Frc consts  --      5.7758                 5.8381                 5.8720
 IR Inten    --     44.9497                17.6018                49.4878

                     76                     77                     78
                      A                      A                      A
 Frequencies --   3069.1387              3082.2845              3082.5252
 Red. masses --      1.0819                 1.0979                 1.1044
 Frc consts  --      6.0046                 6.1456                 6.1826
 IR Inten    --     52.8558                19.3355                26.8699

                     79                     80                     81
                      A                      A                      A
 Frequencies --   3098.9933              3107.6454              3111.4443
 Red. masses --      1.1023                 1.0952                 1.1009
 Frc consts  --      6.2374                 6.2318                 6.2793
 IR Inten    --     38.3671                55.4151                23.5596

                     82                     83                     84
                      A                      A                      A
 Frequencies --   3112.0447              3249.5345              3256.0577
 Red. masses --      1.1018                 1.0900                 1.0954
 Frc consts  --      6.2871                 6.7814                 6.8424
 IR Inten    --     38.8048                 4.2925                 2.1595

                     85                     86                     87
                      A                      A                      A
 Frequencies --   3272.9292              3476.8334              3755.6283
 Red. masses --      1.1026                 1.0736                 1.0661
 Frc consts  --      6.9587                 7.6468                 8.8596
 IR Inten    --      3.8016                 1.9655                 6.2235

 - Thermochemistry -
 -------------------
 Temperature   298.150 Kelvin.  Pressure   1.00000 Atm.
 Atom     1 has atomic number  6 and mass  12.00000

 Molecular mass:   182.14191 amu.
 Principal axes and moments of inertia in atomic units:
                           1         2         3
     Eigenvalues --   799.631965878.260036050.80936
           X            0.99997   0.00727  -0.00095
           Y           -0.00726   0.99997   0.00235
           Z            0.00096  -0.00234   1.00000
 This molecule is an asymmetric top.
 Rotational symmetry number  1.
 Warning -- assumption of classical behavior for rotation
           may cause significant error
 Rotational temperatures (Kelvin)      0.10832     0.01473     0.01431
 Rotational constants (GHZ):           2.25696     0.30702     0.29826
 Zero-point vibrational energy     726652.6 (Joules/Mol)
                                  173.67413 (Kcal/Mol)
 Warning -- explicit consideration of  19 degrees of freedom as
           vibrations may cause significant error
 Vibrational temperatures:     33.93    47.56    66.65    95.54   132.73
          (Kelvin)            169.54   189.02   268.90   322.91   368.89
                              395.32   429.77   491.84   525.75   574.83
                              644.32   661.46   767.57   878.25   920.33
                              962.04   981.29  1041.60  1107.05  1121.68
                             1163.54  1168.66  1194.47  1326.73  1330.20
                             1369.05  1421.31  1433.41  1451.78  1498.12
                             1554.69  1574.61  1589.47  1608.78  1625.84
                             1669.72  1692.58  1695.36  1710.35  1749.46
                             1808.57  1849.48  1914.99  1923.33  1975.55
                             1999.53  2000.34  2005.68  2023.87  2047.57
                             2069.24  2069.97  2088.16  2126.00  2159.14
                             2166.56  2176.13  2179.36  2185.41  2192.21
                             2213.62  2230.63  2235.85  2307.37  4297.98
                             4325.65  4370.89  4376.32  4395.87  4405.48
                             4415.81  4434.72  4435.07  4458.76  4471.21
                             4476.67  4477.54  4675.36  4684.74  4709.02
                             5002.39  5403.51

 Zero-point correction=                           0.276767 (Hartree/Particle)
 Thermal correction to Energy=                    0.291028
 Thermal correction to Enthalpy=                  0.291972
 Thermal correction to Gibbs Free Energy=         0.233630
 Sum of electronic and zero-point Energies=           -576.364904
 Sum of electronic and thermal Energies=              -576.350644
 Sum of electronic and thermal Enthalpies=            -576.349700
 Sum of electronic and thermal Free Energies=         -576.408041

                     E (Thermal)             CV                S
                      KCal/Mol        Cal/Mol-Kelvin    Cal/Mol-Kelvin
 Total                  182.623             52.307            122.791
 Electronic               0.000              0.000              0.000
 Translational            0.889              2.981             41.505
 Rotational               0.889              2.981             31.720
 Vibrational            180.845             46.346             49.565
 Vibration     1          0.593              1.985              6.307
 Vibration     2          0.594              1.983              5.637
 Vibration     3          0.595              1.979              4.968
 Vibration     4          0.598              1.970              4.257
 Vibration     5          0.602              1.955              3.612
 Vibration     6          0.608              1.935              3.136
 Vibration     7          0.612              1.922              2.926
 Vibration     8          0.632              1.858              2.258
 Vibration     9          0.649              1.804              1.923
 Vibration    10          0.666              1.752              1.686
 Vibration    11          0.677              1.720              1.566
 Vibration    12          0.692              1.676              1.424
 Vibration    13          0.721              1.592              1.204
 Vibration    14          0.739              1.543              1.099
 Vibration    15          0.766              1.471              0.964
 Vibration    16          0.807              1.366              0.802
 Vibration    17          0.818              1.339              0.767
 Vibration    18          0.888              1.176              0.579
 Vibration    19          0.969              1.010              0.432

                           ! Non-Optimized Parameters !
 Normal termination of Gaussian 16 at Wed Dec  9 23:33:19 2020.

 ----------------------------------------------------------------------
 # B3LYP/6-311++G(d,p) empiricaldispersion=gd3bj scf=xqc pop=npa geom=c
 heck
 ----------------------------------------------------------------------

 --------------------------------------
 CID_66404698_JID_3484_Energie_neutraal
 --------------------------------------
 Structure from the checkpoint file:  "JID_3484.chk"
 Charge =  0 Multiplicity = 1

 SCF Done:  E(RB3LYP) =  -576.817328952     A.U. after   14 cycles
 Normal termination of Gaussian 16 at Wed Dec  9 23:36:39 2020.

 ----------------------------------------------------------------------
 # B3LYP/6-311++G(d,p) empiricaldispersion=gd3bj scf=xqc pop=npa geom=c
 heck
 ----------------------------------------------------------------------

 ------------------------------------
 CID_66404698_JID_3484_Energie_kation
 ------------------------------------
 Structure from the checkpoint file:  "JID_3484.chk"
 Charge =  1 Multiplicity = 2

 SCF Done:  E(UB3LYP) =  -576.537076735     A.U. after   22 cycles
 Normal termination of Gaussian 16 at Wed Dec  9 23:43:51 2020.
 Gaussian 16:  ES64L-G16RevA.03 25-Dec-2016

 ----------------------------------------------------------------------
 # B3LYP/6-311++G(d,p) empiricaldispersion=gd3bj scf=xqc pop=npa geom=c
 heck
 ----------------------------------------------------------------------

 -----------------------------------
 CID_66404698_JID_3484_Energie_anion
 -----------------------------------
 Structure from the checkpoint file:  "JID_3484.chk"
 Charge = -1 Multiplicity = 2

                         Standard orientation:
 ---------------------------------------------------------------------
 Center     Atomic      Atomic             Coordinates (Angstroms)
 Number     Number       Type             X           Y           Z
 ---------------------------------------------------------------------
      1          6           0        4.589899    0.681205   -0.476901
      2          7           0        4.206895   -0.568339    0.173527
      3          6           0        3.038713   -0.438300    1.060526
      4          6           0        1.740144   -0.052036    0.400749
      5          6           0        0.790829   -0.928681   -0.093784
      6          7           0       -0.212961   -0.204307   -0.696687
      7          6           0        0.077261    1.137402   -0.579905
      8          6           0        1.276894    1.263474    0.086872
      9          6           0       -1.457698   -0.759938   -1.203383
     10          6           0       -2.360970   -1.306795   -0.087387
     11          6           0       -2.703313   -0.289820    1.008826
     12          6           0       -3.525141    0.907429    0.526641
     13          8           0       -4.789833    0.539644   -0.017659
     14          1           0        4.889574    1.404574    0.291589
     15          1           0        3.797407    1.147848   -1.085988
     16          1           0        5.458536    0.499929   -1.118965
     17          1           0        3.976117   -1.250673   -0.547831
     18          1           0        2.916390   -1.399147    1.575201
     19          1           0        3.300388    0.299664    1.829595
     20          1           0        0.749623   -2.008977   -0.061299
     21          1           0       -0.593612    1.879962   -0.987821
     22          1           0        1.776885    2.192287    0.326921
     23          1           0       -1.958983    0.035639   -1.763383
     24          1           0       -1.226644   -1.557077   -1.919627
     25          1           0       -3.281949   -1.693867   -0.545353
     26          1           0       -1.866821   -2.171670    0.370265
     27          1           0       -3.270058   -0.801158    1.795794
     28          1           0       -1.775763    0.079497    1.463745
     29          1           0       -3.751589    1.559932    1.375173
     30          1           0       -2.948171    1.509974   -0.192428
     31          1           0       -4.629907    0.080978   -0.855726
 ---------------------------------------------------------------------

 SCF Done:  E(UB3LYP) =  -576.807504008     A.U. after   31 cycles

 The electronic state is 2-A.
 Alpha  occ. eigenvalues --  -19.01621 -14.25927 -14.20568 -10.11360 -10.10589
 Alpha  occ. eigenvalues --  -10.10223 -10.09521 -10.09095 -10.08709 -10.06958
 Alpha  occ. eigenvalues --  -10.06689 -10.06249 -10.05775  -0.91705  -0.88532
 Alpha  occ. eigenvalues --   -0.81000  -0.72071  -0.67610  -0.63927  -0.61484
 Alpha  occ. eigenvalues --   -0.59829  -0.55801  -0.53262  -0.48500  -0.47012
 Alpha  occ. eigenvalues --   -0.45223  -0.41856  -0.40821  -0.39027  -0.37417
 Alpha  occ. eigenvalues --   -0.36486  -0.35428  -0.33754  -0.33370  -0.32564
 Alpha  occ. eigenvalues --   -0.31434  -0.30209  -0.29856  -0.29344  -0.28485
 Alpha  occ. eigenvalues --   -0.27657  -0.25838  -0.25198  -0.24642  -0.24446
 Alpha  occ. eigenvalues --   -0.22325  -0.17354  -0.14528  -0.13520  -0.11565
 Alpha  occ. eigenvalues --    0.04402
 Alpha virt. eigenvalues --    0.06425   0.07237   0.07737   0.08496   0.08775
 Alpha virt. eigenvalues --    0.09015   0.10059   0.10610   0.10831   0.11371
 Alpha virt. eigenvalues --    0.11608   0.12005   0.12186   0.12917   0.13729

  Beta  occ. eigenvalues --  -19.01571 -14.25930 -14.20559 -10.11344 -10.10536
  Beta  occ. eigenvalues --  -10.10218 -10.09513 -10.09081 -10.08683 -10.06922
  Beta  occ. eigenvalues --  -10.06686 -10.06249 -10.05767  -0.91596  -0.88521
  Beta  occ. eigenvalues --   -0.80985  -0.72031  -0.67577  -0.63898  -0.61432
  Beta  occ. eigenvalues --   -0.59790  -0.55738  -0.53218  -0.48444  -0.46979
  Beta  occ. eigenvalues --   -0.45170  -0.41785  -0.40736  -0.38997  -0.37375
  Beta  occ. eigenvalues --   -0.36425  -0.35413  -0.33717  -0.33337  -0.32520
  Beta  occ. eigenvalues --   -0.31402  -0.30180  -0.29832  -0.29319  -0.28464
  Beta  occ. eigenvalues --   -0.27639  -0.25798  -0.25174  -0.24585  -0.24397
  Beta  occ. eigenvalues --   -0.22284  -0.17304  -0.14511  -0.13496  -0.11532
  Beta virt. eigenvalues --    0.06356   0.07472   0.07770   0.08072   0.08885
  Beta virt. eigenvalues --    0.08992   0.09493   0.10406   0.10838   0.11225
  Beta virt. eigenvalues --    0.11598   0.11826   0.12202   0.12626   0.13029

 Mulliken charges and spin densities:
               1          2
     1  C   -0.136357  -0.309779
     2  N   -0.169187   0.099966
     3  C    0.313272  -1.252997
     4  C    0.420265  -0.103925
     5  C   -0.357920  -0.166322
     6  N    0.217285   0.054709
     7  C   -0.509011   0.138232
     8  C    0.332420  -0.178982
     9  C    0.549922  -0.779196
    10  C    0.681264  -0.921502
    11  C   -0.797958   0.581293
    12  C    0.896852  -1.295551
    13  O   -0.290370   0.042027
    14  H    0.082012   0.054189
    15  H    0.056083   0.089907
    16  H   -0.024599   0.146296
    17  H    0.099509   0.120352
    18  H    0.057454   0.124528
    19  H    0.127226   0.011995
    20  H   -0.427503   0.595391
    21  H   -0.257523   0.391990
    22  H    0.065972   0.091042
    23  H   -0.575825   0.741179
    24  H   -0.962312   1.176319
    25  H   -0.448145   0.612077
    26  H   -0.136158   0.262048
    27  H    0.028075   0.146903
    28  H    0.174048  -0.044008
    29  H    0.154182  -0.001483
    30  H   -0.019701   0.169677
    31  H   -0.143270   0.403625
 Sum of Mulliken charges =  -1.00000   1.00000

 Dipole moment (field-independent basis, Debye):
    X=              5.7225    Y=              3.5775    Z=              5.1906  Tot=              8.5140
 Quadrupole moment (field-independent basis, Debye-Ang):
   XX=           -173.4978   YY=           -116.1065   ZZ=           -116.8480
   XY=              0.3508   XZ=            -13.2607   YZ=             -3.9120

 Summary of Natural Population Analysis:

                                       Natural Population
                Natural  -----------------------------------------------
    Atom  No    Charge         Core      Valence    Rydberg      Total
 -----------------------------------------------------------------------
      C    1   -0.18223      0.99966     2.17535    0.00721     3.18223
      N    2   -0.33632      0.99977     2.82447    0.01209     3.83632
      C    3   -0.09398      0.99958     2.08305    0.01135     3.09398
      C    4   -0.07374      0.99952     2.06329    0.01093     3.07374
      C    5   -0.01427      0.99948     2.00156    0.01323     3.01427
      N    6   -0.20394      0.99966     2.69149    0.01279     3.70394
      C    7   -0.01486      0.99955     2.00205    0.01327     3.01486
      C    8   -0.14874      0.99952     2.14093    0.00829     3.14874
      C    9   -0.08278      0.99960     2.06957    0.01361     3.08278
      C   10   -0.19791      0.99962     2.18794    0.01035     3.19791
      C   11   -0.20624      0.99962     2.19883    0.00779     3.20624
      C   12   -0.01046      0.99960     1.99785    0.01301     3.01046
      O   13   -0.37161      0.99990     3.36513    0.00659     4.37161
      H   14    0.08635      0.00000     0.41241    0.00124     0.41365
      H   15    0.08651      0.00000     0.41175    0.00174     0.41349
      H   16    0.09124      0.00000     0.40775    0.00100     0.40876
      H   17    0.17045      0.00000     0.32670    0.00286     0.32955
      H   18    0.09746      0.00000     0.40138    0.00116     0.40254
      H   19    0.09126      0.00000     0.40764    0.00110     0.40874
      H   20    0.10300      0.00000     0.39553    0.00147     0.39700
      H   21    0.10111      0.00000     0.39771    0.00118     0.39889
      H   22    0.10202      0.00000     0.39716    0.00081     0.39798
      H   23    0.10272      0.00000     0.39355    0.00373     0.39728
      H   24    0.10677      0.00000     0.38851    0.00472     0.39323
      H   25    0.10413      0.00000     0.39309    0.00277     0.39587
      H   26    0.10064      0.00000     0.39786    0.00150     0.39936
      H   27    0.09853      0.00000     0.40044    0.00104     0.40147
      H   28    0.10263      0.00000     0.39608    0.00129     0.39737
      H   29    0.08327      0.00000     0.41565    0.00108     0.41673
      H   30    0.07589      0.00000     0.42257    0.00153     0.42411
      H   31    0.23309      0.00000     0.26077    0.00614     0.26691
 =======================================================================
   * Total *    0.00000     12.99508    36.82807    0.17686    50.00000

 Normal termination of Gaussian 16 at Wed Dec  9 23:54:10 2020.
