 Gaussian 16, Revision A.03,

 -----------------------------------------------------------
 # opt freq B3LYP/6-31G(d) empiricaldispersion=gd3bj scf=xqc
 -----------------------------------------------------------

 ------------------------------
 CID_71500130_JID_5668_neutraal
 ------------------------------
 Symbolic Z-matrix:
 Charge =  0 Multiplicity = 1

 SCF Done:  E(RB3LYP) =  -730.958040007     A.U. after   15 cycles
 SCF Done:  E(RB3LYP) =  -730.964430588     A.U. after   13 cycles
 SCF Done:  E(RB3LYP) =  -730.965543429     A.U. after   13 cycles
 SCF Done:  E(RB3LYP) =  -730.966190788     A.U. after   13 cycles
 SCF Done:  E(RB3LYP) =  -730.967070069     A.U. after   12 cycles
 SCF Done:  E(RB3LYP) =  -730.967972482     A.U. after   13 cycles
 SCF Done:  E(RB3LYP) =  -730.967374118     A.U. after   13 cycles
 SCF Done:  E(RB3LYP) =  -730.968800861     A.U. after   12 cycles
 SCF Done:  E(RB3LYP) =  -730.968954390     A.U. after   11 cycles
 SCF Done:  E(RB3LYP) =  -730.968974126     A.U. after   10 cycles
 SCF Done:  E(RB3LYP) =  -730.968986741     A.U. after   10 cycles
 SCF Done:  E(RB3LYP) =  -730.968987406     A.U. after    9 cycles
 SCF Done:  E(RB3LYP) =  -730.968989738     A.U. after    8 cycles
 SCF Done:  E(RB3LYP) =  -730.968990011     A.U. after    7 cycles
 SCF Done:  E(RB3LYP) =  -730.968990061     A.U. after    7 cycles
 Optimization completed.
    -- Stationary point found.
 Normal termination of Gaussian 16 at Thu Dec 10 16:38:01 2020.

 --------------------------------------------------------------------
 #N Geom=AllCheck Guess=TCheck SCRF=Check GenChk RB3LYP/6-31G(d) Freq
 --------------------------------------------------------------------

 Structure from the checkpoint file:  "JID_5668.chk"
 ------------------------------
 CID_71500130_JID_5668_neutraal
 ------------------------------
 Charge =  0 Multiplicity = 1

 SCF Done:  E(RB3LYP) =  -730.968990061     A.U. after    1 cycles

  Exact polarizability: 144.479  -7.592 129.412   8.677  -2.876 101.921
 Approx polarizability: 196.243 -21.712 196.265  24.500 -17.222 155.043

                      1                      2                      3
                      A                      A                      A
 Frequencies --     30.3933                71.8705                73.3383
 Red. masses --      4.3487                 3.4283                 3.1248
 Frc consts  --      0.0024                 0.0104                 0.0099
 IR Inten    --      0.3389                 0.6904                 0.7560

                      4                      5                      6
                      A                      A                      A
 Frequencies --    103.5278               119.5593               150.6711
 Red. masses --      4.4107                 5.4805                 4.1862
 Frc consts  --      0.0279                 0.0462                 0.0560
 IR Inten    --      0.7923                 1.4574                 4.6654

                      7                      8                      9
                      A                      A                      A
 Frequencies --    175.9207               207.1345               223.2229
 Red. masses --      4.2772                 3.4879                 1.0365
 Frc consts  --      0.0780                 0.0882                 0.0304
 IR Inten    --      3.2284                 1.4119                 0.0044

                     10                     11                     12
                      A                      A                      A
 Frequencies --    228.6095               242.5788               274.7553
 Red. masses --      1.1094                 1.1982                 1.1814
 Frc consts  --      0.0342                 0.0415                 0.0525
 IR Inten    --      0.1597                 0.0751                 1.2657

                     13                     14                     15
                      A                      A                      A
 Frequencies --    295.4010               309.5352               342.3613
 Red. masses --      2.3431                 3.1120                 2.6622
 Frc consts  --      0.1205                 0.1757                 0.1838
 IR Inten    --      2.7216                 0.1735                 0.5446

                     16                     17                     18
                      A                      A                      A
 Frequencies --    361.8284               379.5967               387.3188
 Red. masses --      2.2458                 2.2041                 3.1080
 Frc consts  --      0.1732                 0.1871                 0.2747
 IR Inten    --      5.2246                 4.8798                 1.3286

                     19                     20                     21
                      A                      A                      A
 Frequencies --    400.2601               418.3676               472.9064
 Red. masses --      1.2385                 2.1754                 3.9021
 Frc consts  --      0.1169                 0.2243                 0.5142
 IR Inten    --    120.0164                 9.0061                20.7232

                     22                     23                     24
                      A                      A                      A
 Frequencies --    491.7444               510.1803               518.7235
 Red. masses --      4.5484                 3.7567                 5.4024
 Frc consts  --      0.6480                 0.5761                 0.8565
 IR Inten    --      1.0453                 9.1903                 2.8813

                     25                     26                     27
                      A                      A                      A
 Frequencies --    549.2918               560.9711               622.3043
 Red. masses --      3.5952                 4.6029                 4.2827
 Frc consts  --      0.6391                 0.8534                 0.9772
 IR Inten    --      3.0851                 0.6658                 6.3187

                     28                     29                     30
                      A                      A                      A
 Frequencies --    732.9723               765.1986               810.5434
 Red. masses --      5.4937                 3.2750                 3.1885
 Frc consts  --      1.7390                 1.1298                 1.2342
 IR Inten    --     14.1406                 0.4800                 8.1990

                     31                     32                     33
                      A                      A                      A
 Frequencies --    824.9031               850.0484               879.7196
 Red. masses --      2.3400                 1.7357                 2.9520
 Frc consts  --      0.9381                 0.7389                 1.3460
 IR Inten    --     24.9576                15.4082                15.3126

                     34                     35                     36
                      A                      A                      A
 Frequencies --    903.1335               907.4732               938.3225
 Red. masses --      3.2190                 2.9781                 1.6601
 Frc consts  --      1.5469                 1.4450                 0.8612
 IR Inten    --      9.9303                20.0270                 6.0558

                     37                     38                     39
                      A                      A                      A
 Frequencies --    950.5911               953.3191               976.9793
 Red. masses --      1.4324                 1.4358                 2.0177
 Frc consts  --      0.7626                 0.7688                 1.1347
 IR Inten    --      0.3162                 3.3167                 8.6803

                     40                     41                     42
                      A                      A                      A
 Frequencies --    984.5200              1025.2961              1032.8546
 Red. masses --      2.4897                 1.8543                 1.4026
 Frc consts  --      1.4218                 1.1485                 0.8816
 IR Inten    --      4.3264                11.0588                 7.8298

                     43                     44                     45
                      A                      A                      A
 Frequencies --   1044.2988              1075.3142              1115.2042
 Red. masses --      2.4630                 3.6170                 2.5861
 Frc consts  --      1.5826                 2.4642                 1.8949
 IR Inten    --     77.3625                53.6580                 1.7275

                     46                     47                     48
                      A                      A                      A
 Frequencies --   1138.8324              1153.0201              1203.2320
 Red. masses --      1.4894                 2.0098                 1.7087
 Frc consts  --      1.1381                 1.5743                 1.4575
 IR Inten    --     30.8198                 8.2433                 7.3114

                     49                     50                     51
                      A                      A                      A
 Frequencies --   1211.5228              1241.7039              1246.6866
 Red. masses --      1.8924                 1.8420                 1.9660
 Frc consts  --      1.6366                 1.6733                 1.8003
 IR Inten    --     18.9657                41.2293               168.3584

                     52                     53                     54
                      A                      A                      A
 Frequencies --   1272.0879              1283.8927              1299.8392
 Red. masses --      1.3400                 2.8935                 2.1697
 Frc consts  --      1.2776                 2.8102                 2.1599
 IR Inten    --      2.4554               101.8172                97.4708

                     55                     56                     57
                      A                      A                      A
 Frequencies --   1305.2868              1364.3820              1378.3827
 Red. masses --      1.9364                 1.3932                 1.4486
 Frc consts  --      1.9438                 1.5280                 1.6216
 IR Inten    --     67.5528                 2.9155                15.9788

                     58                     59                     60
                      A                      A                      A
 Frequencies --   1414.4995              1425.1546              1427.9507
 Red. masses --      1.4558                 1.6711                 1.3387
 Frc consts  --      1.7161                 1.9998                 1.6083
 IR Inten    --     16.7485               148.9901                18.4094

                     61                     62                     63
                      A                      A                      A
 Frequencies --   1432.7405              1441.9247              1447.6622
 Red. masses --      1.3578                 1.5083                 1.2934
 Frc consts  --      1.6422                 1.8477                 1.5971
 IR Inten    --     29.2651                22.1031                43.8425

                     64                     65                     66
                      A                      A                      A
 Frequencies --   1452.9660              1505.7558              1506.6546
 Red. masses --      1.2602                 1.0937                 1.0815
 Frc consts  --      1.5674                 1.4610                 1.4464
 IR Inten    --     16.3045                 8.2806                10.3903

                     67                     68                     69
                      A                      A                      A
 Frequencies --   1508.9991              1520.4171              1523.3865
 Red. masses --      1.0518                 1.0509                 1.0642
 Frc consts  --      1.4111                 1.4313                 1.4551
 IR Inten    --      3.2364                 2.4738                 0.4613

                     70                     71                     72
                      A                      A                      A
 Frequencies --   1525.4251              1531.1572              1537.7711
 Red. masses --      1.0465                 1.0510                 1.0552
 Frc consts  --      1.4348                 1.4518                 1.4702
 IR Inten    --      3.0926                 9.8410                 3.2050

                     73                     74                     75
                      A                      A                      A
 Frequencies --   1551.1928              1681.5169              1848.0182
 Red. masses --      1.0495                 7.7484                12.2490
 Frc consts  --      1.4879                12.9082                24.6469
 IR Inten    --      8.3938               144.9434               491.1276

                     76                     77                     78
                      A                      A                      A
 Frequencies --   3027.5422              3043.6605              3048.2890
 Red. masses --      1.0807                 1.0397                 1.0418
 Frc consts  --      5.8361                 5.6747                 5.7037
 IR Inten    --     11.8956                14.6774                32.8109

                     79                     80                     81
                      A                      A                      A
 Frequencies --   3065.3621              3076.0487              3081.3371
 Red. masses --      1.0828                 1.0346                 1.0350
 Frc consts  --      5.9946                 5.7678                 5.7897
 IR Inten    --     47.8597                 5.7746                 4.7854

                     82                     83                     84
                      A                      A                      A
 Frequencies --   3091.8235              3104.0318              3110.7320
 Red. masses --      1.0609                 1.1002                 1.0995
 Frc consts  --      5.9754                 6.2455                 6.2687
 IR Inten    --     16.8097                 1.6562                64.5870

                     85                     86                     87
                      A                      A                      A
 Frequencies --   3136.8892              3143.5119              3146.6227
 Red. masses --      1.1035                 1.1013                 1.0998
 Frc consts  --      6.3976                 6.4121                 6.4160
 IR Inten    --     18.6329                13.7528                16.9813

                     88                     89                     90
                      A                      A                      A
 Frequencies --   3153.4783              3155.0327              3160.8954
 Red. masses --      1.1042                 1.1029                 1.1038
 Frc consts  --      6.4694                 6.4681                 6.4977
 IR Inten    --      1.7841                14.1802                19.0256

                     91                     92                     93
                      A                      A                      A
 Frequencies --   3165.2723              3255.7352              3699.2949
 Red. masses --      1.1041                 1.0927                 1.0654
 Frc consts  --      6.5175                 6.8241                 8.5899
 IR Inten    --     11.1809                 0.6495                19.8016

 - Thermochemistry -
 -------------------
 Temperature   298.150 Kelvin.  Pressure   1.00000 Atm.
 Atom     1 has atomic number  6 and mass  12.00000

 Molecular mass:   214.12051 amu.
 Principal axes and moments of inertia in atomic units:
                           1         2         3
     Eigenvalues --  1945.519614301.614125205.65903
           X            0.99991   0.01293  -0.00433
           Y           -0.01286   0.99977   0.01699
           Z            0.00455  -0.01693   0.99985
 This molecule is an asymmetric top.
 Rotational symmetry number  1.
 Warning -- assumption of classical behavior for rotation
           may cause significant error
 Rotational temperatures (Kelvin)      0.04452     0.02014     0.01664
 Rotational constants (GHZ):           0.92764     0.41955     0.34669
 Zero-point vibrational energy     743722.5 (Joules/Mol)
                                  177.75393 (Kcal/Mol)
 Warning -- explicit consideration of  26 degrees of freedom as
           vibrations may cause significant error
 Vibrational temperatures:     43.73   103.41   105.52   148.95   172.02
          (Kelvin)            216.78   253.11   298.02   321.17   328.92
                              349.02   395.31   425.02   445.35   492.58
                              520.59   546.15   557.27   575.89   601.94
                              680.41   707.51   734.04   746.33   790.31
                              807.11   895.36  1054.58  1100.95  1166.19
                             1186.85  1223.03  1265.72  1299.41  1305.65
                             1350.04  1367.69  1371.61  1405.66  1416.50
                             1475.17  1486.05  1502.51  1547.14  1604.53
                             1638.53  1658.94  1731.18  1743.11  1786.53
                             1793.70  1830.25  1847.24  1870.18  1878.02
                             1963.04  1983.19  2035.15  2050.48  2054.50
                             2061.39  2074.61  2082.86  2090.49  2166.45
                             2167.74  2171.11  2187.54  2191.81  2194.75
                             2202.99  2212.51  2231.82  2419.33  2658.89
                             4355.96  4379.15  4385.81  4410.37  4425.75
                             4433.36  4448.44  4466.01  4475.65  4513.28
                             4522.81  4527.29  4537.15  4539.39  4547.82
                             4554.12  4684.28  5322.46

 Zero-point correction=                           0.283269 (Hartree/Particle)
 Thermal correction to Energy=                    0.299175
 Thermal correction to Enthalpy=                  0.300119
 Thermal correction to Gibbs Free Energy=         0.240696
 Sum of electronic and zero-point Energies=           -730.685721
 Sum of electronic and thermal Energies=              -730.669815
 Sum of electronic and thermal Enthalpies=            -730.668871
 Sum of electronic and thermal Free Energies=         -730.728294

                     E (Thermal)             CV                S
                      KCal/Mol        Cal/Mol-Kelvin    Cal/Mol-Kelvin
 Total                  187.735             61.050            125.067
 Electronic               0.000              0.000              0.000
 Translational            0.889              2.981             41.987
 Rotational               0.889              2.981             32.144
 Vibrational            185.958             55.088             50.936
 Vibration     1          0.594              1.984              5.804
 Vibration     2          0.598              1.967              4.101
 Vibration     3          0.599              1.967              4.062
 Vibration     4          0.605              1.946              3.387
 Vibration     5          0.609              1.933              3.107
 Vibration     6          0.618              1.902              2.664
 Vibration     7          0.628              1.872              2.371
 Vibration     8          0.641              1.830              2.069
 Vibration     9          0.649              1.806              1.933
 Vibration    10          0.651              1.797              1.890
 Vibration    11          0.659              1.775              1.784
 Vibration    12          0.677              1.720              1.566
 Vibration    13          0.690              1.682              1.443
 Vibration    14          0.699              1.656              1.365
 Vibration    15          0.721              1.591              1.201
 Vibration    16          0.736              1.551              1.114
 Vibration    17          0.750              1.514              1.041
 Vibration    18          0.756              1.497              1.010
 Vibration    19          0.766              1.470              0.962
 Vibration    20          0.781              1.430              0.898
 Vibration    21          0.830              1.310              0.729
 Vibration    22          0.847              1.268              0.679
 Vibration    23          0.865              1.227              0.633
 Vibration    24          0.874              1.209              0.613
 Vibration    25          0.905              1.141              0.546
 Vibration    26          0.917              1.116              0.522

 Optimization completed.
    -- Stationary point found.
 Normal termination of Gaussian 16 at Thu Dec 10 16:50:51 2020.

 ----------------------------------------------------------------------
 # B3LYP/6-311++G(d,p) empiricaldispersion=gd3bj scf=xqc pop=npa geom=c
 heck
 ----------------------------------------------------------------------

 --------------------------------------
 CID_71500130_JID_5668_Energie_neutraal
 --------------------------------------
 Structure from the checkpoint file:  "JID_5668.chk"
 Charge =  0 Multiplicity = 1

 SCF Done:  E(RB3LYP) =  -731.187057418     A.U. after   15 cycles
 Normal termination of Gaussian 16 at Thu Dec 10 16:57:50 2020.

 ----------------------------------------------------------------------
 # B3LYP/6-311++G(d,p) empiricaldispersion=gd3bj scf=xqc pop=npa geom=c
 heck
 ----------------------------------------------------------------------

 ------------------------------------
 CID_71500130_JID_5668_Energie_kation
 ------------------------------------
 Structure from the checkpoint file:  "JID_5668.chk"
 Charge =  1 Multiplicity = 2

 SCF Done:  E(UB3LYP) =  -730.851718913     A.U. after   27 cycles
 Normal termination of Gaussian 16 at Thu Dec 10 17:13:54 2020.
 Gaussian 16:  ES64L-G16RevA.03 25-Dec-2016

 ----------------------------------------------------------------------
 # B3LYP/6-311++G(d,p) empiricaldispersion=gd3bj scf=xqc pop=npa geom=c
 heck
 ----------------------------------------------------------------------

 -----------------------------------
 CID_71500130_JID_5668_Energie_anion
 -----------------------------------
 Structure from the checkpoint file:  "JID_5668.chk"
 Charge = -1 Multiplicity = 2

                         Standard orientation:
 ---------------------------------------------------------------------
 Center     Atomic      Atomic             Coordinates (Angstroms)
 Number     Number       Type             X           Y           Z
 ---------------------------------------------------------------------
      1          6           0       -2.582947    1.696207   -0.531130
      2          6           0       -2.455466    0.442672    0.344180
      3          6           0       -3.685569    0.276565    1.245179
      4          6           0       -2.237123   -0.836223   -0.486858
      5          6           0       -1.056638   -0.775107   -1.492948
      6          6           0        0.264623   -0.552650   -0.824862
      7          6           0        1.013722   -1.519775   -0.245213
      8          6           0        2.364778   -1.230665    0.220235
      9          8           0        3.177397   -2.040438    0.597156
     10          8           0        2.742870    0.098124    0.104013
     11          6           0        1.727254    1.093122    0.093470
     12          8           0        0.653074    0.741405   -0.818913
     13          6           0        2.351797    2.353039   -0.471039
     14          6           0        1.149434    1.277889    1.493730
     15          8           0       -2.102366   -1.984573    0.344265
     16          1           0       -3.376599    1.571632   -1.279317
     17          1           0       -1.650955    1.929103   -1.052637
     18          1           0       -2.848054    2.563388    0.083825
     19          1           0       -1.574147    0.566081    0.990567
     20          1           0       -4.598893    0.205417    0.640558
     21          1           0       -3.611866   -0.631876    1.847919
     22          1           0       -3.795617    1.136524    1.915006
     23          1           0       -3.143120   -1.024404   -1.075607
     24          1           0       -1.035178   -1.733837   -2.018090
     25          1           0       -1.221415    0.016254   -2.229069
     26          1           0        0.702468   -2.555466   -0.274215
     27          1           0        1.602610    3.146916   -0.532665
     28          1           0        3.170443    2.679339    0.175044
     29          1           0        2.745051    2.149367   -1.469764
     30          1           0        1.955106    1.547566    2.181530
     31          1           0        0.398710    2.072613    1.490160
     32          1           0        0.687433    0.354296    1.851220
     33          1           0       -1.296967   -1.859508    0.874900
 ---------------------------------------------------------------------

 SCF Done:  E(UB3LYP) =  -731.186381609     A.U. after   33 cycles
 SCF Done:  E(UB3LYP) =  -731.186381609     a.u. after    1 cycles

 The electronic state is 2-A.
 Alpha  occ. eigenvalues --  -19.03986 -19.02860 -19.01153 -18.95285 -10.18639
 Alpha  occ. eigenvalues --  -10.14419 -10.11096 -10.09834 -10.07066 -10.06934
 Alpha  occ. eigenvalues --  -10.06861 -10.05754 -10.05453 -10.05313 -10.02850
 Alpha  occ. eigenvalues --   -0.99115  -0.93713  -0.91610  -0.87800  -0.71082
 Alpha  occ. eigenvalues --   -0.69668  -0.65337  -0.61837  -0.60594  -0.58033
 Alpha  occ. eigenvalues --   -0.54782  -0.51975  -0.49807  -0.46921  -0.42047
 Alpha  occ. eigenvalues --   -0.39334  -0.38313  -0.38146  -0.36734  -0.35049
 Alpha  occ. eigenvalues --   -0.34305  -0.33022  -0.32383  -0.31284  -0.31215
 Alpha  occ. eigenvalues --   -0.30025  -0.29083  -0.28571  -0.28204  -0.27819
 Alpha  occ. eigenvalues --   -0.27593  -0.27342  -0.26789  -0.25604  -0.24067
 Alpha  occ. eigenvalues --   -0.23691  -0.23076  -0.21395  -0.20381  -0.17674
 Alpha  occ. eigenvalues --   -0.16699  -0.13566  -0.12050   0.04596
 Alpha virt. eigenvalues --    0.06633   0.07694   0.08104   0.08881   0.09748
 Alpha virt. eigenvalues --    0.10110   0.10886   0.11058   0.11482   0.12202
 Alpha virt. eigenvalues --    0.12514   0.13410   0.13849   0.14082   0.14251

  Beta  occ. eigenvalues --  -19.03883 -19.02825 -19.01156 -18.95020 -10.18624
  Beta  occ. eigenvalues --  -10.14221 -10.11029 -10.09328 -10.07060 -10.06928
  Beta  occ. eigenvalues --  -10.06860 -10.05788 -10.05437 -10.05287 -10.02858
  Beta  occ. eigenvalues --   -0.98906  -0.93409  -0.91606  -0.87426  -0.70822
  Beta  occ. eigenvalues --   -0.69596  -0.65093  -0.61688  -0.60513  -0.57984
  Beta  occ. eigenvalues --   -0.54498  -0.51868  -0.49563  -0.46846  -0.41660
  Beta  occ. eigenvalues --   -0.39142  -0.38194  -0.38097  -0.36463  -0.34878
  Beta  occ. eigenvalues --   -0.34168  -0.32887  -0.32220  -0.31154  -0.31123
  Beta  occ. eigenvalues --   -0.29914  -0.28945  -0.28338  -0.28025  -0.27519
  Beta  occ. eigenvalues --   -0.27457  -0.27119  -0.26366  -0.25439  -0.23831
  Beta  occ. eigenvalues --   -0.23591  -0.23001  -0.21180  -0.20132  -0.17070
  Beta  occ. eigenvalues --   -0.16612  -0.13321  -0.10901
  Beta virt. eigenvalues --    0.06773   0.07834   0.08366   0.09050   0.09734
  Beta virt. eigenvalues --    0.10155   0.10493   0.11183   0.11367   0.11677
  Beta virt. eigenvalues --    0.12275   0.12553   0.13515   0.13859   0.14197

 Mulliken charges and spin densities:
               1          2
     1  C    0.564813  -1.329518
     2  C   -0.979337   1.285721
     3  C   -0.065905  -0.332652
     4  C    0.717001  -1.073956
     5  C   -0.420783  -0.272682
     6  C    0.171804   0.574175
     7  C   -0.041070  -0.148063
     8  C    0.022716   0.118288
     9  O   -0.388359   0.084705
    10  O   -0.014827   0.001136
    11  C   -0.842756   0.125182
    12  O    0.029547   0.028778
    13  C   -0.146332  -0.198857
    14  C   -0.166042  -0.078509
    15  O   -0.224462   0.013028
    16  H   -0.151965   0.307790
    17  H    0.080974   0.074537
    18  H   -0.135872   0.257765
    19  H    0.293404  -0.115028
    20  H    0.015816   0.108803
    21  H    0.081424   0.066449
    22  H   -0.097589   0.223446
    23  H   -0.305485   0.524217
    24  H   -0.009895   0.217095
    25  H   -0.121286   0.280638
    26  H    0.185041   0.010833
    27  H    0.035857   0.107612
    28  H    0.119586   0.028871
    29  H    0.132837   0.045474
    30  H    0.155595   0.016785
    31  H    0.122995   0.045784
    32  H    0.155330   0.008363
    33  H    0.227226  -0.006213
 Sum of Mulliken charges =  -1.00000   1.00000

 Dipole moment (field-independent basis, Debye):
    X=              0.1398    Y=              3.6880    Z=              1.7554  Tot=              4.0868
 Quadrupole moment (field-independent basis, Debye-Ang):
   XX=           -158.8187   YY=           -126.1362   ZZ=           -112.6362
   XY=             14.3431   XZ=             -7.0388   YZ=              2.4657

 Summary of Natural Population Analysis:

                                       Natural Population
                Natural  -----------------------------------------------
    Atom  No    Charge         Core      Valence    Rydberg      Total
 -----------------------------------------------------------------------
      C    1   -0.28764      0.99964     2.28202    0.00597     3.28764
      C    2   -0.12975      0.99959     2.12052    0.00964     3.12975
      C    3   -0.28410      0.99965     2.27840    0.00604     3.28410
      C    4    0.07967      0.99953     1.90496    0.01584     2.92033
      C    5   -0.22997      0.99957     2.22003    0.01036     3.22997
      C    6    0.28344      0.99941     1.70221    0.01493     2.71656
      C    7   -0.25378      0.99943     2.24411    0.01025     3.25378
      C    8    0.41020      0.99961     1.56540    0.02478     2.58980
      O    9   -0.28482      0.99987     3.27890    0.00604     4.28482
      O   10   -0.30458      0.99984     3.29578    0.00895     4.30458
      C   11    0.29385      0.99956     1.68722    0.01938     2.70615
      O   12   -0.28412      0.99984     3.27332    0.01095     4.28412
      C   13   -0.29178      0.99959     2.28608    0.00611     3.29178
      C   14   -0.30951      0.99959     2.30358    0.00634     3.30951
      O   15   -0.37683      0.99990     3.37030    0.00663     4.37683
      H   16    0.09696      0.00000     0.40190    0.00114     0.40304
      H   17    0.10726      0.00000     0.39135    0.00139     0.39274
      H   18    0.09664      0.00000     0.40241    0.00095     0.40336
      H   19    0.09445      0.00000     0.40324    0.00231     0.40555
      H   20    0.09592      0.00000     0.40327    0.00081     0.40408
      H   21    0.10475      0.00000     0.39433    0.00092     0.39525
      H   22    0.09491      0.00000     0.40437    0.00072     0.40509
      H   23    0.08620      0.00000     0.41160    0.00219     0.41380
      H   24    0.11121      0.00000     0.38771    0.00108     0.38879
      H   25    0.11186      0.00000     0.38668    0.00146     0.38814
      H   26    0.11104      0.00000     0.38796    0.00100     0.38896
      H   27    0.10290      0.00000     0.39622    0.00088     0.39710
      H   28    0.10181      0.00000     0.39734    0.00085     0.39819
      H   29    0.10859      0.00000     0.39037    0.00105     0.39141
      H   30    0.10311      0.00000     0.39609    0.00081     0.39689
      H   31    0.10283      0.00000     0.39633    0.00084     0.39717
      H   32    0.10916      0.00000     0.38990    0.00094     0.39084
      H   33    0.23012      0.00000     0.26695    0.00293     0.26988
 =======================================================================
   * Total *   -0.00000     14.99463    42.82089    0.18449    58.00000

 Normal termination of Gaussian 16 at Thu Dec 10 17:33:16 2020.
