 Gaussian 16, Revision A.03,

 -----------------------------------------------------------
 # opt freq B3LYP/6-31G(d) empiricaldispersion=gd3bj scf=xqc
 -----------------------------------------------------------

 -------------------------------
 CID_121451774_JID_9178_neutraal
 -------------------------------
 Symbolic Z-matrix:
 Charge =  0 Multiplicity = 1

 SCF Done:  E(RB3LYP) =  -842.419321413     A.U. after   15 cycles
 SCF Done:  E(RB3LYP) =  -842.431501425     A.U. after   12 cycles
 SCF Done:  E(RB3LYP) =  -842.432499792     A.U. after   12 cycles
 SCF Done:  E(RB3LYP) =  -842.432849946     A.U. after   12 cycles
 SCF Done:  E(RB3LYP) =  -842.433045597     A.U. after   11 cycles
 SCF Done:  E(RB3LYP) =  -842.433218134     A.U. after   12 cycles
 SCF Done:  E(RB3LYP) =  -842.433329987     A.U. after   11 cycles
 SCF Done:  E(RB3LYP) =  -842.433390887     A.U. after   11 cycles
 SCF Done:  E(RB3LYP) =  -842.433447904     A.U. after   11 cycles
 SCF Done:  E(RB3LYP) =  -842.433478183     A.U. after   11 cycles
 SCF Done:  E(RB3LYP) =  -842.433540777     A.U. after    7 cycles
 SCF Done:  E(RB3LYP) =  -842.433540807     A.U. after    7 cycles
 SCF Done:  E(RB3LYP) =  -842.433540858     A.U. after    8 cycles
 SCF Done:  E(RB3LYP) =  -842.433540873     A.U. after    6 cycles
 Optimization completed.
    -- Stationary point found.
 Normal termination of Gaussian 16 at Sat Dec 12 09:57:29 2020.

 --------------------------------------------------------------------
 #N Geom=AllCheck Guess=TCheck SCRF=Check GenChk RB3LYP/6-31G(d) Freq
 --------------------------------------------------------------------

 Structure from the checkpoint file:  "JID_9178.chk"
 -------------------------------
 CID_121451774_JID_9178_neutraal
 -------------------------------
 Charge =  0 Multiplicity = 1

 SCF Done:  E(RB3LYP) =  -842.433540873     A.U. after    1 cycles

  Exact polarizability: 231.365 -12.060 157.549  17.563  13.358 130.402
 Approx polarizability: 275.308 -15.395 261.077  27.511  29.893 217.136

                      1                      2                      3
                      A                      A                      A
 Frequencies --     19.8871                25.7650                30.8956
 Red. masses --      4.6395                 4.0872                 1.0696
 Frc consts  --      0.0011                 0.0016                 0.0006
 IR Inten    --      1.6482                 1.1139                 0.4643

                      4                      5                      6
                      A                      A                      A
 Frequencies --     45.0760                54.6214                76.0476
 Red. masses --      3.3179                 4.1891                 1.0830
 Frc consts  --      0.0040                 0.0074                 0.0037
 IR Inten    --      1.8160                 1.3552                 0.5351

                      7                      8                      9
                      A                      A                      A
 Frequencies --     85.6877               111.7690               125.7887
 Red. masses --      4.6116                 4.2221                 4.1777
 Frc consts  --      0.0199                 0.0311                 0.0389
 IR Inten    --      2.7025                 2.1913                 2.4571

                     10                     11                     12
                      A                      A                      A
 Frequencies --    143.8045               151.3067               180.0915
 Red. masses --      3.8999                 3.6665                 3.6845
 Frc consts  --      0.0475                 0.0495                 0.0704
 IR Inten    --      3.7636                13.3095                 0.0317

                     13                     14                     15
                      A                      A                      A
 Frequencies --    223.2992               267.2869               282.2111
 Red. masses --      4.0344                 4.8714                 3.3246
 Frc consts  --      0.1185                 0.2051                 0.1560
 IR Inten    --      8.1531                 5.3492                 2.5406

                     16                     17                     18
                      A                      A                      A
 Frequencies --    293.5066               336.7704               354.1927
 Red. masses --      2.2830                 5.0731                 3.0782
 Frc consts  --      0.1159                 0.3390                 0.2275
 IR Inten    --      1.2187                 0.5094                 5.0940

                     19                     20                     21
                      A                      A                      A
 Frequencies --    380.2890               404.7536               421.6367
 Red. masses --      2.3609                 2.4531                 3.0121
 Frc consts  --      0.2012                 0.2368                 0.3155
 IR Inten    --      4.3263                 0.8064                 0.0280

                     22                     23                     24
                      A                      A                      A
 Frequencies --    428.5156               484.5641               532.4849
 Red. masses --      4.0240                 3.1060                 3.6470
 Frc consts  --      0.4354                 0.4297                 0.6093
 IR Inten    --      9.5263                 5.2327                 8.5494

                     25                     26                     27
                      A                      A                      A
 Frequencies --    583.9449               594.3825               600.5166
 Red. masses --      3.8453                 3.4360                 4.5478
 Frc consts  --      0.7725                 0.7152                 0.9663
 IR Inten    --      9.9157                 7.8703                 0.9394

                     28                     29                     30
                      A                      A                      A
 Frequencies --    650.7447               663.4488               703.1360
 Red. masses --      5.9501                 4.8247                 3.5965
 Frc consts  --      1.4846                 1.2512                 1.0476
 IR Inten    --      3.6905                 1.0932                 3.0738

                     31                     32                     33
                      A                      A                      A
 Frequencies --    710.4539               763.3168               812.6724
 Red. masses --      4.5166                 2.9385                 4.5296
 Frc consts  --      1.3432                 1.0088                 1.7626
 IR Inten    --      9.1204                25.1079                 8.6054

                     34                     35                     36
                      A                      A                      A
 Frequencies --    848.9887               864.9736               879.3514
 Red. masses --      1.6599                 1.3405                 2.9511
 Frc consts  --      0.7049                 0.5909                 1.3445
 IR Inten    --     15.1894                 2.6210                 5.9949

                     37                     38                     39
                      A                      A                      A
 Frequencies --    891.5382               894.0740               912.6135
 Red. masses --      2.0861                 2.4731                 2.2392
 Frc consts  --      0.9769                 1.1648                 1.0988
 IR Inten    --      3.8683                 4.0391                 1.1892

                     40                     41                     42
                      A                      A                      A
 Frequencies --    920.9689               967.5236               976.0064
 Red. masses --      1.7554                 1.4078                 2.4591
 Frc consts  --      0.8772                 0.7765                 1.3802
 IR Inten    --      0.0540                 6.2560                20.2011

                     43                     44                     45
                      A                      A                      A
 Frequencies --    983.5857               988.3210              1018.3177
 Red. masses --      1.9056                 1.6940                 1.4892
 Frc consts  --      1.0862                 0.9749                 0.9099
 IR Inten    --      5.6599                 5.5702                 1.3819

                     46                     47                     48
                      A                      A                      A
 Frequencies --   1022.6235              1045.1354              1063.1482
 Red. masses --      1.4184                 2.7729                 1.7363
 Frc consts  --      0.8739                 1.7845                 1.1563
 IR Inten    --      1.4641                 3.7925                 6.2490

                     49                     50                     51
                      A                      A                      A
 Frequencies --   1075.5024              1097.4880              1143.0984
 Red. masses --      1.5367                 2.2065                 1.1621
 Frc consts  --      1.0473                 1.5659                 0.8947
 IR Inten    --     11.0574                 1.4948                 1.4648

                     52                     53                     54
                      A                      A                      A
 Frequencies --   1147.3412              1147.9998              1150.8080
 Red. masses --      1.6003                 1.1107                 1.3813
 Frc consts  --      1.2412                 0.8625                 1.0778
 IR Inten    --      7.3178                 2.0218                 4.5396

                     55                     56                     57
                      A                      A                      A
 Frequencies --   1156.9469              1175.5383              1184.1890
 Red. masses --      1.8065                 2.9110                 2.9406
 Frc consts  --      1.4247                 2.3701                 2.4295
 IR Inten    --      1.2842                10.4503                 6.1714

                     58                     59                     60
                      A                      A                      A
 Frequencies --   1210.7961              1217.5279              1238.3433
 Red. masses --      2.5424                 1.2677                 2.1665
 Frc consts  --      2.1960                 1.1072                 1.9574
 IR Inten    --     25.6769                35.0724                 0.5724

                     61                     62                     63
                      A                      A                      A
 Frequencies --   1243.7852              1245.0964              1254.5490
 Red. masses --      2.2076                 3.4241                 2.5564
 Frc consts  --      2.0122                 3.1276                 2.3705
 IR Inten    --      2.8731                 7.8213                18.6881

                     64                     65                     66
                      A                      A                      A
 Frequencies --   1301.8399              1303.3294              1346.8723
 Red. masses --      1.4082                 1.4933                 1.3901
 Frc consts  --      1.4061                 1.4946                 1.4858
 IR Inten    --      2.9594                 0.2600                 4.6418

                     67                     68                     69
                      A                      A                      A
 Frequencies --   1350.6096              1357.7210              1367.0126
 Red. masses --      1.4399                 6.0598                 2.5115
 Frc consts  --      1.5476                 6.5815                 2.7652
 IR Inten    --      3.4932                37.8198               208.5189

                     70                     71                     72
                      A                      A                      A
 Frequencies --   1406.7385              1413.3731              1442.5833
 Red. masses --      1.6137                 3.7986                 1.2508
 Frc consts  --      1.8815                 4.4708                 1.5336
 IR Inten    --     42.6444               382.3214                 0.1188

                     73                     74                     75
                      A                      A                      A
 Frequencies --   1455.9756              1456.6928              1501.5998
 Red. masses --      4.1130                 2.8962                 1.1057
 Frc consts  --      5.1371                 3.6209                 1.4689
 IR Inten    --    283.4480               167.1579                 8.1711

                     76                     77                     78
                      A                      A                      A
 Frequencies --   1511.9419              1516.8096              1521.4470
 Red. masses --      1.0666                 1.0537                 1.1021
 Frc consts  --      1.4366                 1.4284                 1.5030
 IR Inten    --     18.5223                 6.8936                 9.9573

                     79                     80                     81
                      A                      A                      A
 Frequencies --   1528.4207              1529.2280              1544.1340
 Red. masses --      1.0789                 1.0791                 1.1144
 Frc consts  --      1.4849                 1.4869                 1.5655
 IR Inten    --      0.3148                 0.1468                13.5626

                     82                     83                     84
                      A                      A                      A
 Frequencies --   1551.4274              1563.6457              1628.3360
 Red. masses --      1.1176                 2.5000                 5.8481
 Frc consts  --      1.5849                 3.6013                 9.1359
 IR Inten    --      2.7616                 1.7320                 6.3584

                     85                     86                     87
                      A                      A                      A
 Frequencies --   1674.6419              1745.6347              1780.8809
 Red. masses --      5.8090                12.0278                10.3000
 Frc consts  --      9.5984                21.5946                19.2468
 IR Inten    --     37.8888               254.8511               327.8428

                     88                     89                     90
                      A                      A                      A
 Frequencies --   3027.6529              3044.2913              3048.3721
 Red. masses --      1.0571                 1.0402                 1.0551
 Frc consts  --      5.7094                 5.6800                 5.7768
 IR Inten    --     46.8494                28.4121                38.8229

                     91                     92                     93
                      A                      A                      A
 Frequencies --   3053.5169              3054.0655              3062.0663
 Red. masses --      1.0576                 1.0405                 1.0577
 Frc consts  --      5.8100                 5.7181                 5.8431
 IR Inten    --     26.7176                 6.1438                16.1527

                     94                     95                     96
                      A                      A                      A
 Frequencies --   3075.4014              3095.7095              3099.5389
 Red. masses --      1.1077                 1.1109                 1.1103
 Frc consts  --      6.1727                 6.2724                 6.2849
 IR Inten    --     33.2611                29.5440                21.0217

                     97                     98                     99
                      A                      A                      A
 Frequencies --   3101.6167              3107.5407              3115.4972
 Red. masses --      1.0961                 1.1106                 1.0984
 Frc consts  --      6.2128                 6.3189                 6.2818
 IR Inten    --     19.8824                19.6387                13.4360

                    100                    101                    102
                      A                      A                      A
 Frequencies --   3129.7830              3175.7932              3183.2822
 Red. masses --      1.1026                 1.1007                 1.0888
 Frc consts  --      6.3636                 6.5410                 6.5006
 IR Inten    --     14.9899                 8.7841                15.9005

                    103                    104                    105
                      A                      A                      A
 Frequencies --   3184.2028              3215.4432              3224.1008
 Red. masses --      1.0893                 1.0920                 1.0924
 Frc consts  --      6.5073                 6.6519                 6.6905
 IR Inten    --     19.2539                13.8013                 3.0257

 - Thermochemistry -
 -------------------
 Temperature   298.150 Kelvin.  Pressure   1.00000 Atm.
 Atom     1 has atomic number  6 and mass  12.00000

 Molecular mass:   258.13683 amu.
 Principal axes and moments of inertia in atomic units:
                           1         2         3
     Eigenvalues --  1958.75233********************
           X            0.99992  -0.00865   0.00954
           Y            0.00831   0.99938   0.03435
           Z           -0.00983  -0.03427   0.99936
 This molecule is an asymmetric top.
 Rotational symmetry number  1.
 Warning -- assumption of classical behavior for rotation
           may cause significant error
 Rotational temperatures (Kelvin)      0.04422     0.00676     0.00632
 Rotational constants (GHZ):           0.92137     0.14095     0.13168
 Zero-point vibrational energy     809320.5 (Joules/Mol)
                                  193.43224 (Kcal/Mol)
 Warning -- explicit consideration of  27 degrees of freedom as
           vibrations may cause significant error
 Vibrational temperatures:     28.61    37.07    44.45    64.85    78.59
          (Kelvin)            109.42   123.29   160.81   180.98   206.90
                              217.70   259.11   321.28   384.57   406.04
                              422.29   484.54   509.60   547.15   582.35
                              606.64   616.54   697.18   766.13   840.17
                              855.18   864.01   936.28   954.55  1011.66
                             1022.18  1098.24  1169.25  1221.51  1244.50
                             1265.19  1282.72  1286.37  1313.05  1325.07
                             1392.05  1404.26  1415.16  1421.97  1465.13
                             1471.33  1503.72  1529.63  1547.41  1579.04
                             1644.66  1650.77  1651.72  1655.76  1664.59
                             1691.34  1703.78  1742.07  1751.75  1781.70
                             1789.53  1791.42  1805.02  1873.06  1875.20
                             1937.85  1943.23  1953.46  1966.83  2023.98
                             2033.53  2075.56  2094.82  2095.86  2160.47
                             2175.35  2182.35  2189.02  2199.06  2200.22
                             2221.66  2232.16  2249.74  2342.81  2409.44
                             2511.58  2562.29  4356.12  4380.06  4385.93
                             4393.33  4394.12  4405.63  4424.82  4454.04
                             4459.55  4462.53  4471.06  4482.51  4503.06
                             4569.26  4580.03  4581.36  4626.31  4638.76

 Zero-point correction=                           0.308254 (Hartree/Particle)
 Thermal correction to Energy=                    0.326724
 Thermal correction to Enthalpy=                  0.327668
 Thermal correction to Gibbs Free Energy=         0.258053
 Sum of electronic and zero-point Energies=           -842.125287
 Sum of electronic and thermal Energies=              -842.106817
 Sum of electronic and thermal Enthalpies=            -842.105872
 Sum of electronic and thermal Free Energies=         -842.175488

                     E (Thermal)             CV                S
                      KCal/Mol        Cal/Mol-Kelvin    Cal/Mol-Kelvin
 Total                  205.023             67.569            146.519
 Electronic               0.000              0.000              0.000
 Translational            0.889              2.981             42.545
 Rotational               0.889              2.981             34.196
 Vibrational            203.245             61.607             69.778
 Vibration     1          0.593              1.986              6.645
 Vibration     2          0.593              1.985              6.131
 Vibration     3          0.594              1.984              5.771
 Vibration     4          0.595              1.979              5.023
 Vibration     5          0.596              1.976              4.643
 Vibration     6          0.599              1.965              3.990
 Vibration     7          0.601              1.959              3.756
 Vibration     8          0.607              1.940              3.238
 Vibration     9          0.611              1.927              3.009
 Vibration    10          0.616              1.909              2.753
 Vibration    11          0.619              1.901              2.656
 Vibration    12          0.629              1.867              2.327
 Vibration    13          0.649              1.806              1.932
 Vibration    14          0.672              1.733              1.614
 Vibration    15          0.681              1.707              1.520
 Vibration    16          0.688              1.686              1.454
 Vibration    17          0.717              1.602              1.227
 Vibration    18          0.730              1.567              1.147
 Vibration    19          0.750              1.512              1.038
 Vibration    20          0.770              1.460              0.945
 Vibration    21          0.784              1.423              0.886
 Vibration    22          0.790              1.408              0.864
 Vibration    23          0.841              1.284              0.698
 Vibration    24          0.887              1.178              0.582
 Vibration    25          0.941              1.066              0.478
 Vibration    26          0.952              1.044              0.459
 Vibration    27          0.959              1.031              0.449

 Optimization completed.
    -- Stationary point found.
 Normal termination of Gaussian 16 at Sat Dec 12 10:12:36 2020.

 ----------------------------------------------------------------------
 # B3LYP/6-311++G(d,p) empiricaldispersion=gd3bj scf=xqc pop=npa geom=c
 heck
 ----------------------------------------------------------------------

 ---------------------------------------
 CID_121451774_JID_9178_Energie_neutraal
 ---------------------------------------
 Structure from the checkpoint file:  "JID_9178.chk"
 Charge =  0 Multiplicity = 1

 SCF Done:  E(RB3LYP) =  -842.661496298     A.U. after   15 cycles
 Normal termination of Gaussian 16 at Sat Dec 12 10:18:27 2020.

 ----------------------------------------------------------------------
 # B3LYP/6-311++G(d,p) empiricaldispersion=gd3bj scf=xqc pop=npa geom=c
 heck
 ----------------------------------------------------------------------

 -------------------------------------
 CID_121451774_JID_9178_Energie_kation
 -------------------------------------
 Structure from the checkpoint file:  "JID_9178.chk"
 Charge =  1 Multiplicity = 2

 SCF Done:  E(UB3LYP) =  -842.354857779     A.U. after   33 cycles
 SCF Done:  E(UB3LYP) =  -842.354857780     a.u. after    2 cycles
 Normal termination of Gaussian 16 at Sat Dec 12 10:51:09 2020.
 Gaussian 16:  ES64L-G16RevA.03 25-Dec-2016

 ----------------------------------------------------------------------
 # B3LYP/6-311++G(d,p) empiricaldispersion=gd3bj scf=xqc pop=npa geom=c
 heck
 ----------------------------------------------------------------------

 ------------------------------------
 CID_121451774_JID_9178_Energie_anion
 ------------------------------------
 Structure from the checkpoint file:  "JID_9178.chk"
 Charge = -1 Multiplicity = 2

                         Standard orientation:
 ---------------------------------------------------------------------
 Center     Atomic      Atomic             Coordinates (Angstroms)
 Number     Number       Type             X           Y           Z
 ---------------------------------------------------------------------
      1          6           0        5.953993   -2.015671    0.298321
      2          6           0        4.766034   -1.100946    0.134262
      3          6           0        4.675796    0.094163    0.863057
      4          6           0        3.574144    0.930900    0.733175
      5          6           0        2.518691    0.586206   -0.121175
      6          6           0        2.607160   -0.596621   -0.863829
      7          6           0        3.720296   -1.425021   -0.737685
      8          6           0        1.368019    1.532924   -0.224364
      9          8           0        1.478937    2.732222    0.015611
     10          7           0        0.157551    1.005311   -0.613411
     11          6           0       -1.097710    1.750640   -0.433045
     12          6           0       -1.827831    0.414705   -0.161325
     13          6           0       -0.455925   -0.290692   -0.249223
     14          6           0       -2.757969    0.238908    1.065274
     15          7           0       -3.850977   -0.079639    0.145516
     16          6           0       -3.010829   -0.034893   -1.057441
     17          6           0       -4.983911   -0.779503    0.447849
     18          8           0       -5.313418   -0.983879    1.609363
     19          6           0       -5.779088   -1.264828   -0.752353
     20          1           0        6.884863   -1.447261    0.398366
     21          1           0        5.853598   -2.633443    1.200363
     22          1           0        6.058326   -2.693949   -0.554176
     23          1           0        5.485108    0.371193    1.534266
     24          1           0        3.511500    1.865681    1.280192
     25          1           0        1.824336   -0.854801   -1.569258
     26          1           0        3.782719   -2.333613   -1.331349
     27          1           0       -1.054345    2.440909    0.416818
     28          1           0       -1.419174    2.301943   -1.323515
     29          1           0       -0.377885   -1.061095   -1.024348
     30          1           0       -0.087103   -0.701479    0.698069
     31          1           0       -2.501374   -0.593083    1.732613
     32          1           0       -2.926843    1.138189    1.667784
     33          1           0       -3.335174    0.693173   -1.811156
     34          1           0       -2.868110   -1.010493   -1.542065
     35          1           0       -5.867298   -0.491312   -1.522637
     36          1           0       -5.286462   -2.133249   -1.207710
     37          1           0       -6.772060   -1.565399   -0.415771
 ---------------------------------------------------------------------

 SCF Done:  E(UB3LYP) =  -842.662789377     A.U. after   33 cycles
 SCF Done:  E(UB3LYP) =  -842.662789377     a.u. after    1 cycles

 The electronic state is 2-A.
 Alpha  occ. eigenvalues --  -18.99880 -18.96319 -14.24893 -14.22297 -10.18239
 Alpha  occ. eigenvalues --  -10.14035 -10.12494 -10.12059 -10.11426 -10.10973
 Alpha  occ. eigenvalues --  -10.10762 -10.08654 -10.07651 -10.06680 -10.06384
 Alpha  occ. eigenvalues --  -10.06115 -10.06066 -10.05990 -10.05659  -0.95031
 Alpha  occ. eigenvalues --   -0.91915  -0.87361  -0.84185  -0.74978  -0.70155
 Alpha  occ. eigenvalues --   -0.67486  -0.65028  -0.63664  -0.61518  -0.60624
 Alpha  occ. eigenvalues --   -0.60089  -0.58080  -0.49995  -0.49408  -0.46329
 Alpha  occ. eigenvalues --   -0.45300  -0.44656  -0.42263  -0.40969  -0.40019
 Alpha  occ. eigenvalues --   -0.39278  -0.36426  -0.36018  -0.35696  -0.34966
 Alpha  occ. eigenvalues --   -0.33688  -0.33286  -0.32967  -0.32721  -0.31618
 Alpha  occ. eigenvalues --   -0.31306  -0.30310  -0.30302  -0.29205  -0.28620
 Alpha  occ. eigenvalues --   -0.27900  -0.27146  -0.26674  -0.24832  -0.24322
 Alpha  occ. eigenvalues --   -0.23860  -0.23434  -0.22967  -0.17015  -0.15929
 Alpha  occ. eigenvalues --   -0.15016  -0.14952  -0.13876  -0.13352   0.03707
 Alpha virt. eigenvalues --    0.05160   0.06577   0.07431   0.07683   0.08226
 Alpha virt. eigenvalues --    0.08722   0.09127   0.09285   0.09476   0.09924
 Alpha virt. eigenvalues --    0.10360   0.10840   0.10982   0.11136   0.12203

  Beta  occ. eigenvalues --  -18.99873 -18.96123 -14.24892 -14.22274 -10.18237
  Beta  occ. eigenvalues --  -10.13897 -10.12456 -10.12049 -10.11399 -10.10975
  Beta  occ. eigenvalues --  -10.10758 -10.08619 -10.07671 -10.06461 -10.06406
  Beta  occ. eigenvalues --  -10.06121 -10.05942 -10.05939 -10.05536  -0.95020
  Beta  occ. eigenvalues --   -0.91613  -0.87332  -0.84074  -0.74729  -0.70094
  Beta  occ. eigenvalues --   -0.67195  -0.64950  -0.63494  -0.61429  -0.60540
  Beta  occ. eigenvalues --   -0.60029  -0.57989  -0.49858  -0.49083  -0.46250
  Beta  occ. eigenvalues --   -0.45192  -0.44580  -0.42184  -0.40917  -0.39955
  Beta  occ. eigenvalues --   -0.39212  -0.36303  -0.35921  -0.35553  -0.34901
  Beta  occ. eigenvalues --   -0.33650  -0.33170  -0.32774  -0.32530  -0.31567
  Beta  occ. eigenvalues --   -0.31264  -0.30272  -0.30131  -0.29128  -0.28465
  Beta  occ. eigenvalues --   -0.27396  -0.27083  -0.26596  -0.24578  -0.24208
  Beta  occ. eigenvalues --   -0.23739  -0.23165  -0.22747  -0.16984  -0.15915
  Beta  occ. eigenvalues --   -0.14560  -0.14461  -0.13354  -0.12607
  Beta virt. eigenvalues --    0.05950   0.06490   0.07557   0.07709   0.08067
  Beta virt. eigenvalues --    0.08411   0.08772   0.09309   0.09362   0.09585
  Beta virt. eigenvalues --    0.10040   0.10427   0.10917   0.11062   0.11173

 Mulliken charges and spin densities:
               1          2
     1  C   -0.557468  -0.102069
     2  C    0.548781   0.112349
     3  C   -0.458134   0.083561
     4  C    0.023813   0.019034
     5  C    0.519672  -0.148447
     6  C   -0.292611   0.235958
     7  C   -0.477059  -0.011354
     8  C   -0.271353   0.045256
     9  O   -0.364363   0.068871
    10  N    0.120022   0.032051
    11  C    0.066928  -0.413178
    12  C   -0.857755   1.056814
    13  C   -0.812293   0.161586
    14  C   -0.050580  -0.236416
    15  N   -0.028729   0.159789
    16  C    1.241255  -1.646313
    17  C   -0.268239   0.479791
    18  O   -0.367163   0.000476
    19  C    0.605559  -1.138942
    20  H    0.100375   0.029869
    21  H    0.141455   0.010080
    22  H    0.109712   0.018660
    23  H    0.121262   0.004543
    24  H    0.169967   0.007008
    25  H   -0.032272   0.165773
    26  H    0.078586   0.057995
    27  H    0.180014   0.000515
    28  H    0.072820   0.109889
    29  H    0.050273   0.118345
    30  H    0.141783   0.012803
    31  H    0.102811   0.083841
    32  H    0.138275   0.052540
    33  H   -0.122978   0.321934
    34  H   -0.203954   0.368471
    35  H   -0.228451   0.387804
    36  H   -0.215504   0.384628
    37  H    0.075545   0.106485
 Sum of Mulliken charges =  -1.00000   1.00000

 Dipole moment (field-independent basis, Debye):
    X=              2.8404    Y=             -1.3160    Z=              0.9874  Tot=              3.2825
 Quadrupole moment (field-independent basis, Debye-Ang):
   XX=           -213.8775   YY=           -146.8143   ZZ=           -141.8148
   XY=            -17.3689   XZ=              4.9268   YZ=              1.6801

 Summary of Natural Population Analysis:

                                       Natural Population
                Natural  -----------------------------------------------
    Atom  No    Charge         Core      Valence    Rydberg      Total
 -----------------------------------------------------------------------
      C    1   -0.29284      0.99965     2.28886    0.00434     3.29284
      C    2    0.02422      0.99952     1.96796    0.00831     2.97578
      C    3   -0.11264      0.99953     2.10507    0.00804     3.11264
      C    4   -0.06632      0.99954     2.05859    0.00819     3.06632
      C    5   -0.05525      0.99946     2.04435    0.01143     3.05525
      C    6   -0.06777      0.99954     2.05799    0.01024     3.06777
      C    7   -0.12016      0.99953     2.11189    0.00874     3.12016
      C    8    0.35806      0.99959     1.62058    0.02178     2.64194
      O    9   -0.30629      0.99988     3.30145    0.00496     4.30629
      N   10   -0.26076      0.99965     2.75132    0.00978     3.76076
      C   11   -0.07069      0.99961     2.05975    0.01133     3.07069
      C   12   -0.05667      0.99954     2.04575    0.01138     3.05667
      C   13   -0.06798      0.99960     2.05875    0.00964     3.06798
      C   14   -0.06757      0.99961     2.05911    0.00886     3.06757
      N   15   -0.26034      0.99964     2.75014    0.01055     3.76034
      C   16   -0.06876      0.99960     2.05956    0.00960     3.06876
      C   17    0.34564      0.99965     1.63241    0.02230     2.65436
      O   18   -0.32286      0.99988     3.31713    0.00585     4.32286
      C   19   -0.33177      0.99963     2.32714    0.00500     3.33177
      H   20    0.09928      0.00000     0.39982    0.00090     0.40072
      H   21    0.10149      0.00000     0.39754    0.00097     0.39851
      H   22    0.09807      0.00000     0.40110    0.00083     0.40193
      H   23    0.09234      0.00000     0.40674    0.00093     0.40766
      H   24    0.10628      0.00000     0.39274    0.00098     0.39372
      H   25    0.09764      0.00000     0.40079    0.00157     0.40236
      H   26    0.09410      0.00000     0.40491    0.00099     0.40590
      H   27    0.10118      0.00000     0.39761    0.00121     0.39882
      H   28    0.09469      0.00000     0.40408    0.00123     0.40531
      H   29    0.09446      0.00000     0.40410    0.00143     0.40554
      H   30    0.09873      0.00000     0.40025    0.00102     0.40127
      H   31    0.09938      0.00000     0.39937    0.00125     0.40062
      H   32    0.09745      0.00000     0.40137    0.00118     0.40255
      H   33    0.09739      0.00000     0.40104    0.00157     0.40261
      H   34    0.09720      0.00000     0.40091    0.00188     0.40280
      H   35    0.10867      0.00000     0.38996    0.00137     0.39133
      H   36    0.11170      0.00000     0.38695    0.00134     0.38830
      H   37    0.11071      0.00000     0.38851    0.00078     0.38929
 =======================================================================
   * Total *    0.00000     18.99264    49.79561    0.21174    69.00000

 Normal termination of Gaussian 16 at Sat Dec 12 11:08:32 2020.
