 Gaussian 16, Revision A.03,

 -----------------------------------------------------------
 # opt freq B3LYP/6-31G(d) empiricaldispersion=gd3bj scf=xqc
 -----------------------------------------------------------

 -------------------------------
 CID_141417390_JID_5439_neutraal
 -------------------------------
 Symbolic Z-matrix:
 Charge =  0 Multiplicity = 1

 SCF Done:  E(RB3LYP) =  -671.555339622     A.U. after   15 cycles
 SCF Done:  E(RB3LYP) =  -671.565137536     A.U. after   13 cycles
 SCF Done:  E(RB3LYP) =  -671.566334865     A.U. after   12 cycles
 SCF Done:  E(RB3LYP) =  -671.566955466     A.U. after   13 cycles
 SCF Done:  E(RB3LYP) =  -671.567534612     A.U. after   13 cycles
 SCF Done:  E(RB3LYP) =  -671.567880876     A.U. after   13 cycles
 SCF Done:  E(RB3LYP) =  -671.567939796     A.U. after   11 cycles
 SCF Done:  E(RB3LYP) =  -671.567947187     A.U. after    9 cycles
 SCF Done:  E(RB3LYP) =  -671.567950188     A.U. after    8 cycles
 SCF Done:  E(RB3LYP) =  -671.567953698     A.U. after    9 cycles
 SCF Done:  E(RB3LYP) =  -671.567955556     A.U. after    9 cycles
 SCF Done:  E(RB3LYP) =  -671.567957305     A.U. after    8 cycles
 SCF Done:  E(RB3LYP) =  -671.567959271     A.U. after    9 cycles
 Optimization completed.
    -- Stationary point found.
 Normal termination of Gaussian 16 at Thu Dec 10 16:23:46 2020.

 --------------------------------------------------------------------
 #N Geom=AllCheck Guess=TCheck SCRF=Check GenChk RB3LYP/6-31G(d) Freq
 --------------------------------------------------------------------

 Structure from the checkpoint file:  "JID_5439.chk"
 -------------------------------
 CID_141417390_JID_5439_neutraal
 -------------------------------
 Charge =  0 Multiplicity = 1

 SCF Done:  E(RB3LYP) =  -671.567959271     A.U. after    1 cycles

  Exact polarizability: 138.199   2.043 138.977  -1.345  -0.869  99.151
 Approx polarizability: 189.168  10.473 263.130  -4.525  -4.594 146.243

                      1                      2                      3
                      A                      A                      A
 Frequencies --     72.1632                90.6837               124.7653
 Red. masses --      4.6973                 6.2518                13.5947
 Frc consts  --      0.0144                 0.0303                 0.1247
 IR Inten    --      0.2903                 0.0070                 0.1113

                      4                      5                      6
                      A                      A                      A
 Frequencies --    165.3286               167.1030               201.5109
 Red. masses --      1.7651                 1.6765                 1.4433
 Frc consts  --      0.0284                 0.0276                 0.0345
 IR Inten    --      0.0888                 0.2786                 0.0154

                      7                      8                      9
                      A                      A                      A
 Frequencies --    218.3790               237.2245               247.7844
 Red. masses --      1.4019                 1.3440                 1.7929
 Frc consts  --      0.0394                 0.0446                 0.0649
 IR Inten    --      0.1771                 0.0718                 0.4059

                     10                     11                     12
                      A                      A                      A
 Frequencies --    255.9775               290.6854               330.9084
 Red. masses --      3.7551                 3.8289                 1.7723
 Frc consts  --      0.1450                 0.1906                 0.1143
 IR Inten    --      0.8576                 2.1805                 0.1771

                     13                     14                     15
                      A                      A                      A
 Frequencies --    361.0707               402.7586               428.2813
 Red. masses --      3.8831                 2.8453                 3.1158
 Frc consts  --      0.2983                 0.2719                 0.3367
 IR Inten    --      4.1892                 2.1550                 0.1867

                     16                     17                     18
                      A                      A                      A
 Frequencies --    456.1422               484.8206               512.1513
 Red. masses --      3.9933                 1.1445                 3.6189
 Frc consts  --      0.4895                 0.1585                 0.5593
 IR Inten    --      9.1276               111.5514                 7.1099

                     19                     20                     21
                      A                      A                      A
 Frequencies --    526.3143               564.9735               584.5740
 Red. masses --      5.3579                 3.5265                 4.0066
 Frc consts  --      0.8745                 0.6632                 0.8067
 IR Inten    --      1.4431                 6.8416                 3.4688

                     22                     23                     24
                      A                      A                      A
 Frequencies --    639.1338               649.6479               681.5162
 Red. masses --      4.8675                11.1937                 3.7858
 Frc consts  --      1.1715                 2.7834                 1.0360
 IR Inten    --      0.5047                 2.5535                 3.9182

                     25                     26                     27
                      A                      A                      A
 Frequencies --    711.7366               729.0828               739.7188
 Red. masses --      2.6872                 4.8670                 9.0237
 Frc consts  --      0.8020                 1.5243                 2.9092
 IR Inten    --      7.8915                 0.2944                18.6811

                     28                     29                     30
                      A                      A                      A
 Frequencies --    811.8377               834.6920               859.0950
 Red. masses --      4.8282                 3.8164                 1.3774
 Frc consts  --      1.8749                 1.5666                 0.5990
 IR Inten    --      0.9542                 4.1486                 1.1186

                     31                     32                     33
                      A                      A                      A
 Frequencies --    866.5577               890.9249               953.7912
 Red. masses --      2.8664                 2.6009                 2.0723
 Frc consts  --      1.2682                 1.2163                 1.1107
 IR Inten    --      0.3174                 0.7745                 1.2339

                     34                     35                     36
                      A                      A                      A
 Frequencies --    962.7094               968.4499               980.5718
 Red. masses --      3.0886                 1.4009                 2.3300
 Frc consts  --      1.6866                 0.7741                 1.3199
 IR Inten    --      0.3903                 0.3041                 1.2464

                     37                     38                     39
                      A                      A                      A
 Frequencies --   1004.6150              1027.2714              1044.3647
 Red. masses --      3.2149                 1.3861                 1.5719
 Frc consts  --      1.9117                 0.8618                 1.0101
 IR Inten    --     57.8448                 2.9276                 4.6707

                     40                     41                     42
                      A                      A                      A
 Frequencies --   1115.4381              1129.4483              1147.4981
 Red. masses --      1.4336                 2.0646                 1.6862
 Frc consts  --      1.0510                 1.5518                 1.3082
 IR Inten    --      1.6743                 7.7136                27.2970

                     43                     44                     45
                      A                      A                      A
 Frequencies --   1161.2901              1180.8413              1213.9809
 Red. masses --      2.2335                 1.9070                 1.8121
 Frc consts  --      1.7746                 1.5667                 1.5735
 IR Inten    --      2.5855                 0.5100                 1.3685

                     46                     47                     48
                      A                      A                      A
 Frequencies --   1224.7942              1245.3242              1253.2485
 Red. masses --      2.4135                 1.7973                 1.6258
 Frc consts  --      2.1332                 1.6422                 1.5045
 IR Inten    --      1.3923                 2.5173                 2.6345

                     49                     50                     51
                      A                      A                      A
 Frequencies --   1260.4079              1309.2320              1323.1264
 Red. masses --      2.3497                 1.9280                 1.7458
 Frc consts  --      2.1993                 1.9471                 1.8007
 IR Inten    --      2.3541                12.9414                12.2327

                     52                     53                     54
                      A                      A                      A
 Frequencies --   1329.4286              1343.4766              1376.9201
 Red. masses --      2.4680                 1.7447                 3.8568
 Frc consts  --      2.5700                 1.8554                 4.3082
 IR Inten    --     83.2374                23.1582               111.6844

                     55                     56                     57
                      A                      A                      A
 Frequencies --   1393.2124              1432.9804              1443.6636
 Red. masses --      4.6451                 1.2474                 1.2886
 Frc consts  --      5.3122                 1.5092                 1.5823
 IR Inten    --      8.2540                 6.5172                 6.1669

                     58                     59                     60
                      A                      A                      A
 Frequencies --   1454.5088              1511.9499              1514.2081
 Red. masses --      1.2216                 1.0565                 1.0530
 Frc consts  --      1.5227                 1.4230                 1.4224
 IR Inten    --      8.5909                 3.4134                 5.3519

                     61                     62                     63
                      A                      A                      A
 Frequencies --   1522.8321              1528.4306              1532.8623
 Red. masses --      1.0487                 1.0538                 1.0566
 Frc consts  --      1.4329                 1.4505                 1.4628
 IR Inten    --      2.1604                 2.3817                 5.2470

                     64                     65                     66
                      A                      A                      A
 Frequencies --   1537.2926              1550.6956              1552.0830
 Red. masses --      1.0656                 1.0677                 1.0714
 Frc consts  --      1.4837                 1.5127                 1.5206
 IR Inten    --      0.3430                 3.9396                 4.5013

                     67                     68                     69
                      A                      A                      A
 Frequencies --   1669.6794              1823.1946              1851.9538
 Red. masses --     10.2370                10.1839                12.9879
 Frc consts  --     16.8147                19.9448                26.2452
 IR Inten    --     12.0682               634.7506                96.0237

                     70                     71                     72
                      A                      A                      A
 Frequencies --   3053.0306              3054.8875              3060.5757
 Red. masses --      1.0392                 1.0363                 1.0396
 Frc consts  --      5.7073                 5.6979                 5.7374
 IR Inten    --     11.4508                13.1733                43.9012

                     73                     74                     75
                      A                      A                      A
 Frequencies --   3077.7677              3088.5612              3107.5065
 Red. masses --      1.0601                 1.0612                 1.1019
 Frc consts  --      5.9167                 5.9645                 6.2695
 IR Inten    --     25.5469                29.2349                 0.9129

                     76                     77                     78
                      A                      A                      A
 Frequencies --   3114.4895              3115.1743              3122.8102
 Red. masses --      1.1013                 1.1063                 1.1024
 Frc consts  --      6.2941                 6.3251                 6.3338
 IR Inten    --     34.5761                 6.8233                20.4409

                     79                     80                     81
                      A                      A                      A
 Frequencies --   3127.7562              3131.8280              3140.8301
 Red. masses --      1.1021                 1.1058                 1.0889
 Frc consts  --      6.3526                 6.3903                 6.3288
 IR Inten    --      7.9086                39.6181                28.4978

                     82                     83                     84
                      A                      A                      A
 Frequencies --   3149.0764              3156.9235              3650.4689
 Red. masses --      1.0984                 1.0963                 1.0798
 Frc consts  --      6.4174                 6.4375                 8.4779
 IR Inten    --     27.5833                25.2041                80.3086

 - Thermochemistry -
 -------------------
 Temperature   298.150 Kelvin.  Pressure   1.00000 Atm.
 Atom     1 has atomic number  6 and mass  12.00000

 Molecular mass:   205.11028 amu.
 Principal axes and moments of inertia in atomic units:
                           1         2         3
     Eigenvalues --  1916.479473129.983913849.21795
           X            0.99997  -0.00322   0.00664
           Y            0.00317   0.99997   0.00643
           Z           -0.00666  -0.00641   0.99996
 This molecule is an asymmetric top.
 Rotational symmetry number  1.
 Warning -- assumption of classical behavior for rotation
           may cause significant error
 Rotational temperatures (Kelvin)      0.04519     0.02767     0.02250
 Rotational constants (GHZ):           0.94170     0.57660     0.46886
 Zero-point vibrational energy     664914.4 (Joules/Mol)
                                  158.91835 (Kcal/Mol)
 Warning -- explicit consideration of  21 degrees of freedom as
           vibrations may cause significant error
 Vibrational temperatures:    103.83   130.47   179.51   237.87   240.42
          (Kelvin)            289.93   314.20   341.31   356.51   368.29
                              418.23   476.10   519.50   579.48   616.20
                              656.29   697.55   736.87   757.25   812.87
                              841.07   919.57   934.70   980.55  1024.03
                             1048.99  1064.29  1168.05  1200.94  1236.05
                             1246.78  1281.84  1372.29  1385.12  1393.38
                             1410.82  1445.42  1478.01  1502.61  1604.87
                             1625.02  1650.99  1670.84  1698.97  1746.65
                             1762.21  1791.74  1803.15  1813.45  1883.69
                             1903.68  1912.75  1932.96  1981.08  2004.52
                             2061.74  2077.11  2092.71  2175.36  2178.61
                             2191.02  2199.07  2205.45  2211.82  2231.11
                             2233.10  2402.30  2623.17  2664.55  4392.63
                             4395.30  4403.49  4428.22  4443.75  4471.01
                             4481.06  4482.04  4493.03  4500.14  4506.00
                             4518.95  4530.82  4542.11  5252.21

 Zero-point correction=                           0.253253 (Hartree/Particle)
 Thermal correction to Energy=                    0.266711
 Thermal correction to Enthalpy=                  0.267655
 Thermal correction to Gibbs Free Energy=         0.214466
 Sum of electronic and zero-point Energies=           -671.314707
 Sum of electronic and thermal Energies=              -671.301248
 Sum of electronic and thermal Enthalpies=            -671.300304
 Sum of electronic and thermal Free Energies=         -671.353494

                     E (Thermal)             CV                S
                      KCal/Mol        Cal/Mol-Kelvin    Cal/Mol-Kelvin
 Total                  167.364             53.902            111.947
 Electronic               0.000              0.000              0.000
 Translational            0.889              2.981             41.859
 Rotational               0.889              2.981             31.513
 Vibrational            165.586             47.941             38.575
 Vibration     1          0.598              1.967              4.093
 Vibration     2          0.602              1.956              3.645
 Vibration     3          0.610              1.928              3.025
 Vibration     4          0.624              1.885              2.488
 Vibration     5          0.624              1.883              2.468
 Vibration     6          0.638              1.838              2.119
 Vibration     7          0.646              1.813              1.972
 Vibration     8          0.656              1.784              1.824
 Vibration     9          0.661              1.766              1.746
 Vibration    10          0.666              1.753              1.689
 Vibration    11          0.687              1.691              1.470
 Vibration    12          0.713              1.614              1.256
 Vibration    13          0.735              1.552              1.117
 Vibration    14          0.768              1.464              0.953
 Vibration    15          0.790              1.409              0.864
 Vibration    16          0.814              1.347              0.777
 Vibration    17          0.841              1.284              0.697
 Vibration    18          0.867              1.223              0.628
 Vibration    19          0.881              1.192              0.595
 Vibration    20          0.921              1.107              0.514
 Vibration    21          0.942              1.065              0.477

                           ! Non-Optimized Parameters !
 Normal termination of Gaussian 16 at Thu Dec 10 16:36:55 2020.

 ----------------------------------------------------------------------
 # B3LYP/6-311++G(d,p) empiricaldispersion=gd3bj scf=xqc pop=npa geom=c
 heck
 ----------------------------------------------------------------------

 ---------------------------------------
 CID_141417390_JID_5439_Energie_neutraal
 ---------------------------------------
 Structure from the checkpoint file:  "JID_5439.chk"
 Charge =  0 Multiplicity = 1

 SCF Done:  E(RB3LYP) =  -671.754712292     A.U. after   15 cycles
 Normal termination of Gaussian 16 at Thu Dec 10 16:44:00 2020.

 ----------------------------------------------------------------------
 # B3LYP/6-311++G(d,p) empiricaldispersion=gd3bj scf=xqc pop=npa geom=c
 heck
 ----------------------------------------------------------------------

 -------------------------------------
 CID_141417390_JID_5439_Energie_kation
 -------------------------------------
 Structure from the checkpoint file:  "JID_5439.chk"
 Charge =  1 Multiplicity = 2

 SCF Done:  E(UB3LYP) =  -671.416836893     A.U. after   29 cycles
 Normal termination of Gaussian 16 at Thu Dec 10 17:09:16 2020.
 Gaussian 16:  ES64L-G16RevA.03 25-Dec-2016

 ----------------------------------------------------------------------
 # B3LYP/6-311++G(d,p) empiricaldispersion=gd3bj scf=xqc pop=npa geom=c
 heck
 ----------------------------------------------------------------------

 ------------------------------------
 CID_141417390_JID_5439_Energie_anion
 ------------------------------------
 Structure from the checkpoint file:  "JID_5439.chk"
 Charge = -1 Multiplicity = 2

                         Standard orientation:
 ---------------------------------------------------------------------
 Center     Atomic      Atomic             Coordinates (Angstroms)
 Number     Number       Type             X           Y           Z
 ---------------------------------------------------------------------
      1          6           0        3.083948   -0.632999    0.273221
      2          6           0        1.593104   -0.407525    0.553745
      3          6           0        0.642620   -1.456540   -0.138079
      4          6           0        0.939407   -1.191087   -1.655946
      5          6           0        1.149933    0.350021   -1.715296
      6          6           0        0.962024    0.825738   -0.225736
      7          6           0       -0.497191    0.542439    0.032751
      8          6           0       -0.684627   -0.787138    0.090275
      9          6           0       -2.144760   -1.085079    0.144158
     10          8           0       -2.731088   -2.145151    0.193013
     11          7           0       -2.750068    0.189285    0.126605
     12          6           0       -1.813629    1.238752    0.044086
     13          8           0       -2.075299    2.422753   -0.005674
     14          6           0        1.475022    2.219977    0.081297
     15          6           0        1.420002   -0.332214    2.076961
     16          1           0        3.335717   -0.689459   -0.786902
     17          1           0        3.414005   -1.567018    0.742474
     18          1           0        3.676498    0.177870    0.711513
     19          1           0        0.743433   -2.496581    0.175772
     20          1           0        0.113278   -1.530476   -2.285844
     21          1           0        1.834125   -1.735618   -1.970125
     22          1           0        2.154087    0.610023   -2.064173
     23          1           0        0.438076    0.851696   -2.376410
     24          1           0       -3.746415    0.334052    0.210702
     25          1           0        0.924132    2.969159   -0.496303
     26          1           0        1.348414    2.464944    1.141000
     27          1           0        2.538228    2.309053   -0.167161
     28          1           0        1.760013   -1.264776    2.541620
     29          1           0        2.028461    0.479707    2.490895
     30          1           0        0.384409   -0.164457    2.379372
 ---------------------------------------------------------------------

 SCF Done:  E(UB3LYP) =  -671.788401739     A.U. after   21 cycles

 The electronic state is 2-A.
 Alpha  occ. eigenvalues --  -18.92218 -18.92204 -14.17523 -10.09581 -10.09553
 Alpha  occ. eigenvalues --  -10.06430 -10.05900 -10.05267 -10.05061 -10.04583
 Alpha  occ. eigenvalues --  -10.04499 -10.04067 -10.03995  -9.99492  -9.99330
 Alpha  occ. eigenvalues --   -0.88288  -0.86717  -0.77330  -0.75092  -0.64921
 Alpha  occ. eigenvalues --   -0.62999  -0.62136  -0.57001  -0.54967  -0.52483
 Alpha  occ. eigenvalues --   -0.48396  -0.44404  -0.43839  -0.39234  -0.37565
 Alpha  occ. eigenvalues --   -0.35775  -0.34505  -0.32645  -0.32439  -0.30565
 Alpha  occ. eigenvalues --   -0.29506  -0.28573  -0.28010  -0.27818  -0.26877
 Alpha  occ. eigenvalues --   -0.26695  -0.26199  -0.25305  -0.23349  -0.22384
 Alpha  occ. eigenvalues --   -0.22257  -0.21265  -0.20821  -0.19804  -0.19245
 Alpha  occ. eigenvalues --   -0.17321  -0.12592  -0.11150  -0.09392  -0.08676
 Alpha  occ. eigenvalues --    0.03319
 Alpha virt. eigenvalues --    0.07647   0.09373   0.09549   0.10584   0.11761
 Alpha virt. eigenvalues --    0.11933   0.12034   0.12432   0.13017   0.14401
 Alpha virt. eigenvalues --    0.14559   0.15138   0.15975   0.16144   0.16335

  Beta  occ. eigenvalues --  -18.91730 -18.91715 -14.17621 -10.09364 -10.09334
  Beta  occ. eigenvalues --  -10.06405 -10.05921 -10.05271 -10.05082 -10.04553
  Beta  occ. eigenvalues --  -10.04473 -10.04064 -10.03998  -9.99204  -9.99045
  Beta  occ. eigenvalues --   -0.87564  -0.85864  -0.76965  -0.74991  -0.64819
  Beta  occ. eigenvalues --   -0.62906  -0.61856  -0.56931  -0.54841  -0.52338
  Beta  occ. eigenvalues --   -0.47419  -0.44194  -0.43695  -0.38981  -0.37386
  Beta  occ. eigenvalues --   -0.35711  -0.34272  -0.32503  -0.32287  -0.30218
  Beta  occ. eigenvalues --   -0.29334  -0.28286  -0.27811  -0.26898  -0.26858
  Beta  occ. eigenvalues --   -0.26383  -0.25885  -0.24857  -0.23233  -0.22248
  Beta  occ. eigenvalues --   -0.21191  -0.20726  -0.19985  -0.19533  -0.18953
  Beta  occ. eigenvalues --   -0.17206  -0.10670  -0.10603  -0.08200  -0.07802
  Beta virt. eigenvalues --    0.07631   0.09371   0.09534   0.10562   0.10703
  Beta virt. eigenvalues --    0.11793   0.11979   0.12045   0.12430   0.13006
  Beta virt. eigenvalues --    0.14408   0.14550   0.15150   0.15976   0.16116

 Mulliken charges and spin densities:
               1          2
     1  C   -0.464354   0.001649
     2  C   -0.024893   0.002969
     3  C    0.017026  -0.015793
     4  C   -0.597250   0.005743
     5  C   -0.608148  -0.019394
     6  C    0.253562   0.003657
     7  C   -0.330539   0.188455
     8  C   -0.182387   0.162227
     9  C    0.352953   0.187823
    10  O   -0.463384   0.168727
    11  N   -0.268439  -0.069558
    12  C    0.447620   0.161575
    13  O   -0.467418   0.170365
    14  C   -0.252408   0.022960
    15  C   -0.727152   0.010897
    16  H    0.126932  -0.000631
    17  H    0.131072   0.000117
    18  H    0.128409   0.001873
    19  H    0.211301   0.000816
    20  H    0.153218  -0.003330
    21  H    0.105867   0.015106
    22  H    0.123877   0.006914
    23  H    0.143764   0.000125
    24  H    0.305583   0.000023
    25  H    0.180320   0.000094
    26  H    0.144287  -0.000716
    27  H    0.116211   0.001363
    28  H    0.115439  -0.001452
    29  H    0.108699  -0.000783
    30  H    0.220231  -0.001822
 Sum of Mulliken charges =  -1.00000   1.00000

 Dipole moment (field-independent basis, Debye):
    X=              7.3128    Y=             -0.2247    Z=             -0.4102  Tot=              7.3277
 Quadrupole moment (field-independent basis, Debye-Ang):
   XX=           -119.3287   YY=           -123.6370   ZZ=            -97.9929
   XY=             -3.2811   XZ=              0.9230   YZ=              0.8962

 Summary of Natural Population Analysis:

                                       Natural Population
                Natural  -----------------------------------------------
    Atom  No    Charge         Core      Valence    Rydberg      Total
 -----------------------------------------------------------------------
      C    1   -0.29040      0.99962     2.28479    0.00599     3.29040
      C    2   -0.02023      0.99957     2.00690    0.01377     3.02023
      C    3   -0.11162      0.99955     2.10111    0.01096     3.11162
      C    4   -0.18538      0.99965     2.17880    0.00693     3.18538
      C    5   -0.18402      0.99962     2.17708    0.00732     3.18402
      C    6   -0.03980      0.99950     2.02544    0.01486     3.03980
      C    7    0.00399      0.99928     1.98213    0.01460     2.99601
      C    8    0.00534      0.99930     1.97993    0.01543     2.99466
      C    9    0.36186      0.99963     1.61636    0.02215     2.63814
      O   10   -0.26805      0.99987     3.26223    0.00595     4.26805
      N   11   -0.35973      0.99966     2.84905    0.01101     3.85973
      C   12    0.36201      0.99962     1.61624    0.02212     2.63799
      O   13   -0.26968      0.99987     3.26389    0.00592     4.26968
      C   14   -0.28460      0.99962     2.27877    0.00621     3.28460
      C   15   -0.28737      0.99962     2.28199    0.00577     3.28737
      H   16    0.09901      0.00000     0.40012    0.00087     0.40099
      H   17    0.09639      0.00000     0.40270    0.00091     0.40361
      H   18    0.09644      0.00000     0.40270    0.00086     0.40356
      H   19    0.10175      0.00000     0.39707    0.00118     0.39825
      H   20    0.10239      0.00000     0.39675    0.00086     0.39761
      H   21    0.08928      0.00000     0.40965    0.00107     0.41072
      H   22    0.08949      0.00000     0.40946    0.00105     0.41051
      H   23    0.10281      0.00000     0.39637    0.00082     0.39719
      H   24    0.19116      0.00000     0.30709    0.00175     0.30884
      H   25    0.10868      0.00000     0.39040    0.00092     0.39132
      H   26    0.10101      0.00000     0.39817    0.00082     0.39899
      H   27    0.08876      0.00000     0.41034    0.00090     0.41124
      H   28    0.09311      0.00000     0.40599    0.00089     0.40689
      H   29    0.09242      0.00000     0.40670    0.00088     0.40758
      H   30    0.11498      0.00000     0.38428    0.00074     0.38502
 =======================================================================
   * Total *    0.00000     14.99396    39.82252    0.18352    55.00000

 Normal termination of Gaussian 16 at Thu Dec 10 17:28:37 2020.
