 Gaussian 16, Revision A.03,

 -----------------------------------------------------------
 # opt freq B3LYP/6-31G(d) empiricaldispersion=gd3bj scf=xqc
 -----------------------------------------------------------

 -------------------------------
 CID_131995366_JID_2146_neutraal
 -------------------------------
 Symbolic Z-matrix:
 Charge =  0 Multiplicity = 1

 SCF Done:  E(RB3LYP) =  -571.801754701     A.U. after   14 cycles
 SCF Done:  E(RB3LYP) =  -571.811178955     A.U. after   12 cycles
 SCF Done:  E(RB3LYP) =  -571.812224359     A.U. after   12 cycles
 SCF Done:  E(RB3LYP) =  -571.812032256     A.U. after   13 cycles
 SCF Done:  E(RB3LYP) =  -571.813583018     A.U. after   12 cycles
 SCF Done:  E(RB3LYP) =  -571.814292206     A.U. after   12 cycles
 SCF Done:  E(RB3LYP) =  -571.814828205     A.U. after   12 cycles
 SCF Done:  E(RB3LYP) =  -571.815228063     A.U. after   12 cycles
 SCF Done:  E(RB3LYP) =  -571.816107535     A.U. after   12 cycles
 SCF Done:  E(RB3LYP) =  -571.819244759     A.U. after   14 cycles
 SCF Done:  E(RB3LYP) =  -571.827775670     A.U. after   10 cycles
 SCF Done:  E(RB3LYP) =  -571.827779207     A.U. after    8 cycles
 SCF Done:  E(RB3LYP) =  -571.827782262     A.U. after    9 cycles
 SCF Done:  E(RB3LYP) =  -571.827782792     A.U. after    8 cycles
 SCF Done:  E(RB3LYP) =  -571.827782950     A.U. after    7 cycles
 Optimization completed.
    -- Stationary point found.
 Normal termination of Gaussian 16 at Wed Dec  9 17:04:25 2020.

 --------------------------------------------------------------------
 #N Geom=AllCheck Guess=TCheck SCRF=Check GenChk RB3LYP/6-31G(d) Freq
 --------------------------------------------------------------------

 Structure from the checkpoint file:  "JID_2146.chk"
 -------------------------------
 CID_131995366_JID_2146_neutraal
 -------------------------------
 Charge =  0 Multiplicity = 1

 SCF Done:  E(RB3LYP) =  -571.827782950     A.U. after    1 cycles

  Exact polarizability: 110.674   0.270 106.049   0.893  -0.287  97.583
 Approx polarizability: 138.213   1.225 143.531   9.472  -0.978 153.077

                      1                      2                      3
                      A                      A                      A
 Frequencies --     48.3449                57.8137                83.2089
 Red. masses --      3.3915                 3.5672                 3.0948
 Frc consts  --      0.0047                 0.0070                 0.0126
 IR Inten    --      0.9178                 0.8575                 3.8206

                      4                      5                      6
                      A                      A                      A
 Frequencies --    103.4746               124.2275               141.0392
 Red. masses --      2.9146                 3.6789                 3.4557
 Frc consts  --      0.0184                 0.0335                 0.0405
 IR Inten    --      1.7361                 5.6794                 1.4032

                      7                      8                      9
                      A                      A                      A
 Frequencies --    189.3694               207.0966               231.7745
 Red. masses --      2.6953                 1.3821                 1.7269
 Frc consts  --      0.0569                 0.0349                 0.0547
 IR Inten    --      0.6897                 1.0658                 2.8726

                     10                     11                     12
                      A                      A                      A
 Frequencies --    237.4954               249.3641               257.8845
 Red. masses --      1.1366                 1.8957                 1.7187
 Frc consts  --      0.0378                 0.0695                 0.0673
 IR Inten    --      0.1864                 0.4705                 3.0937

                     13                     14                     15
                      A                      A                      A
 Frequencies --    334.7681               348.5161               371.1316
 Red. masses --      2.3396                 1.2344                 2.9191
 Frc consts  --      0.1545                 0.0883                 0.2369
 IR Inten    --      8.3573                28.9969                 5.6463

                     16                     17                     18
                      A                      A                      A
 Frequencies --    398.6766               428.2673               467.3258
 Red. masses --      2.2954                 2.5851                 2.6715
 Frc consts  --      0.2150                 0.2794                 0.3438
 IR Inten    --      4.1361                 5.5081                 8.6990

                     19                     20                     21
                      A                      A                      A
 Frequencies --    496.8872               512.8822               568.4302
 Red. masses --      3.0613                 3.2719                 2.9388
 Frc consts  --      0.4453                 0.5071                 0.5595
 IR Inten    --      0.7064                17.1216                 9.8277

                     22                     23                     24
                      A                      A                      A
 Frequencies --    631.6971               634.0612               707.6026
 Red. masses --      3.4316                 3.0558                 2.8463
 Frc consts  --      0.8068                 0.7238                 0.8397
 IR Inten    --      9.0049                19.8873                 0.9074

                     25                     26                     27
                      A                      A                      A
 Frequencies --    804.3468               848.7322               884.1173
 Red. masses --      2.2275                 1.6259                 2.3962
 Frc consts  --      0.8491                 0.6901                 1.1035
 IR Inten    --     49.8948                38.5890                18.1126

                     28                     29                     30
                      A                      A                      A
 Frequencies --    935.6947               950.5461               975.4021
 Red. masses --      1.7387                 1.9775                 1.7412
 Frc consts  --      0.8969                 1.0527                 0.9760
 IR Inten    --     27.4724                48.6957                11.0743

                     31                     32                     33
                      A                      A                      A
 Frequencies --    980.9109              1009.3615              1031.9651
 Red. masses --      1.2645                 1.7070                 1.5768
 Frc consts  --      0.7169                 1.0247                 0.9894
 IR Inten    --     43.7990                 4.9917                20.3914

                     34                     35                     36
                      A                      A                      A
 Frequencies --   1049.8012              1072.7358              1113.2993
 Red. masses --      1.6061                 1.7369                 2.3360
 Frc consts  --      1.0429                 1.1776                 1.7058
 IR Inten    --     37.2824                13.0893                17.6282

                     37                     38                     39
                      A                      A                      A
 Frequencies --   1118.7578              1134.3196              1154.4658
 Red. masses --      2.7975                 2.5097                 1.7148
 Frc consts  --      2.0630                 1.9025                 1.3466
 IR Inten    --     26.6465                 4.5185                18.1545

                     40                     41                     42
                      A                      A                      A
 Frequencies --   1185.4229              1190.7447              1220.8171
 Red. masses --      2.1677                 1.7133                 2.2247
 Frc consts  --      1.7947                 1.4313                 1.9535
 IR Inten    --     11.3766                31.8594                48.6746

                     43                     44                     45
                      A                      A                      A
 Frequencies --   1246.3822              1288.5769              1297.3676
 Red. masses --      1.8679                 1.6632                 1.4353
 Frc consts  --      1.7096                 1.6271                 1.4233
 IR Inten    --     22.2594                41.5461                 5.6613

                     46                     47                     48
                      A                      A                      A
 Frequencies --   1303.5790              1386.2170              1404.1659
 Red. masses --      1.5393                 1.4279                 1.3507
 Frc consts  --      1.5412                 1.6167                 1.5691
 IR Inten    --      9.9428                40.9915                18.4579

                     49                     50                     51
                      A                      A                      A
 Frequencies --   1408.8073              1412.6223              1426.4101
 Red. masses --      1.2569                 1.2953                 1.2639
 Frc consts  --      1.4698                 1.5229                 1.5151
 IR Inten    --      3.3414                18.7084                22.8131

                     52                     53                     54
                      A                      A                      A
 Frequencies --   1436.8921              1474.5843              1489.5124
 Red. masses --      1.4421                 1.1816                 1.7958
 Frc consts  --      1.7543                 1.5138                 2.3475
 IR Inten    --    102.6721                 0.5659                88.2653

                     55                     56                     57
                      A                      A                      A
 Frequencies --   1502.7634              1506.5003              1515.4107
 Red. masses --      1.1127                 1.0658                 1.0622
 Frc consts  --      1.4805                 1.4252                 1.4372
 IR Inten    --      2.6022                16.3096                 6.6860

                     58                     59                     60
                      A                      A                      A
 Frequencies --   1516.8908              1519.4014              1533.6034
 Red. masses --      1.0584                 1.0545                 1.1015
 Frc consts  --      1.4348                 1.4342                 1.5264
 IR Inten    --      3.7802                 7.9741                 1.3150

                     61                     62                     63
                      A                      A                      A
 Frequencies --   1537.9809              1538.8906              1542.6357
 Red. masses --      1.0522                 1.0797                 1.0962
 Frc consts  --      1.4664                 1.5065                 1.5370
 IR Inten    --      2.4501                 0.0803                 3.2170

                     64                     65                     66
                      A                      A                      A
 Frequencies --   1581.1796              1658.9329              1749.5377
 Red. masses --      1.1405                 1.2153                 4.8432
 Frc consts  --      1.6800                 1.9705                 8.7343
 IR Inten    --     32.7260               139.3224               169.9537

                     67                     68                     69
                      A                      A                      A
 Frequencies --   2968.5814              2975.6483              3050.9618
 Red. masses --      1.0712                 1.0580                 1.0741
 Frc consts  --      5.5620                 5.5195                 5.8908
 IR Inten    --     46.4544                70.7894                38.7064

                     70                     71                     72
                      A                      A                      A
 Frequencies --   3052.4029              3063.1948              3077.8396
 Red. masses --      1.0405                 1.0381                 1.0842
 Frc consts  --      5.7120                 5.7389                 6.0515
 IR Inten    --     26.8796                 6.7881                33.9664

                     73                     74                     75
                      A                      A                      A
 Frequencies --   3083.6055              3106.3988              3112.6659
 Red. masses --      1.0762                 1.0887                 1.1020
 Frc consts  --      6.0294                 6.1896                 6.2907
 IR Inten    --     48.2082                21.7649                32.2870

                     76                     77                     78
                      A                      A                      A
 Frequencies --   3123.5754              3131.3221              3171.0369
 Red. masses --      1.1039                 1.1010                 1.0937
 Frc consts  --      6.3458                 6.3604                 6.4799
 IR Inten    --     34.9639                 5.9601                18.6194

                     79                     80                     81
                      A                      A                      A
 Frequencies --   3175.4862              3177.4696              3364.7517
 Red. masses --      1.0986                 1.0985                 1.0740
 Frc consts  --      6.5268                 6.5347                 7.1638
 IR Inten    --      8.3537                 7.2410                21.5396

                     82                     83                     84
                      A                      A                      A
 Frequencies --   3463.0495              3499.1408              3551.9275
 Red. masses --      1.0492                 1.0754                 1.0925
 Frc consts  --      7.4135                 7.7578                 8.1207
 IR Inten    --      9.0160                 2.5285                 6.1602

 - Thermochemistry -
 -------------------
 Temperature   298.150 Kelvin.  Pressure   1.00000 Atm.
 Atom     1 has atomic number  6 and mass  12.00000

 Molecular mass:   174.14806 amu.
 Principal axes and moments of inertia in atomic units:
                           1         2         3
     Eigenvalues --  1460.973672909.017523353.77351
           X            0.99986  -0.00128  -0.01684
           Y            0.00155   0.99988   0.01563
           Z            0.01682  -0.01566   0.99974
 This molecule is an asymmetric top.
 Rotational symmetry number  1.
 Warning -- assumption of classical behavior for rotation
           may cause significant error
 Rotational temperatures (Kelvin)      0.05929     0.02977     0.02583
 Rotational constants (GHZ):           1.23530     0.62040     0.53812
 Zero-point vibrational energy     711303.6 (Joules/Mol)
                                  170.00565 (Kcal/Mol)
 Warning -- explicit consideration of  21 degrees of freedom as
           vibrations may cause significant error
 Vibrational temperatures:     69.56    83.18   119.72   148.88   178.74
          (Kelvin)            202.92   272.46   297.97   333.47   341.70
                              358.78   371.04   481.66   501.44   533.98
                              573.61   616.18   672.38   714.91   737.92
                              817.84   908.87   912.27  1018.08  1157.28
                             1221.14  1272.05  1346.26  1367.62  1403.39
                             1411.31  1452.25  1484.77  1510.43  1543.43
                             1601.79  1609.64  1632.03  1661.02  1705.56
                             1713.22  1756.48  1793.27  1853.97  1866.62
                             1875.56  1994.46  2020.28  2026.96  2032.45
                             2052.29  2067.37  2121.60  2143.08  2162.14
                             2167.52  2180.34  2182.47  2186.08  2206.51
                             2212.81  2214.12  2219.51  2274.96  2386.83
                             2517.19  4271.13  4281.29  4389.65  4391.73
                             4407.25  4428.32  4436.62  4469.42  4478.43
                             4494.13  4505.27  4562.41  4568.82  4571.67
                             4841.13  4982.56  5034.48  5110.43

 Zero-point correction=                           0.270921 (Hartree/Particle)
 Thermal correction to Energy=                    0.285085
 Thermal correction to Enthalpy=                  0.286029
 Thermal correction to Gibbs Free Energy=         0.230351
 Sum of electronic and zero-point Energies=           -571.556862
 Sum of electronic and thermal Energies=              -571.542698
 Sum of electronic and thermal Enthalpies=            -571.541754
 Sum of electronic and thermal Free Energies=         -571.597432

                     E (Thermal)             CV                S
                      KCal/Mol        Cal/Mol-Kelvin    Cal/Mol-Kelvin
 Total                  178.893             52.231            117.184
 Electronic               0.000              0.000              0.000
 Translational            0.889              2.981             41.372
 Rotational               0.889              2.981             31.034
 Vibrational            177.116             46.269             44.779
 Vibration     1          0.595              1.978              4.884
 Vibration     2          0.596              1.974              4.530
 Vibration     3          0.600              1.961              3.814
 Vibration     4          0.605              1.946              3.388
 Vibration     5          0.610              1.929              3.034
 Vibration     6          0.615              1.912              2.790
 Vibration     7          0.633              1.855              2.234
 Vibration     8          0.641              1.830              2.069
 Vibration     9          0.653              1.792              1.865
 Vibration    10          0.656              1.783              1.822
 Vibration    11          0.662              1.764              1.735
 Vibration    12          0.667              1.749              1.676
 Vibration    13          0.716              1.606              1.237
 Vibration    14          0.726              1.578              1.173
 Vibration    15          0.743              1.531              1.075
 Vibration    16          0.765              1.473              0.968
 Vibration    17          0.790              1.409              0.864
 Vibration    18          0.825              1.323              0.745
 Vibration    19          0.852              1.257              0.666
 Vibration    20          0.868              1.221              0.627
 Vibration    21          0.924              1.100              0.507

                           ! Non-Optimized Parameters !
 Normal termination of Gaussian 16 at Wed Dec  9 17:11:44 2020.

 ----------------------------------------------------------------------
 # B3LYP/6-311++G(d,p) empiricaldispersion=gd3bj scf=xqc pop=npa geom=c
 heck
 ----------------------------------------------------------------------

 ---------------------------------------
 CID_131995366_JID_2146_Energie_neutraal
 ---------------------------------------
 Structure from the checkpoint file:  "JID_2146.chk"
 Charge =  0 Multiplicity = 1

 SCF Done:  E(RB3LYP) =  -572.007585667     A.U. after   14 cycles
 Normal termination of Gaussian 16 at Wed Dec  9 17:15:07 2020.

 ----------------------------------------------------------------------
 # B3LYP/6-311++G(d,p) empiricaldispersion=gd3bj scf=xqc pop=npa geom=c
 heck
 ----------------------------------------------------------------------

 -------------------------------------
 CID_131995366_JID_2146_Energie_kation
 -------------------------------------
 Structure from the checkpoint file:  "JID_2146.chk"
 Charge =  1 Multiplicity = 2

 SCF Done:  E(UB3LYP) =  -571.706211775     A.U. after   33 cycles
 SCF Done:  E(UB3LYP) =  -571.706290641     a.u. after    4 cycles
 Normal termination of Gaussian 16 at Wed Dec  9 17:54:04 2020.
 Gaussian 16:  ES64L-G16RevA.03 25-Dec-2016

 ----------------------------------------------------------------------
 # B3LYP/6-311++G(d,p) empiricaldispersion=gd3bj scf=xqc pop=npa geom=c
 heck
 ----------------------------------------------------------------------

 ------------------------------------
 CID_131995366_JID_2146_Energie_anion
 ------------------------------------
 Structure from the checkpoint file:  "JID_2146.chk"
 Charge = -1 Multiplicity = 2

                         Standard orientation:
 ---------------------------------------------------------------------
 Center     Atomic      Atomic             Coordinates (Angstroms)
 Number     Number       Type             X           Y           Z
 ---------------------------------------------------------------------
      1          6           0       -2.712132   -1.643224    0.405790
      2          6           0       -1.231403   -1.244493    0.389878
      3          7           0       -0.468064   -1.698944   -0.781773
      4          7           0       -1.054749    0.209391    0.549391
      5          6           0       -0.107619    0.631625    1.583609
      6          6           0        1.334069    0.181034    1.306562
      7          7           0        1.711640    0.544886   -0.055119
      8          7           0        3.122593    0.387949   -0.250791
      9          6           0        3.502284   -0.962441   -0.664542
     10          6           0       -1.439065    1.024296   -0.489058
     11          8           0       -2.012267    0.572416   -1.482562
     12          6           0       -1.138838    2.509330   -0.383834
     13          1           0       -3.233899   -1.209792   -0.448350
     14          1           0       -3.192855   -1.298609    1.328316
     15          1           0       -2.800517   -2.735315    0.363093
     16          1           0       -0.752344   -1.694181    1.265369
     17          1           0       -0.479315   -2.717395   -0.816008
     18          1           0       -0.960646   -1.359216   -1.608077
     19          1           0       -0.138437    1.717016    1.661249
     20          1           0       -0.440627    0.227041    2.547917
     21          1           0        2.008407    0.700278    1.994241
     22          1           0        1.433575   -0.899556    1.509333
     23          1           0        1.200415   -0.087574   -0.682540
     24          1           0        3.377042    1.047908   -0.981597
     25          1           0        2.942966   -1.334689   -1.541149
     26          1           0        4.572177   -0.972587   -0.899871
     27          1           0        3.332700   -1.660877    0.161525
     28          1           0       -1.528768    2.949404    0.540238
     29          1           0       -0.056985    2.673500   -0.416106
     30          1           0       -1.608473    2.995584   -1.239468
 ---------------------------------------------------------------------

 SCF Done:  E(UB3LYP) =  -571.993497453     A.U. after   32 cycles

 The electronic state is 2-A.
 Alpha  occ. eigenvalues --  -18.98735 -14.23845 -14.22215 -14.21349 -14.18974
 Alpha  occ. eigenvalues --  -10.17425 -10.13194 -10.10575 -10.08681 -10.08397
 Alpha  occ. eigenvalues --  -10.07428 -10.05203  -0.94020  -0.86771  -0.84310
 Alpha  occ. eigenvalues --   -0.77183  -0.71032  -0.65037  -0.63222  -0.61182
 Alpha  occ. eigenvalues --   -0.56019  -0.53322  -0.51084  -0.43095  -0.41511
 Alpha  occ. eigenvalues --   -0.41138  -0.39003  -0.37399  -0.37028  -0.35350
 Alpha  occ. eigenvalues --   -0.34352  -0.33570  -0.31927  -0.31614  -0.30839
 Alpha  occ. eigenvalues --   -0.30046  -0.29717  -0.28493  -0.28360  -0.27011
 Alpha  occ. eigenvalues --   -0.25939  -0.25310  -0.25256  -0.16198  -0.15935
 Alpha  occ. eigenvalues --   -0.14895  -0.13500  -0.13239   0.04549
 Alpha virt. eigenvalues --    0.06712   0.06973   0.07922   0.08929   0.09301
 Alpha virt. eigenvalues --    0.09921   0.10189   0.10795   0.11372   0.11767
 Alpha virt. eigenvalues --    0.12261   0.13131   0.13364   0.13684   0.13918

  Beta  occ. eigenvalues --  -18.98731 -14.23846 -14.22203 -14.21344 -14.18943
  Beta  occ. eigenvalues --  -10.17422 -10.13172 -10.10551 -10.08662 -10.08365
  Beta  occ. eigenvalues --  -10.07416 -10.05172  -0.94012  -0.86755  -0.84292
  Beta  occ. eigenvalues --   -0.77131  -0.71006  -0.65006  -0.63176  -0.61138
  Beta  occ. eigenvalues --   -0.55960  -0.53266  -0.51035  -0.43061  -0.41470
  Beta  occ. eigenvalues --   -0.41087  -0.38968  -0.37349  -0.36998  -0.35316
  Beta  occ. eigenvalues --   -0.34320  -0.33539  -0.31887  -0.31569  -0.30814
  Beta  occ. eigenvalues --   -0.30017  -0.29678  -0.28458  -0.28330  -0.26970
  Beta  occ. eigenvalues --   -0.25912  -0.25285  -0.25206  -0.16171  -0.15927
  Beta  occ. eigenvalues --   -0.14876  -0.13475  -0.13215
  Beta virt. eigenvalues --    0.06794   0.07442   0.07911   0.08553   0.09432
  Beta virt. eigenvalues --    0.09636   0.10405   0.10792   0.11084   0.11549
  Beta virt. eigenvalues --    0.12284   0.12481   0.13461   0.13612   0.14106

 Mulliken charges and spin densities:
               1          2
     1  C    1.847820  -2.284074
     2  C   -1.140230   0.557766
     3  N   -0.380118   0.030168
     4  N    0.234285   0.060505
     5  C    0.694719  -1.097595
     6  C   -0.249918   0.003671
     7  N   -0.054295  -0.095622
     8  N   -0.415460   0.214254
     9  C    0.609546  -0.991726
    10  C   -0.478341   0.455344
    11  O   -0.308456  -0.002302
    12  C    0.405993  -0.881213
    13  H    0.061812   0.110722
    14  H   -0.100302   0.252774
    15  H   -0.378118   0.524454
    16  H   -0.834123   1.029632
    17  H   -0.097663   0.341500
    18  H    0.209715   0.049702
    19  H    0.179775  -0.033798
    20  H   -0.723739   0.924015
    21  H   -0.314561   0.508518
    22  H    0.319652  -0.210347
    23  H    0.399179  -0.128079
    24  H    0.140217   0.104166
    25  H   -0.150216   0.268686
    26  H   -0.259674   0.406221
    27  H   -0.355205   0.516320
    28  H   -0.118558   0.278637
    29  H    0.091976   0.088315
    30  H    0.164288  -0.000613
 Sum of Mulliken charges =  -1.00000   1.00000

 Dipole moment (field-independent basis, Debye):
    X=             -0.5794    Y=              4.9701    Z=             -2.7511  Tot=              5.7102
 Quadrupole moment (field-independent basis, Debye-Ang):
   XX=           -133.7543   YY=           -120.5857   ZZ=           -117.0339
   XY=             -0.2534   XZ=              0.3984   YZ=              3.2549

 Summary of Natural Population Analysis:

                                       Natural Population
                Natural  -----------------------------------------------
    Atom  No    Charge         Core      Valence    Rydberg      Total
 -----------------------------------------------------------------------
      C    1   -0.29488      0.99963     2.28921    0.00604     3.29488
      C    2    0.08286      0.99961     1.90054    0.01699     2.91714
      N    3   -0.43399      0.99976     2.92308    0.01115     3.93399
      N    4   -0.26468      0.99963     2.75073    0.01432     3.76468
      C    5   -0.08395      0.99959     2.07239    0.01197     3.08395
      C    6   -0.09555      0.99962     2.08414    0.01179     3.09555
      N    7   -0.26782      0.99974     2.75571    0.01236     3.76782
      N    8   -0.24754      0.99976     2.73368    0.01411     3.74754
      C    9   -0.18759      0.99967     2.17951    0.00842     3.18759
      C   10    0.35335      0.99966     1.62476    0.02223     2.64665
      O   11   -0.33925      0.99988     3.33417    0.00520     4.33925
      C   12   -0.33425      0.99962     2.33020    0.00443     3.33425
      H   13    0.10927      0.00000     0.38960    0.00112     0.39073
      H   14    0.10101      0.00000     0.39770    0.00129     0.39899
      H   15    0.10005      0.00000     0.39844    0.00150     0.39995
      H   16    0.09623      0.00000     0.39946    0.00431     0.40377
      H   17    0.18104      0.00000     0.31663    0.00233     0.31896
      H   18    0.18666      0.00000     0.31147    0.00187     0.31334
      H   19    0.10039      0.00000     0.39796    0.00166     0.39961
      H   20    0.10080      0.00000     0.39717    0.00204     0.39920
      H   21    0.10081      0.00000     0.39755    0.00164     0.39919
      H   22    0.08520      0.00000     0.41300    0.00179     0.41480
      H   23    0.17923      0.00000     0.31649    0.00428     0.32077
      H   24    0.16815      0.00000     0.32981    0.00203     0.33185
      H   25    0.08296      0.00000     0.41548    0.00156     0.41704
      H   26    0.09299      0.00000     0.40575    0.00126     0.40701
      H   27    0.09524      0.00000     0.40338    0.00138     0.40476
      H   28    0.10509      0.00000     0.39374    0.00117     0.39491
      H   29    0.11880      0.00000     0.37967    0.00153     0.38120
      H   30    0.10939      0.00000     0.38964    0.00098     0.39061
 =======================================================================
   * Total *    0.00000     11.99617    35.83107    0.17276    48.00000

 Normal termination of Gaussian 16 at Wed Dec  9 18:09:52 2020.
