 Gaussian 16, Revision A.03,

 -----------------------------------------------------------
 # opt freq B3LYP/6-31G(d) empiricaldispersion=gd3bj scf=xqc
 -----------------------------------------------------------

 ------------------------------
 CID_12265188_JID_1433_neutraal
 ------------------------------
 Symbolic Z-matrix:
 Charge =  0 Multiplicity = 1

 SCF Done:  E(RB3LYP) =  -443.639786390     A.U. after   13 cycles
 SCF Done:  E(RB3LYP) =  -443.641831838     A.U. after   12 cycles
 SCF Done:  E(RB3LYP) =  -443.642152430     A.U. after   11 cycles
 SCF Done:  E(RB3LYP) =  -443.642271295     A.U. after   11 cycles
 SCF Done:  E(RB3LYP) =  -443.642309198     A.U. after   11 cycles
 SCF Done:  E(RB3LYP) =  -443.642328797     A.U. after   11 cycles
 SCF Done:  E(RB3LYP) =  -443.642335836     A.U. after   10 cycles
 SCF Done:  E(RB3LYP) =  -443.642338290     A.U. after    9 cycles
 SCF Done:  E(RB3LYP) =  -443.642338614     A.U. after    8 cycles
 Optimization completed.
    -- Stationary point found.
 Normal termination of Gaussian 16 at Tue Dec  8 19:58:18 2020.

 --------------------------------------------------------------------
 #N Geom=AllCheck Guess=TCheck SCRF=Check GenChk RB3LYP/6-31G(d) Freq
 --------------------------------------------------------------------

 Structure from the checkpoint file:  "JID_1433.chk"
 ------------------------------
 CID_12265188_JID_1433_neutraal
 ------------------------------
 Charge =  0 Multiplicity = 1

 SCF Done:  E(RB3LYP) =  -443.642338614     A.U. after    1 cycles

  Exact polarizability: 128.178  15.495  92.086   9.587 -13.150  92.346
 Approx polarizability: 175.575  29.235 144.027  21.886 -31.774 154.172

                      1                      2                      3
                      A                      A                      A
 Frequencies --     28.3093                76.5554                90.9647
 Red. masses --      3.4722                 3.7887                 1.9843
 Frc consts  --      0.0016                 0.0131                 0.0097
 IR Inten    --      0.0852                 0.0056                 0.2190

                      4                      5                      6
                      A                      A                      A
 Frequencies --    188.8841               206.0939               243.3859
 Red. masses --      3.0154                 3.5223                 1.2068
 Frc consts  --      0.0634                 0.0881                 0.0421
 IR Inten    --      0.6168                 0.9533                 0.3153

                      7                      8                      9
                      A                      A                      A
 Frequencies --    292.7661               370.8049               417.4426
 Red. masses --      3.1897                 2.6909                 3.0020
 Frc consts  --      0.1611                 0.2180                 0.3082
 IR Inten    --      0.8888                 1.5632                 0.0414

                     10                     11                     12
                      A                      A                      A
 Frequencies --    452.0584               468.6069               526.1828
 Red. masses --      2.8580                 3.5857                 3.3833
 Frc consts  --      0.3441                 0.4639                 0.5519
 IR Inten    --      2.8867                 4.6387                 0.9417

                     13                     14                     15
                      A                      A                      A
 Frequencies --    630.8268               636.2997               715.1132
 Red. masses --      3.4960                 6.0908                 1.8006
 Frc consts  --      0.8197                 1.4530                 0.5425
 IR Inten    --      4.4082                 0.2542                24.1079

                     16                     17                     18
                      A                      A                      A
 Frequencies --    738.5998               760.2149               804.6863
 Red. masses --      2.7508                 2.6683                 2.2887
 Frc consts  --      0.8842                 0.9086                 0.8731
 IR Inten    --      5.6621                29.0405                 9.9533

                     19                     20                     21
                      A                      A                      A
 Frequencies --    822.9638               862.2609               891.3437
 Red. masses --      1.1352                 1.2499                 5.1461
 Frc consts  --      0.4530                 0.5475                 2.4089
 IR Inten    --      0.5723                 0.0533                 0.6392

                     22                     23                     24
                      A                      A                      A
 Frequencies --    932.4957               964.3093               968.5403
 Red. masses --      1.4261                 1.8469                 1.3484
 Frc consts  --      0.7306                 1.0119                 0.7452
 IR Inten    --      3.7222                 4.5542                 0.0638

                     25                     26                     27
                      A                      A                      A
 Frequencies --    996.2505              1005.1653              1022.6029
 Red. masses --      1.2469                 1.7872                 6.0793
 Frc consts  --      0.7291                 1.0639                 3.7456
 IR Inten    --      0.1550                 3.3183                 0.3629

                     28                     29                     30
                      A                      A                      A
 Frequencies --   1056.9698              1062.6666              1095.7556
 Red. masses --      1.6911                 2.0854                 1.4923
 Frc consts  --      1.1131                 1.3875                 1.0557
 IR Inten    --     15.3927                 5.8756                 4.2796

                     31                     32                     33
                      A                      A                      A
 Frequencies --   1119.0052              1126.7557              1139.8162
 Red. masses --      1.7004                 1.5685                 1.5840
 Frc consts  --      1.2545                 1.1733                 1.2125
 IR Inten    --      3.1939                 2.0272                 2.3100

                     34                     35                     36
                      A                      A                      A
 Frequencies --   1152.2049              1193.9977              1213.6006
 Red. masses --      1.5118                 1.0972                 1.4091
 Frc consts  --      1.1825                 0.9216                 1.2228
 IR Inten    --      5.9496                 0.0205                 2.1314

                     37                     38                     39
                      A                      A                      A
 Frequencies --   1217.0012              1235.5757              1323.7879
 Red. masses --      1.3760                 2.5725                 1.3767
 Frc consts  --      1.2008                 2.3139                 1.4214
 IR Inten    --      1.4970                16.4226                 5.7034

                     40                     41                     42
                      A                      A                      A
 Frequencies --   1330.8326              1350.6651              1366.5211
 Red. masses --      1.5959                 2.2624                 2.1529
 Frc consts  --      1.6653                 2.4318                 2.3687
 IR Inten    --      9.5953                 7.9557                 0.5969

                     43                     44                     45
                      A                      A                      A
 Frequencies --   1404.6754              1418.0725              1440.2035
 Red. masses --      1.3050                 1.9358                 1.2993
 Frc consts  --      1.5171                 2.2935                 1.5878
 IR Inten    --     17.0311                19.9894                 8.3669

                     46                     47                     48
                      A                      A                      A
 Frequencies --   1497.3101              1519.3782              1520.4572
 Red. masses --      2.1492                 1.0516                 1.0954
 Frc consts  --      2.8389                 1.4303                 1.4920
 IR Inten    --      5.6084                 7.5493                 5.7089

                     49                     50                     51
                      A                      A                      A
 Frequencies --   1532.4076              1546.4696              1551.3543
 Red. masses --      1.1365                 1.2591                 1.8482
 Frc consts  --      1.5724                 1.7741                 2.6207
 IR Inten    --      1.9965                 1.1960                10.2630

                     52                     53                     54
                      A                      A                      A
 Frequencies --   1643.1589              1667.6925              2990.0078
 Red. masses --      5.5013                 5.6211                 1.0697
 Frc consts  --      8.7514                 9.2110                 5.6346
 IR Inten    --      1.1342                 3.4809                43.9138

                     55                     56                     57
                      A                      A                      A
 Frequencies --   3051.9011              3071.7960              3109.7475
 Red. masses --      1.0359                 1.0916                 1.0531
 Frc consts  --      5.6847                 6.0687                 6.0005
 IR Inten    --     27.3115                17.4222                14.3305

                     58                     59                     60
                      A                      A                      A
 Frequencies --   3118.0201              3124.0934              3131.8217
 Red. masses --      1.1017                 1.0881                 1.1029
 Frc consts  --      6.3103                 6.2572                 6.3734
 IR Inten    --     44.6585                22.8484                27.5144

                     61                     62                     63
                      A                      A                      A
 Frequencies --   3179.4919              3185.7898              3190.7065
 Red. masses --      1.0854                 1.0885                 1.1145
 Frc consts  --      6.4651                 6.5087                 6.6853
 IR Inten    --      4.6403                 0.4669                38.6256

                     64                     65                     66
                      A                      A                      A
 Frequencies --   3196.1393              3205.2668              3212.7775
 Red. masses --      1.0925                 1.0939                 1.0974
 Frc consts  --      6.5752                 6.6215                 6.6741
 IR Inten    --     17.0887                33.3424                14.3816

 - Thermochemistry -
 -------------------
 Temperature   298.150 Kelvin.  Pressure   1.00000 Atm.
 Atom     1 has atomic number  6 and mass  12.00000

 Molecular mass:   147.10480 amu.
 Principal axes and moments of inertia in atomic units:
                           1         2         3
     Eigenvalues --   820.263172718.220122835.59282
           X            0.99994  -0.00474  -0.00962
           Y            0.00430   0.99893  -0.04596
           Z            0.00982   0.04591   0.99890
 This molecule is an asymmetric top.
 Rotational symmetry number  1.
 Warning -- assumption of classical behavior for rotation
           may cause significant error
 Rotational temperatures (Kelvin)      0.10559     0.03186     0.03055
 Rotational constants (GHZ):           2.20020     0.66394     0.63646
 Zero-point vibrational energy     547935.3 (Joules/Mol)
                                  130.95967 (Kcal/Mol)
 Warning -- explicit consideration of  12 degrees of freedom as
           vibrations may cause significant error
 Vibrational temperatures:     40.73   110.15   130.88   271.76   296.52
          (Kelvin)            350.18   421.23   533.51   600.61   650.41
                              674.22   757.06   907.62   915.49  1028.89
                             1062.68  1093.78  1157.76  1184.06  1240.60
                             1282.44  1341.65  1387.43  1393.51  1433.38
                             1446.21  1471.30  1520.74  1528.94  1576.55
                             1610.00  1621.15  1639.94  1657.77  1717.90
                             1746.10  1750.99  1777.72  1904.64  1914.77
                             1943.31  1966.12  2021.01  2040.29  2072.13
                             2154.30  2186.05  2187.60  2204.79  2225.02
                             2232.05  2364.14  2399.44  4301.95  4391.00
                             4419.63  4474.23  4486.14  4494.87  4505.99
                             4574.58  4583.64  4590.71  4598.53  4611.66
                             4622.47

 Zero-point correction=                           0.208698 (Hartree/Particle)
 Thermal correction to Energy=                    0.218756
 Thermal correction to Enthalpy=                  0.219700
 Thermal correction to Gibbs Free Energy=         0.172185
 Sum of electronic and zero-point Energies=           -443.433641
 Sum of electronic and thermal Energies=              -443.423583
 Sum of electronic and thermal Enthalpies=            -443.422638
 Sum of electronic and thermal Free Energies=         -443.470154

                     E (Thermal)             CV                S
                      KCal/Mol        Cal/Mol-Kelvin    Cal/Mol-Kelvin
 Total                  137.271             38.773            100.005
 Electronic               0.000              0.000              0.000
 Translational            0.889              2.981             40.869
 Rotational               0.889              2.981             30.226
 Vibrational            135.494             32.812             28.910
 Vibration     1          0.593              1.984              5.945
 Vibration     2          0.599              1.965              3.977
 Vibration     3          0.602              1.956              3.639
 Vibration     4          0.633              1.855              2.239
 Vibration     5          0.641              1.831              2.078
 Vibration     6          0.659              1.774              1.778
 Vibration     7          0.688              1.687              1.458
 Vibration     8          0.743              1.532              1.076
 Vibration     9          0.780              1.432              0.901
 Vibration    10          0.811              1.356              0.790
 Vibration    11          0.826              1.320              0.741
 Vibration    12          0.881              1.192              0.596

                           ! Non-Optimized Parameters !
 Normal termination of Gaussian 16 at Tue Dec  8 20:03:25 2020.

 ----------------------------------------------------------------------
 # B3LYP/6-311++G(d,p) empiricaldispersion=gd3bj scf=xqc pop=npa geom=c
 heck
 ----------------------------------------------------------------------

 --------------------------------------
 CID_12265188_JID_1433_Energie_neutraal
 --------------------------------------
 Structure from the checkpoint file:  "JID_1433.chk"
 Charge =  0 Multiplicity = 1

 SCF Done:  E(RB3LYP) =  -443.758632390     A.U. after   14 cycles
 Normal termination of Gaussian 16 at Tue Dec  8 20:05:34 2020.

 ----------------------------------------------------------------------
 # B3LYP/6-311++G(d,p) empiricaldispersion=gd3bj scf=xqc pop=npa geom=c
 heck
 ----------------------------------------------------------------------

 ------------------------------------
 CID_12265188_JID_1433_Energie_kation
 ------------------------------------
 Structure from the checkpoint file:  "JID_1433.chk"
 Charge =  1 Multiplicity = 2

 SCF Done:  E(UB3LYP) =  -443.450371416     A.U. after   31 cycles
 Normal termination of Gaussian 16 at Tue Dec  8 20:12:52 2020.
 Gaussian 16:  ES64L-G16RevA.03 25-Dec-2016

 ----------------------------------------------------------------------
 # B3LYP/6-311++G(d,p) empiricaldispersion=gd3bj scf=xqc pop=npa geom=c
 heck
 ----------------------------------------------------------------------

 -----------------------------------
 CID_12265188_JID_1433_Energie_anion
 -----------------------------------
 Structure from the checkpoint file:  "JID_1433.chk"
 Charge = -1 Multiplicity = 2

                         Standard orientation:
 ---------------------------------------------------------------------
 Center     Atomic      Atomic             Coordinates (Angstroms)
 Number     Number       Type             X           Y           Z
 ---------------------------------------------------------------------
      1          6           0        3.302995   -1.172067   -0.862706
      2          6           0        1.913621   -0.920783   -0.286301
      3          7           0        1.969237    0.187846    0.668641
      4          6           0        1.754829    1.520842    0.111498
      5          6           0        0.709894    0.901640    0.973631
      6          6           0       -0.609036    0.439974    0.437511
      7          6           0       -1.196497    0.987907   -0.708046
      8          6           0       -2.426110    0.518341   -1.173243
      9          6           0       -3.087364   -0.505677   -0.496037
     10          6           0       -2.514870   -1.054884    0.653474
     11          6           0       -1.288242   -0.583047    1.115156
     12          1           0        3.656455   -0.296856   -1.420217
     13          1           0        3.290499   -2.027955   -1.546626
     14          1           0        4.020860   -1.373512   -0.061407
     15          1           0        1.194094   -0.741724   -1.102211
     16          1           0        1.560517   -1.806044    0.256276
     17          1           0        2.389376    2.314302    0.501146
     18          1           0        1.550994    1.590964   -0.957534
     19          1           0        0.670680    1.215184    2.017217
     20          1           0       -0.694209    1.793901   -1.233914
     21          1           0       -2.868043    0.956987   -2.063678
     22          1           0       -4.044149   -0.871413   -0.857903
     23          1           0       -3.024640   -1.850867    1.189264
     24          1           0       -0.842423   -1.011360    2.009476
 ---------------------------------------------------------------------

 SCF Done:  E(UB3LYP) =  -443.741431916     A.U. after   33 cycles
 SCF Done:  E(UB3LYP) =  -443.741431916     a.u. after    1 cycles

 The electronic state is 2-A.
 Alpha  occ. eigenvalues --  -14.21404 -10.10770 -10.09765 -10.09340 -10.08516
 Alpha  occ. eigenvalues --  -10.07534 -10.07480 -10.07440 -10.07390 -10.07334
 Alpha  occ. eigenvalues --  -10.06250  -0.86978  -0.75762  -0.68025  -0.65510
 Alpha  occ. eigenvalues --   -0.64767  -0.56820  -0.54113  -0.50961  -0.49041
 Alpha  occ. eigenvalues --   -0.46693  -0.42117  -0.39693  -0.37987  -0.35594
 Alpha  occ. eigenvalues --   -0.34758  -0.34636  -0.32235  -0.30745  -0.29200
 Alpha  occ. eigenvalues --   -0.28862  -0.26608  -0.25973  -0.25552  -0.24655
 Alpha  occ. eigenvalues --   -0.22425  -0.22047  -0.15690  -0.15084  -0.13840
 Alpha  occ. eigenvalues --    0.04619
 Alpha virt. eigenvalues --    0.06598   0.07149   0.07400   0.08035   0.08363
 Alpha virt. eigenvalues --    0.08792   0.09177   0.10200   0.10690   0.11129
 Alpha virt. eigenvalues --    0.11479   0.12404   0.13620   0.14211   0.14949

  Beta  occ. eigenvalues --  -14.21401 -10.10763 -10.09741 -10.09328 -10.08515
  Beta  occ. eigenvalues --  -10.07520 -10.07465 -10.07423 -10.07372 -10.07316
  Beta  occ. eigenvalues --  -10.06227  -0.86963  -0.75733  -0.68002  -0.65478
  Beta  occ. eigenvalues --   -0.64728  -0.56778  -0.54075  -0.50914  -0.48983
  Beta  occ. eigenvalues --   -0.46653  -0.42065  -0.39660  -0.37942  -0.35567
  Beta  occ. eigenvalues --   -0.34713  -0.34605  -0.32192  -0.30707  -0.29167
  Beta  occ. eigenvalues --   -0.28830  -0.26581  -0.25944  -0.25516  -0.24614
  Beta  occ. eigenvalues --   -0.22404  -0.22023  -0.15668  -0.15065  -0.13820
  Beta virt. eigenvalues --    0.06795   0.07545   0.07696   0.08101   0.08341
  Beta virt. eigenvalues --    0.08510   0.09606   0.09885   0.10528   0.10936
  Beta virt. eigenvalues --    0.11592   0.12220   0.12817   0.13946   0.14472

 Mulliken charges and spin densities:
               1          2
     1  C    0.892221  -1.443447
     2  C   -0.824679   0.570437
     3  N    0.007459   0.069275
     4  C    0.889657  -1.258386
     5  C    0.536012  -1.020595
     6  C    0.842341  -0.075169
     7  C   -1.366409   1.111496
     8  C    0.109229  -0.455216
     9  C    2.327590  -2.675039
    10  C   -0.242719   0.025090
    11  C   -0.847238   0.745344
    12  H   -0.173242   0.312340
    13  H   -0.222061   0.353169
    14  H    0.016668   0.126472
    15  H    0.222253  -0.097444
    16  H   -0.048292   0.198398
    17  H   -0.121805   0.310661
    18  H   -0.126248   0.244608
    19  H   -0.035736   0.253361
    20  H   -0.470332   0.628520
    21  H   -0.936651   1.131430
    22  H   -0.382073   0.541589
    23  H   -0.897060   1.082935
    24  H   -0.148884   0.320174
 Sum of Mulliken charges =  -1.00000   1.00000

 Dipole moment (field-independent basis, Debye):
    X=              3.4810    Y=              0.4963    Z=              2.3667  Tot=              4.2385
 Quadrupole moment (field-independent basis, Debye-Ang):
   XX=           -140.1290   YY=           -107.1143   ZZ=           -105.7525
   XY=             -4.9223   XZ=             -2.6494   YZ=              6.0722

 Summary of Natural Population Analysis:

                                       Natural Population
                Natural  -----------------------------------------------
    Atom  No    Charge         Core      Valence    Rydberg      Total
 -----------------------------------------------------------------------
      C    1   -0.28556      0.99966     2.28140    0.00451     3.28556
      C    2   -0.08979      0.99962     2.08040    0.00978     3.08979
      N    3   -0.25722      0.99974     2.74454    0.01295     3.75722
      C    4   -0.10248      0.99960     2.09083    0.01205     3.10248
      C    5   -0.02672      0.99956     2.01420    0.01295     3.02672
      C    6   -0.03390      0.99949     2.02323    0.01118     3.03390
      C    7   -0.09783      0.99951     2.08744    0.01088     3.09783
      C    8   -0.09664      0.99956     2.08589    0.01119     3.09664
      C    9   -0.09962      0.99956     2.08978    0.01028     3.09962
      C   10   -0.09817      0.99956     2.08757    0.01104     3.09817
      C   11   -0.09487      0.99951     2.08467    0.01069     3.09487
      H   12    0.09714      0.00000     0.40148    0.00138     0.40286
      H   13    0.09787      0.00000     0.40101    0.00111     0.40213
      H   14    0.09802      0.00000     0.40051    0.00147     0.40198
      H   15    0.08733      0.00000     0.41066    0.00201     0.41267
      H   16    0.09404      0.00000     0.40424    0.00172     0.40596
      H   17    0.09646      0.00000     0.40233    0.00121     0.40354
      H   18    0.09541      0.00000     0.40299    0.00160     0.40459
      H   19    0.10076      0.00000     0.39790    0.00134     0.39924
      H   20    0.10392      0.00000     0.39429    0.00179     0.39608
      H   21    0.10383      0.00000     0.39376    0.00241     0.39617
      H   22    0.10359      0.00000     0.39421    0.00220     0.39641
      H   23    0.10316      0.00000     0.39470    0.00214     0.39684
      H   24    0.10128      0.00000     0.39746    0.00126     0.39872
 =======================================================================
   * Total *   -0.00000     10.99538    28.86547    0.13915    40.00000

 Normal termination of Gaussian 16 at Tue Dec  8 20:21:20 2020.
