 Gaussian 16, Revision A.03,

 -----------------------------------------------------------
 # opt freq B3LYP/6-31G(d) empiricaldispersion=gd3bj scf=xqc
 -----------------------------------------------------------

 -------------------------------
 CID_112369919_JID_4137_neutraal
 -------------------------------
 Symbolic Z-matrix:
 Charge =  0 Multiplicity = 1

 SCF Done:  E(RB3LYP) =  -638.293364397     A.U. after   14 cycles
 SCF Done:  E(RB3LYP) =  -638.296097492     A.U. after   12 cycles
 SCF Done:  E(RB3LYP) =  -638.296403965     A.U. after   11 cycles
 SCF Done:  E(RB3LYP) =  -638.296469942     A.U. after   11 cycles
 SCF Done:  E(RB3LYP) =  -638.296597202     A.U. after   11 cycles
 SCF Done:  E(RB3LYP) =  -638.296727783     A.U. after   11 cycles
 SCF Done:  E(RB3LYP) =  -638.297184528     A.U. after   12 cycles
 SCF Done:  E(RB3LYP) =  -638.296969590     A.U. after   12 cycles
 SCF Done:  E(RB3LYP) =  -638.297980197     A.U. after   12 cycles
 SCF Done:  E(RB3LYP) =  -638.298716930     A.U. after   12 cycles
 SCF Done:  E(RB3LYP) =  -638.300552196     A.U. after    9 cycles
 SCF Done:  E(RB3LYP) =  -638.300552271     A.U. after    7 cycles
 SCF Done:  E(RB3LYP) =  -638.300552354     A.U. after    7 cycles
 SCF Done:  E(RB3LYP) =  -638.300552374     A.U. after    7 cycles
 SCF Done:  E(RB3LYP) =  -638.300552383     A.U. after    6 cycles
 SCF Done:  E(RB3LYP) =  -638.300552394     A.U. after    6 cycles
 Optimization completed.
    -- Stationary point found.
 Normal termination of Gaussian 16 at Thu Dec 10 09:29:23 2020.

 --------------------------------------------------------------------
 #N Geom=AllCheck Guess=TCheck SCRF=Check GenChk RB3LYP/6-31G(d) Freq
 --------------------------------------------------------------------

 Structure from the checkpoint file:  "JID_4137.chk"
 -------------------------------
 CID_112369919_JID_4137_neutraal
 -------------------------------
 Charge =  0 Multiplicity = 1

 SCF Done:  E(RB3LYP) =  -638.300552394     A.U. after    1 cycles

  Exact polarizability: 146.664  -5.101 121.979  -1.460  -1.193 116.589
 Approx polarizability: 190.855 -10.857 162.583  -7.740   7.299 178.472

                      1                      2                      3
                      A                      A                      A
 Frequencies --     21.3894                33.1564                43.7488
 Red. masses --      3.8848                 3.1891                 2.9425
 Frc consts  --      0.0010                 0.0021                 0.0033
 IR Inten    --      0.6590                 0.9031                 0.3823

                      4                      5                      6
                      A                      A                      A
 Frequencies --     58.6968                67.4028                80.6257
 Red. masses --      3.8998                 5.6884                 3.2786
 Frc consts  --      0.0079                 0.0152                 0.0126
 IR Inten    --      1.4752                 0.9947                 0.8366

                      7                      8                      9
                      A                      A                      A
 Frequencies --    107.4610               158.3259               185.9285
 Red. masses --      2.6815                 2.7643                 2.5020
 Frc consts  --      0.0182                 0.0408                 0.0510
 IR Inten    --      1.5091                 2.6244                 0.3234

                     10                     11                     12
                      A                      A                      A
 Frequencies --    230.3290               234.1870               240.9795
 Red. masses --      1.2614                 1.3362                 1.1704
 Frc consts  --      0.0394                 0.0432                 0.0400
 IR Inten    --      1.0876                 1.2472                 0.4247

                     13                     14                     15
                      A                      A                      A
 Frequencies --    253.4256               259.7096               283.8069
 Red. masses --      1.5550                 1.3166                 1.5464
 Frc consts  --      0.0588                 0.0523                 0.0734
 IR Inten    --      0.7898                 1.0433                20.3091

                     16                     17                     18
                      A                      A                      A
 Frequencies --    306.3705               309.2728               357.6615
 Red. masses --      1.9181                 1.5693                 2.4789
 Frc consts  --      0.1061                 0.0884                 0.1868
 IR Inten    --     22.1004                43.9908                 8.9944

                     19                     20                     21
                      A                      A                      A
 Frequencies --    372.7296               393.2006               423.0852
 Red. masses --      3.5381                 2.6910                 2.5958
 Frc consts  --      0.2896                 0.2451                 0.2738
 IR Inten    --     18.6834                 6.5555                 2.6406

                     22                     23                     24
                      A                      A                      A
 Frequencies --    428.6568               450.9777               458.3050
 Red. masses --      2.2197                 2.3757                 1.9411
 Frc consts  --      0.2403                 0.2847                 0.2402
 IR Inten    --      2.1700                 4.0801                 0.3539

                     25                     26                     27
                      A                      A                      A
 Frequencies --    470.1464               515.8589               563.6592
 Red. masses --      2.5039                 2.6373                 1.7426
 Frc consts  --      0.3261                 0.4135                 0.3262
 IR Inten    --      8.3302                10.6707                53.2602

                     28                     29                     30
                      A                      A                      A
 Frequencies --    649.2963               689.4978               820.2156
 Red. masses --      2.4642                 2.8152                 2.4885
 Frc consts  --      0.6121                 0.7886                 0.9864
 IR Inten    --     36.2587                47.0379                 1.1810

                     31                     32                     33
                      A                      A                      A
 Frequencies --    838.3674               844.9318               858.1266
 Red. masses --      2.5750                 2.2136                 3.8612
 Frc consts  --      1.0663                 0.9311                 1.6752
 IR Inten    --      2.7565                 4.7171                 0.5576

                     34                     35                     36
                      A                      A                      A
 Frequencies --    897.0838               908.5397               933.2831
 Red. masses --      1.4865                 1.4600                 1.5592
 Frc consts  --      0.7048                 0.7101                 0.8002
 IR Inten    --      2.0425                 6.5654                 4.7224

                     37                     38                     39
                      A                      A                      A
 Frequencies --    944.0966               962.9054               967.6310
 Red. masses --      1.1857                 1.9505                 1.8031
 Frc consts  --      0.6227                 1.0655                 0.9947
 IR Inten    --      1.4668                 8.1481                 1.7464

                     40                     41                     42
                      A                      A                      A
 Frequencies --    979.6853               995.4237              1053.6872
 Red. masses --      1.4925                 1.7351                 1.4478
 Frc consts  --      0.8440                 1.0129                 0.9471
 IR Inten    --      0.3226                 4.8678                 3.2827

                     43                     44                     45
                      A                      A                      A
 Frequencies --   1069.1507              1092.3926              1110.0754
 Red. masses --      1.6745                 2.4499                 2.1495
 Frc consts  --      1.1277                 1.7225                 1.5606
 IR Inten    --     51.8560                 9.7055                91.2991

                     46                     47                     48
                      A                      A                      A
 Frequencies --   1139.2050              1153.1717              1163.1326
 Red. masses --      2.6544                 1.8203                 2.0943
 Frc consts  --      2.0296                 1.4262                 1.6694
 IR Inten    --      7.7294                 7.8698                 7.3718

                     49                     50                     51
                      A                      A                      A
 Frequencies --   1185.5244              1201.0500              1208.6991
 Red. masses --      2.3495                 1.9680                 1.7720
 Frc consts  --      1.9456                 1.6726                 1.5253
 IR Inten    --     16.2921                16.4210                 2.3661

                     52                     53                     54
                      A                      A                      A
 Frequencies --   1232.7154              1263.8370              1301.6540
 Red. masses --      1.5504                 1.4397                 1.3791
 Frc consts  --      1.3881                 1.3549                 1.3767
 IR Inten    --     19.8318                21.1078                26.0715

                     55                     56                     57
                      A                      A                      A
 Frequencies --   1306.9365              1316.8865              1334.3423
 Red. masses --      1.3824                 1.2947                 1.2849
 Frc consts  --      1.3912                 1.3229                 1.3479
 IR Inten    --      6.6334                 4.9509                25.5958

                     58                     59                     60
                      A                      A                      A
 Frequencies --   1361.0669              1381.1003              1384.0845
 Red. masses --      1.4861                 1.3475                 1.3550
 Frc consts  --      1.6220                 1.5144                 1.5294
 IR Inten    --     55.5525                 3.1392                 6.4200

                     61                     62                     63
                      A                      A                      A
 Frequencies --   1402.4984              1410.1259              1421.1836
 Red. masses --      1.3255                 1.3956                 1.5109
 Frc consts  --      1.5362                 1.6350                 1.7980
 IR Inten    --      3.2382                14.8038                 6.7024

                     64                     65                     66
                      A                      A                      A
 Frequencies --   1425.4519              1430.4073              1435.7786
 Red. masses --      1.2257                 1.2880                 1.5231
 Frc consts  --      1.4673                 1.5527                 1.8499
 IR Inten    --     24.9764                 8.0396                49.7442

                     67                     68                     69
                      A                      A                      A
 Frequencies --   1442.1331              1444.9573              1450.2487
 Red. masses --      1.2582                 1.3639                 1.2408
 Frc consts  --      1.5418                 1.6779                 1.5375
 IR Inten    --      6.1975                36.8832                 8.3374

                     70                     71                     72
                      A                      A                      A
 Frequencies --   1494.1266              1504.4812              1508.1570
 Red. masses --      1.7896                 1.1033                 1.0953
 Frc consts  --      2.3538                 1.4713                 1.4678
 IR Inten    --     51.3045                 6.3489                 3.7064

                     73                     74                     75
                      A                      A                      A
 Frequencies --   1517.3835              1519.2496              1524.1719
 Red. masses --      1.0904                 1.0591                 1.0537
 Frc consts  --      1.4792                 1.4403                 1.4422
 IR Inten    --      5.8502                 3.2012                 2.0078

                     76                     77                     78
                      A                      A                      A
 Frequencies --   1525.0182              1530.0313              1530.7745
 Red. masses --      1.0589                 1.0614                 1.0577
 Frc consts  --      1.4510                 1.4640                 1.4602
 IR Inten    --      0.4038                20.4531                 4.4801

                     79                     80                     81
                      A                      A                      A
 Frequencies --   1533.2327              1535.4011              1542.2051
 Red. masses --      1.0467                 1.0548                 1.0475
 Frc consts  --      1.4498                 1.4651                 1.4679
 IR Inten    --      6.0763                 2.9762                11.7989

                     82                     83                     84
                      A                      A                      A
 Frequencies --   1779.2871              3004.1513              3022.4284
 Red. masses --      7.8628                 1.0617                 1.0823
 Frc consts  --     14.6663                 5.6455                 5.8253
 IR Inten    --    300.8258                47.5245                 4.6161

                     85                     86                     87
                      A                      A                      A
 Frequencies --   3033.1227              3035.9271              3039.7105
 Red. masses --      1.0464                 1.0359                 1.0405
 Frc consts  --      5.6716                 5.6251                 5.6644
 IR Inten    --     17.5593                32.1196                22.2194

                     88                     89                     90
                      A                      A                      A
 Frequencies --   3044.6113              3048.7952              3050.2901
 Red. masses --      1.0389                 1.0659                 1.0745
 Frc consts  --      5.6740                 5.8375                 5.8904
 IR Inten    --     14.8852                14.8751                30.4732

                     91                     92                     93
                      A                      A                      A
 Frequencies --   3051.1558              3081.9605              3089.2954
 Red. masses --      1.0868                 1.0861                 1.0824
 Frc consts  --      5.9613                 6.0783                 6.0863
 IR Inten    --     46.0561                 8.6080                13.4684

                     94                     95                     96
                      A                      A                      A
 Frequencies --   3099.8074              3100.0995              3106.3549
 Red. masses --      1.1013                 1.0988                 1.1024
 Frc consts  --      6.2351                 6.2220                 6.2674
 IR Inten    --     18.9889                 4.6900                18.9009

                     97                     98                     99
                      A                      A                      A
 Frequencies --   3109.3166              3110.6840              3113.5237
 Red. masses --      1.0979                 1.1015                 1.0915
 Frc consts  --      6.2535                 6.2796                 6.2340
 IR Inten    --     47.1456                86.1716                35.7986

                    100                    101                    102
                      A                      A                      A
 Frequencies --   3119.8213              3121.9572              3126.1698
 Red. masses --      1.1002                 1.0996                 1.0963
 Frc consts  --      6.3095                 6.3146                 6.3127
 IR Inten    --     63.4266                31.3292                21.1079

                    103                    104                    105
                      A                      A                      A
 Frequencies --   3141.1557              3592.3922              3721.3392
 Red. masses --      1.1028                 1.0759                 1.0659
 Frc consts  --      6.4112                 8.1805                 8.6965
 IR Inten    --     18.4009                16.7975                 9.3189

 - Thermochemistry -
 -------------------
 Temperature   298.150 Kelvin.  Pressure   1.00000 Atm.
 Atom     1 has atomic number  6 and mass  12.00000

 Molecular mass:   201.17288 amu.
 Principal axes and moments of inertia in atomic units:
                           1         2         3
     Eigenvalues --  2316.495254703.630685478.13451
           X            0.99995   0.00564   0.00807
           Y           -0.00493   0.99631  -0.08571
           Z           -0.00852   0.08567   0.99629
 This molecule is an asymmetric top.
 Rotational symmetry number  1.
 Warning -- assumption of classical behavior for rotation
           may cause significant error
 Rotational temperatures (Kelvin)      0.03739     0.01841     0.01581
 Rotational constants (GHZ):           0.77908     0.38369     0.32944
 Zero-point vibrational energy     883605.3 (Joules/Mol)
                                  211.18673 (Kcal/Mol)
 Warning -- explicit consideration of  27 degrees of freedom as
           vibrations may cause significant error
 Vibrational temperatures:     30.77    47.70    62.94    84.45    96.98
          (Kelvin)            116.00   154.61   227.80   267.51   331.39
                              336.94   346.72   364.62   373.66   408.33
                              440.80   444.97   514.60   536.27   565.73
                              608.73   616.74   648.86   659.40   676.44
                              742.21   810.98   934.19   992.03  1180.11
                             1206.22  1215.67  1234.65  1290.70  1307.19
                             1342.79  1358.34  1385.41  1392.21  1409.55
                             1432.19  1516.02  1538.27  1571.71  1597.15
                             1639.06  1659.16  1673.49  1705.71  1728.04
                             1739.05  1773.60  1818.38  1872.79  1880.39
                             1894.71  1919.82  1958.27  1987.10  1991.39
                             2017.88  2028.86  2044.77  2050.91  2058.04
                             2065.77  2074.91  2078.97  2086.58  2149.71
                             2164.61  2169.90  2183.18  2185.86  2192.94
                             2194.16  2201.37  2202.44  2205.98  2209.10
                             2218.89  2560.00  4322.30  4348.60  4363.99
                             4368.02  4373.47  4380.52  4386.54  4388.69
                             4389.93  4434.25  4444.81  4459.93  4460.35
                             4469.35  4473.61  4475.58  4479.67  4488.73
                             4491.80  4497.86  4519.42  5168.65  5354.18

 Zero-point correction=                           0.336547 (Hartree/Particle)
 Thermal correction to Energy=                    0.354104
 Thermal correction to Enthalpy=                  0.355048
 Thermal correction to Gibbs Free Energy=         0.289896
 Sum of electronic and zero-point Energies=           -637.964005
 Sum of electronic and thermal Energies=              -637.946448
 Sum of electronic and thermal Enthalpies=            -637.945504
 Sum of electronic and thermal Free Energies=         -638.010657

                     E (Thermal)             CV                S
                      KCal/Mol        Cal/Mol-Kelvin    Cal/Mol-Kelvin
 Total                  222.204             64.281            137.125
 Electronic               0.000              0.000              0.000
 Translational            0.889              2.981             41.802
 Rotational               0.889              2.981             32.457
 Vibrational            220.426             58.319             62.867
 Vibration     1          0.593              1.985              6.501
 Vibration     2          0.594              1.983              5.631
 Vibration     3          0.595              1.980              5.082
 Vibration     4          0.596              1.974              4.501
 Vibration     5          0.598              1.970              4.228
 Vibration     6          0.600              1.962              3.876
 Vibration     7          0.606              1.943              3.314
 Vibration     8          0.621              1.893              2.570
 Vibration     9          0.632              1.859              2.268
 Vibration    10          0.652              1.795              1.876
 Vibration    11          0.654              1.789              1.847
 Vibration    12          0.658              1.778              1.796
 Vibration    13          0.665              1.757              1.707
 Vibration    14          0.668              1.746              1.664
 Vibration    15          0.682              1.704              1.511
 Vibration    16          0.697              1.662              1.382
 Vibration    17          0.699              1.656              1.366
 Vibration    18          0.733              1.560              1.132
 Vibration    19          0.744              1.528              1.069
 Vibration    20          0.760              1.485              0.988
 Vibration    21          0.785              1.420              0.882
 Vibration    22          0.790              1.408              0.863
 Vibration    23          0.810              1.359              0.793
 Vibration    24          0.816              1.343              0.771
 Vibration    25          0.827              1.316              0.737
 Vibration    26          0.871              1.215              0.620
 Vibration    27          0.919              1.110              0.517

 Optimization completed.
    -- Stationary point found.
 Normal termination of Gaussian 16 at Thu Dec 10 09:40:25 2020.

 ----------------------------------------------------------------------
 # B3LYP/6-311++G(d,p) empiricaldispersion=gd3bj scf=xqc pop=npa geom=c
 heck
 ----------------------------------------------------------------------

 ---------------------------------------
 CID_112369919_JID_4137_Energie_neutraal
 ---------------------------------------
 Structure from the checkpoint file:  "JID_4137.chk"
 Charge =  0 Multiplicity = 1

 SCF Done:  E(RB3LYP) =  -638.499813959     A.U. after   14 cycles
 Normal termination of Gaussian 16 at Thu Dec 10 09:45:18 2020.

 ----------------------------------------------------------------------
 # B3LYP/6-311++G(d,p) empiricaldispersion=gd3bj scf=xqc pop=npa geom=c
 heck
 ----------------------------------------------------------------------

 -------------------------------------
 CID_112369919_JID_4137_Energie_kation
 -------------------------------------
 Structure from the checkpoint file:  "JID_4137.chk"
 Charge =  1 Multiplicity = 2

 SCF Done:  E(UB3LYP) =  -638.170349653     A.U. after   28 cycles
 Normal termination of Gaussian 16 at Thu Dec 10 09:58:04 2020.
 Gaussian 16:  ES64L-G16RevA.03 25-Dec-2016

 ----------------------------------------------------------------------
 # B3LYP/6-311++G(d,p) empiricaldispersion=gd3bj scf=xqc pop=npa geom=c
 heck
 ----------------------------------------------------------------------

 ------------------------------------
 CID_112369919_JID_4137_Energie_anion
 ------------------------------------
 Structure from the checkpoint file:  "JID_4137.chk"
 Charge = -1 Multiplicity = 2

                         Standard orientation:
 ---------------------------------------------------------------------
 Center     Atomic      Atomic             Coordinates (Angstroms)
 Number     Number       Type             X           Y           Z
 ---------------------------------------------------------------------
      1          6           0        3.627221    0.412427   -0.989676
      2          6           0        2.768086    1.096447    0.081012
      3          6           0        2.569092    2.580807   -0.251587
      4          6           0        1.400055    0.412491    0.247901
      5          6           0        1.419084   -1.084997    0.599521
      6          6           0        2.125410   -1.361576    1.930225
      7          6           0       -0.016902   -1.638860    0.629950
      8          6           0       -0.649105   -1.613772   -0.756890
      9          8           0       -0.022817   -1.977540   -1.746724
     10          7           0       -1.954044   -1.205786   -0.874021
     11          6           0       -2.806028   -0.580315    0.124129
     12          6           0       -2.533306    0.919279    0.347966
     13          6           0       -2.696104    1.746846   -0.922875
     14          8           0       -3.359123    1.396054    1.408364
     15          1           0        3.097342    0.381747   -1.950078
     16          1           0        3.877421   -0.618267   -0.718344
     17          1           0        4.567921    0.954597   -1.140590
     18          1           0        3.304704    1.040500    1.038703
     19          1           0        2.048696    2.697091   -1.211154
     20          1           0        1.970234    3.085473    0.516002
     21          1           0        3.529503    3.103468   -0.328437
     22          1           0        0.835532    0.947800    1.027313
     23          1           0        0.841582    0.545032   -0.689748
     24          1           0        1.936304   -1.624505   -0.200606
     25          1           0        1.642534   -0.818975    2.753602
     26          1           0        2.101816   -2.429932    2.174565
     27          1           0        3.175109   -1.052369    1.900344
     28          1           0        0.004924   -2.690696    0.944805
     29          1           0       -0.611166   -1.098937    1.373688
     30          1           0       -2.269869   -1.198850   -1.836203
     31          1           0       -3.845572   -0.707076   -0.205063
     32          1           0       -2.716900   -1.100951    1.081055
     33          1           0       -1.509213    1.032626    0.718673
     34          1           0       -3.716956    1.653017   -1.320386
     35          1           0       -2.506223    2.803341   -0.712463
     36          1           0       -1.999867    1.417013   -1.700689
     37          1           0       -4.269039    1.438594    1.071974
 ---------------------------------------------------------------------

 SCF Done:  E(UB3LYP) =  -638.490042485     A.U. after   32 cycles

 The electronic state is 2-A.
 Alpha  occ. eigenvalues --  -19.02443 -18.99203 -14.24246 -10.17914 -10.12748
 Alpha  occ. eigenvalues --  -10.11110 -10.08652 -10.08548 -10.08473 -10.07329
 Alpha  occ. eigenvalues --  -10.07243 -10.06915 -10.06911 -10.06295  -0.94409
 Alpha  occ. eigenvalues --   -0.92772  -0.82805  -0.73841  -0.69763  -0.67055
 Alpha  occ. eigenvalues --   -0.62397  -0.60240  -0.59698  -0.59209  -0.52606
 Alpha  occ. eigenvalues --   -0.50541  -0.47418  -0.45520  -0.41370  -0.40761
 Alpha  occ. eigenvalues --   -0.40069  -0.38406  -0.36779  -0.35905  -0.35074
 Alpha  occ. eigenvalues --   -0.34273  -0.33541  -0.32937  -0.31520  -0.30789
 Alpha  occ. eigenvalues --   -0.30441  -0.29740  -0.28728  -0.28592  -0.27446
 Alpha  occ. eigenvalues --   -0.27031  -0.26583  -0.26042  -0.25204  -0.23543
 Alpha  occ. eigenvalues --   -0.23243  -0.22469  -0.22269  -0.19720  -0.16412
 Alpha  occ. eigenvalues --   -0.15515   0.04116
 Alpha virt. eigenvalues --    0.05627   0.06669   0.07707   0.07975   0.08386
 Alpha virt. eigenvalues --    0.08550   0.09452   0.10056   0.10340   0.10474
 Alpha virt. eigenvalues --    0.11090   0.11102   0.11966   0.12207   0.12775

  Beta  occ. eigenvalues --  -19.02399 -18.99200 -14.24233 -10.17913 -10.12744
  Beta  occ. eigenvalues --  -10.11072 -10.08643 -10.08544 -10.08466 -10.07312
  Beta  occ. eigenvalues --  -10.07239 -10.06900 -10.06896 -10.06246  -0.94401
  Beta  occ. eigenvalues --   -0.92683  -0.82773  -0.73827  -0.69746  -0.66998
  Beta  occ. eigenvalues --   -0.62371  -0.60161  -0.59672  -0.59180  -0.52536
  Beta  occ. eigenvalues --   -0.50484  -0.47377  -0.45494  -0.41317  -0.40740
  Beta  occ. eigenvalues --   -0.39987  -0.38379  -0.36755  -0.35864  -0.35050
  Beta  occ. eigenvalues --   -0.34232  -0.33508  -0.32904  -0.31498  -0.30767
  Beta  occ. eigenvalues --   -0.30375  -0.29723  -0.28708  -0.28564  -0.27389
  Beta  occ. eigenvalues --   -0.27000  -0.26560  -0.26023  -0.25185  -0.23487
  Beta  occ. eigenvalues --   -0.23223  -0.22440  -0.22251  -0.19683  -0.16404
  Beta  occ. eigenvalues --   -0.15491
  Beta virt. eigenvalues --    0.05907   0.06920   0.07265   0.07930   0.08482
  Beta virt. eigenvalues --    0.08791   0.09164   0.09739   0.10111   0.10538
  Beta virt. eigenvalues --    0.10785   0.11382   0.11395   0.12309   0.12475

 Mulliken charges and spin densities:
               1          2
     1  C   -0.368824  -0.295531
     2  C   -0.672074   0.830033
     3  C    0.252649  -0.882870
     4  C    0.416917  -0.694696
     5  C   -0.788730   1.115302
     6  C    0.075133  -0.803375
     7  C    1.113949  -1.137511
     8  C   -0.915257   0.542892
     9  O   -0.300988   0.010247
    10  N   -0.168603   0.052278
    11  C    1.150193  -1.657091
    12  C   -0.879803   0.805505
    13  C    1.021415  -1.606164
    14  O   -0.192933   0.018228
    15  H    0.081439   0.082980
    16  H    0.068235   0.069129
    17  H   -0.062761   0.202274
    18  H   -0.086069   0.235951
    19  H   -0.010710   0.148566
    20  H   -0.011399   0.146273
    21  H   -0.077103   0.223695
    22  H    0.215724  -0.113532
    23  H    0.317594  -0.174722
    24  H    0.258707  -0.038439
    25  H   -0.063232   0.222768
    26  H   -0.032415   0.159798
    27  H   -0.016028   0.159060
    28  H    0.140376   0.076233
    29  H    0.266709  -0.128589
    30  H    0.002296   0.303169
    31  H   -0.861842   1.061547
    32  H   -0.020839   0.225507
    33  H   -0.150059   0.397041
    34  H   -0.415158   0.589572
    35  H   -0.159564   0.315388
    36  H   -0.033191   0.193057
    37  H   -0.093756   0.346027
 Sum of Mulliken charges =  -1.00000   1.00000

 Dipole moment (field-independent basis, Debye):
    X=              6.3795    Y=             -1.9189    Z=              1.2426  Tot=              6.7768
 Quadrupole moment (field-independent basis, Debye-Ang):
   XX=           -184.4934   YY=           -131.9394   ZZ=           -129.4309
   XY=              4.5384   XZ=             -2.8187   YZ=             -4.8643

 Summary of Natural Population Analysis:

                                       Natural Population
                Natural  -----------------------------------------------
    Atom  No    Charge         Core      Valence    Rydberg      Total
 -----------------------------------------------------------------------
      C    1   -0.28561      0.99965     2.28106    0.00490     3.28561
      C    2   -0.11477      0.99962     2.10554    0.00962     3.11477
      C    3   -0.28083      0.99965     2.27639    0.00478     3.28083
      C    4   -0.18953      0.99960     2.17985    0.01008     3.18953
      C    5   -0.11419      0.99960     2.10502    0.00957     3.11419
      C    6   -0.28587      0.99965     2.28004    0.00618     3.28587
      C    7   -0.23071      0.99957     2.22315    0.00798     3.23071
      C    8    0.34585      0.99967     1.63133    0.02316     2.65415
      O    9   -0.32913      0.99988     3.32389    0.00536     4.32913
      N   10   -0.31745      0.99967     2.80716    0.01061     3.81745
      C   11   -0.10081      0.99959     2.08750    0.01372     3.10081
      C   12    0.05417      0.99957     1.93344    0.01282     2.94583
      C   13   -0.30055      0.99964     2.29485    0.00606     3.30055
      O   14   -0.36994      0.99990     3.36375    0.00629     4.36994
      H   15    0.09951      0.00000     0.39967    0.00082     0.40049
      H   16    0.09906      0.00000     0.40014    0.00081     0.40094
      H   17    0.09713      0.00000     0.40207    0.00080     0.40287
      H   18    0.09153      0.00000     0.40664    0.00183     0.40847
      H   19    0.09695      0.00000     0.40209    0.00096     0.40305
      H   20    0.09960      0.00000     0.39945    0.00096     0.40040
      H   21    0.09719      0.00000     0.40192    0.00090     0.40281
      H   22    0.09481      0.00000     0.40349    0.00170     0.40519
      H   23    0.10097      0.00000     0.39756    0.00147     0.39903
      H   24    0.10619      0.00000     0.39190    0.00191     0.39381
      H   25    0.09690      0.00000     0.40228    0.00082     0.40310
      H   26    0.09803      0.00000     0.40127    0.00070     0.40197
      H   27    0.10046      0.00000     0.39871    0.00084     0.39954
      H   28    0.11106      0.00000     0.38802    0.00092     0.38894
      H   29    0.10234      0.00000     0.39622    0.00144     0.39766
      H   30    0.19657      0.00000     0.30119    0.00224     0.30343
      H   31    0.10453      0.00000     0.39180    0.00367     0.39547
      H   32    0.10046      0.00000     0.39816    0.00138     0.39954
      H   33    0.08490      0.00000     0.41200    0.00310     0.41510
      H   34    0.10158      0.00000     0.39556    0.00286     0.39842
      H   35    0.10469      0.00000     0.39432    0.00099     0.39531
      H   36    0.10326      0.00000     0.39542    0.00132     0.39674
      H   37    0.23167      0.00000     0.26174    0.00658     0.26833
 =======================================================================
   * Total *   -0.00000     13.99525    41.83459    0.17016    56.00000

 Normal termination of Gaussian 16 at Thu Dec 10 10:15:14 2020.
