 Gaussian 16, Revision A.03,

 -----------------------------------------------------------
 # opt freq B3LYP/6-31G(d) empiricaldispersion=gd3bj scf=xqc
 -----------------------------------------------------------

 -------------------------------
 CID_126498484_JID_4910_neutraal
 -------------------------------
 Symbolic Z-matrix:
 Charge =  0 Multiplicity = 1

 SCF Done:  E(RB3LYP) =  -1279.35607006     A.U. after   14 cycles
 SCF Done:  E(RB3LYP) =  -1279.35915706     A.U. after   15 cycles
 SCF Done:  E(RB3LYP) =  -1279.35598390     A.U. after   14 cycles
 SCF Done:  E(RB3LYP) =  -1279.36032090     A.U. after   13 cycles
 SCF Done:  E(RB3LYP) =  -1279.36059491     A.U. after   15 cycles
 SCF Done:  E(RB3LYP) =  -1279.36151347     A.U. after   15 cycles
 SCF Done:  E(RB3LYP) =  -1279.36185180     A.U. after   14 cycles
 SCF Done:  E(RB3LYP) =  -1279.36404285     A.U. after   14 cycles
 SCF Done:  E(RB3LYP) =  -1279.36470094     A.U. after   12 cycles
 SCF Done:  E(RB3LYP) =  -1279.36490751     A.U. after   12 cycles
 SCF Done:  E(RB3LYP) =  -1279.36744451     A.U. after   10 cycles
 SCF Done:  E(RB3LYP) =  -1279.36745153     A.U. after   10 cycles
 SCF Done:  E(RB3LYP) =  -1279.36745167     A.U. after    7 cycles
 SCF Done:  E(RB3LYP) =  -1279.36745172     A.U. after    6 cycles
 SCF Done:  E(RB3LYP) =  -1279.36745173     A.U. after    6 cycles
 Optimization completed.
    -- Stationary point found.
 Normal termination of Gaussian 16 at Thu Dec 10 11:12:18 2020.

 --------------------------------------------------------------------
 #N Geom=AllCheck Guess=TCheck SCRF=Check GenChk RB3LYP/6-31G(d) Freq
 --------------------------------------------------------------------

 Structure from the checkpoint file:  "JID_4910.chk"
 -------------------------------
 CID_126498484_JID_4910_neutraal
 -------------------------------
 Charge =  0 Multiplicity = 1

 SCF Done:  E(RB3LYP) =  -1279.36745173     A.U. after    1 cycles

  Exact polarizability: 187.712  28.171 139.515 -11.389   9.411 126.734
 Approx polarizability: 264.548  48.639 213.052 -33.006  23.855 229.255

                      1                      2                      3
                      A                      A                      A
 Frequencies --     31.7192                33.3308                48.7388
 Red. masses --      3.4275                 4.5792                 4.4879
 Frc consts  --      0.0020                 0.0030                 0.0063
 IR Inten    --      0.3871                 0.2645                 1.7371

                      4                      5                      6
                      A                      A                      A
 Frequencies --     81.4445               129.7802               162.6735
 Red. masses --      3.9755                 4.8482                 2.5659
 Frc consts  --      0.0155                 0.0481                 0.0400
 IR Inten    --      0.3580                 1.3042                 0.3346

                      7                      8                      9
                      A                      A                      A
 Frequencies --    176.0277               183.3236               191.7831
 Red. masses --      1.5529                 1.4724                 3.7048
 Frc consts  --      0.0284                 0.0292                 0.0803
 IR Inten    --      0.4752                 0.2186                 0.5095

                     10                     11                     12
                      A                      A                      A
 Frequencies --    203.1192               232.3145               289.6409
 Red. masses --      2.6673                 2.3272                 2.0704
 Frc consts  --      0.0648                 0.0740                 0.1023
 IR Inten    --      0.8238                 1.1090                 0.1913

                     13                     14                     15
                      A                      A                      A
 Frequencies --    306.3954               337.2158               385.2353
 Red. masses --      6.0412                 3.3567                 2.3453
 Frc consts  --      0.3341                 0.2249                 0.2051
 IR Inten    --      3.1956                 0.4241                 0.7388

                     16                     17                     18
                      A                      A                      A
 Frequencies --    412.4542               427.6948               445.8102
 Red. masses --      3.6724                10.2195                 2.0858
 Frc consts  --      0.3681                 1.1014                 0.2442
 IR Inten    --      3.6149                 2.9271                 0.5467

                     19                     20                     21
                      A                      A                      A
 Frequencies --    484.3900               496.6429               514.2932
 Red. masses --      3.3616                 3.0992                12.2574
 Frc consts  --      0.4647                 0.4504                 1.9102
 IR Inten    --      3.1086                 0.6613                 2.7457

                     22                     23                     24
                      A                      A                      A
 Frequencies --    629.9325               659.4224               734.7542
 Red. masses --      7.3869                 4.3473                 6.2802
 Frc consts  --      1.7270                 1.1138                 1.9976
 IR Inten    --      2.5034                 0.5122                14.3200

                     25                     26                     27
                      A                      A                      A
 Frequencies --    741.3836               751.1255               772.8650
 Red. masses --      3.7886                 4.3087                 2.3013
 Frc consts  --      1.2269                 1.4323                 0.8099
 IR Inten    --      5.8005                 1.0837                 6.2115

                     28                     29                     30
                      A                      A                      A
 Frequencies --    777.0994               862.6268               900.3449
 Red. masses --      1.3940                 1.3600                 1.3199
 Frc consts  --      0.4960                 0.5963                 0.6304
 IR Inten    --     36.5237                 3.6477                 1.4133

                     31                     32                     33
                      A                      A                      A
 Frequencies --    908.5355               922.0271               965.2744
 Red. masses --      1.2886                 2.3657                 1.7481
 Frc consts  --      0.6267                 1.1849                 0.9597
 IR Inten    --      3.6531                 3.2294                 4.6513

                     34                     35                     36
                      A                      A                      A
 Frequencies --    974.1670               997.7799              1005.6931
 Red. masses --      1.3879                 1.4627                 1.3130
 Frc consts  --      0.7760                 0.8580                 0.7824
 IR Inten    --      0.1906                 5.5406                 0.6916

                     37                     38                     39
                      A                      A                      A
 Frequencies --   1006.4691              1036.1269              1062.6055
 Red. masses --      6.1219                 1.3073                 1.2662
 Frc consts  --      3.6538                 0.8269                 0.8423
 IR Inten    --      4.8273                 1.2564                 4.9748

                     40                     41                     42
                      A                      A                      A
 Frequencies --   1075.0048              1111.8109              1116.8992
 Red. masses --      2.5919                 1.5187                 1.8047
 Frc consts  --      1.7647                 1.1061                 1.3264
 IR Inten    --      5.2964                 9.6236                 6.2684

                     43                     44                     45
                      A                      A                      A
 Frequencies --   1133.4050              1145.2185              1152.5847
 Red. masses --      2.1580                 1.6399                 2.6102
 Frc consts  --      1.6333                 1.2672                 2.0430
 IR Inten    --      1.7311                 3.0411                57.9910

                     46                     47                     48
                      A                      A                      A
 Frequencies --   1187.1371              1207.3735              1257.1771
 Red. masses --      1.1501                 1.7797                 1.7094
 Frc consts  --      0.9550                 1.5285                 1.5918
 IR Inten    --      0.7475                 0.0169                10.3206

                     49                     50                     51
                      A                      A                      A
 Frequencies --   1261.7494              1304.2033              1315.7587
 Red. masses --      1.2187                 1.8593                 5.0234
 Frc consts  --      1.1431                 1.8633                 5.1239
 IR Inten    --      1.1048                 3.7261                 0.6523

                     52                     53                     54
                      A                      A                      A
 Frequencies --   1322.4740              1362.1100              1431.2753
 Red. masses --      1.6239                 1.6116                 1.3412
 Frc consts  --      1.6734                 1.7618                 1.6187
 IR Inten    --      2.2060                12.5630                 1.0045

                     55                     56                     57
                      A                      A                      A
 Frequencies --   1446.1582              1454.0226              1465.8281
 Red. masses --      1.2767                 1.4441                 2.0493
 Frc consts  --      1.5731                 1.7988                 2.5944
 IR Inten    --      0.8877                 2.1125                71.6649

                     58                     59                     60
                      A                      A                      A
 Frequencies --   1479.6874              1499.1646              1517.2189
 Red. masses --      1.0957                 2.0509                 1.0676
 Frc consts  --      1.4134                 2.7158                 1.4480
 IR Inten    --      4.2695                54.5995                 6.7500

                     61                     62                     63
                      A                      A                      A
 Frequencies --   1518.8715              1523.6753              1532.9438
 Red. masses --      1.2005                 1.0804                 1.0691
 Frc consts  --      1.6318                 1.4778                 1.4803
 IR Inten    --      9.4824                 3.6564                 6.4840

                     64                     65                     66
                      A                      A                      A
 Frequencies --   1546.7045              1624.7733              1634.5649
 Red. masses --      1.2030                 5.8040                 5.0785
 Frc consts  --      1.6956                 9.0273                 7.9945
 IR Inten    --      2.7823                31.5145                88.8275

                     67                     68                     69
                      A                      A                      A
 Frequencies --   3038.9494              3045.5864              3048.2801
 Red. masses --      1.0397                 1.0454                 1.0520
 Frc consts  --      5.6574                 5.7130                 5.7595
 IR Inten    --     23.6065                40.2049                30.0268

                     70                     71                     72
                      A                      A                      A
 Frequencies --   3093.1542              3102.7488              3104.4295
 Red. masses --      1.1020                 1.1023                 1.1013
 Frc consts  --      6.2123                 6.2521                 6.2535
 IR Inten    --     22.5523                21.9972                12.4222

                     73                     74                     75
                      A                      A                      A
 Frequencies --   3118.3256              3136.0889              3140.1585
 Red. masses --      1.1009                 1.0757                 1.0750
 Frc consts  --      6.3071                 6.2331                 6.2455
 IR Inten    --     21.0947                 9.0481                31.9079

                     76                     77                     78
                      A                      A                      A
 Frequencies --   3181.3059              3197.8464              3213.2046
 Red. masses --      1.0891                 1.0892                 1.0952
 Frc consts  --      6.4944                 6.5625                 6.6624
 IR Inten    --     25.0053                11.0492                 0.9606

                     79                     80                     81
                      A                      A                      A
 Frequencies --   3220.6058              3221.0527              3235.6373
 Red. masses --      1.1051                 1.0968                 1.0930
 Frc consts  --      6.7532                 6.7045                 6.7421
 IR Inten    --     19.3871                16.2439                 2.1047

 - Thermochemistry -
 -------------------
 Temperature   298.150 Kelvin.  Pressure   1.00000 Atm.
 Atom     1 has atomic number  6 and mass  12.00000

 Molecular mass:   225.06459 amu.
 Principal axes and moments of inertia in atomic units:
                           1         2         3
     Eigenvalues --  2211.982714701.467045844.33056
           X            0.99992  -0.00659   0.01053
           Y            0.00665   0.99996  -0.00584
           Z           -0.01049   0.00590   0.99993
 This molecule is an asymmetric top.
 Rotational symmetry number  1.
 Warning -- assumption of classical behavior for rotation
           may cause significant error
 Rotational temperatures (Kelvin)      0.03916     0.01842     0.01482
 Rotational constants (GHZ):           0.81589     0.38387     0.30880
 Zero-point vibrational energy     628083.9 (Joules/Mol)
                                  150.11566 (Kcal/Mol)
 Warning -- explicit consideration of  21 degrees of freedom as
           vibrations may cause significant error
 Vibrational temperatures:     45.64    47.96    70.12   117.18   186.72
          (Kelvin)            234.05   253.26   263.76   275.93   292.24
                              334.25   416.73   440.83   485.18   554.27
                              593.43   615.36   641.42   696.93   714.56
                              739.95   906.33   948.76  1057.15  1066.69
                             1080.70  1111.98  1118.07  1241.13  1295.40
                             1307.18  1326.59  1388.81  1401.61  1435.58
                             1446.97  1448.08  1490.76  1528.85  1546.69
                             1599.65  1606.97  1630.72  1647.71  1658.31
                             1708.03  1737.14  1808.80  1815.38  1876.46
                             1893.08  1902.75  1959.77  2059.29  2080.70
                             2092.01  2109.00  2128.94  2156.96  2182.94
                             2185.32  2192.23  2205.56  2225.36  2337.69
                             2351.77  4372.37  4381.92  4385.80  4450.36
                             4464.16  4466.58  4486.58  4512.13  4517.99
                             4577.19  4600.99  4623.08  4633.73  4634.38
                             4655.36

 Zero-point correction=                           0.239225 (Hartree/Particle)
 Thermal correction to Energy=                    0.254116
 Thermal correction to Enthalpy=                  0.255060
 Thermal correction to Gibbs Free Energy=         0.195856
 Sum of electronic and zero-point Energies=          -1279.128227
 Sum of electronic and thermal Energies=             -1279.113336
 Sum of electronic and thermal Enthalpies=           -1279.112392
 Sum of electronic and thermal Free Energies=        -1279.171596

                     E (Thermal)             CV                S
                      KCal/Mol        Cal/Mol-Kelvin    Cal/Mol-Kelvin
 Total                  159.460             55.274            124.605
 Electronic               0.000              0.000              0.000
 Translational            0.889              2.981             42.136
 Rotational               0.889              2.981             32.475
 Vibrational            157.682             49.312             49.994
 Vibration     1          0.594              1.983              5.719
 Vibration     2          0.594              1.983              5.621
 Vibration     3          0.595              1.978              4.868
 Vibration     4          0.600              1.962              3.856
 Vibration     5          0.612              1.924              2.949
 Vibration     6          0.623              1.888              2.518
 Vibration     7          0.628              1.872              2.370
 Vibration     8          0.631              1.863              2.294
 Vibration     9          0.634              1.851              2.211
 Vibration    10          0.639              1.835              2.105
 Vibration    11          0.653              1.792              1.861
 Vibration    12          0.686              1.693              1.476
 Vibration    13          0.697              1.662              1.382
 Vibration    14          0.718              1.601              1.225
 Vibration    15          0.754              1.502              1.019
 Vibration    16          0.776              1.443              0.918
 Vibration    17          0.789              1.410              0.866
 Vibration    18          0.805              1.370              0.809
 Vibration    19          0.841              1.285              0.698
 Vibration    20          0.852              1.257              0.667
 Vibration    21          0.869              1.218              0.623

                           ! Non-Optimized Parameters !
 Normal termination of Gaussian 16 at Thu Dec 10 11:20:08 2020.

 ----------------------------------------------------------------------
 # B3LYP/6-311++G(d,p) empiricaldispersion=gd3bj scf=xqc pop=npa geom=c
 heck
 ----------------------------------------------------------------------

 ---------------------------------------
 CID_126498484_JID_4910_Energie_neutraal
 ---------------------------------------
 Structure from the checkpoint file:  "JID_4910.chk"
 Charge =  0 Multiplicity = 1

 SCF Done:  E(RB3LYP) =  -1279.54830824     A.U. after   16 cycles
 Normal termination of Gaussian 16 at Thu Dec 10 11:23:45 2020.

 ----------------------------------------------------------------------
 # B3LYP/6-311++G(d,p) empiricaldispersion=gd3bj scf=xqc pop=npa geom=c
 heck
 ----------------------------------------------------------------------

 -------------------------------------
 CID_126498484_JID_4910_Energie_kation
 -------------------------------------
 Structure from the checkpoint file:  "JID_4910.chk"
 Charge =  1 Multiplicity = 2

 SCF Done:  E(UB3LYP) =  -1279.24922012     A.U. after   27 cycles
 Normal termination of Gaussian 16 at Thu Dec 10 11:32:11 2020.
 Gaussian 16:  ES64L-G16RevA.03 25-Dec-2016

 ----------------------------------------------------------------------
 # B3LYP/6-311++G(d,p) empiricaldispersion=gd3bj scf=xqc pop=npa geom=c
 heck
 ----------------------------------------------------------------------

 ------------------------------------
 CID_126498484_JID_4910_Energie_anion
 ------------------------------------
 Structure from the checkpoint file:  "JID_4910.chk"
 Charge = -1 Multiplicity = 2

                         Standard orientation:
 ---------------------------------------------------------------------
 Center     Atomic      Atomic             Coordinates (Angstroms)
 Number     Number       Type             X           Y           Z
 ---------------------------------------------------------------------
      1          6           0       -1.423780    2.649119   -0.814936
      2          6           0       -1.371538    1.322882   -0.088087
      3          6           0       -2.092794    1.101900    1.222857
      4          6           0       -2.536569    0.363418   -0.018666
      5          6           0       -3.867916    0.738737   -0.649781
      6          6           0       -2.299068   -1.134951   -0.146095
      7         16           0       -0.870335   -1.912275    0.732061
      8         16           0        0.676749   -1.882372   -0.661510
      9          6           0        1.778536   -0.545096   -0.168472
     10          6           0        1.720523    0.133383    1.053149
     11          6           0        2.668095    1.126658    1.282390
     12          6           0        3.634302    1.390645    0.310492
     13          6           0        3.608471    0.636199   -0.860950
     14          7           0        2.697309   -0.312877   -1.105358
     15          1           0       -0.627280    3.309840   -0.452660
     16          1           0       -2.374033    3.170429   -0.663353
     17          1           0       -1.281327    2.517332   -1.894304
     18          1           0       -0.401045    0.844095   -0.154681
     19          1           0       -1.583459    0.545671    2.005088
     20          1           0       -2.739886    1.897123    1.585946
     21          1           0       -3.880871    0.499826   -1.720858
     22          1           0       -4.690665    0.189395   -0.175094
     23          1           0       -4.082459    1.805215   -0.544078
     24          1           0       -3.155079   -1.675754    0.278453
     25          1           0       -2.225462   -1.427824   -1.198627
     26          1           0        0.959181   -0.106461    1.785351
     27          1           0        2.654374    1.683666    2.215068
     28          1           0        4.389351    2.156125    0.455918
     29          1           0        4.345311    0.798455   -1.644892
 ---------------------------------------------------------------------

 SCF Done:  E(UB3LYP) =  -1279.54003662     A.U. after   33 cycles
 SCF Done:  E(UB3LYP) =  -1279.54003662     a.u. after    1 cycles

 The electronic state is 2-A.
 Alpha  occ. eigenvalues --  -88.75180 -88.75136 -14.18159 -10.11624 -10.09683
 Alpha  occ. eigenvalues --  -10.08533 -10.08257 -10.06478 -10.06220 -10.06211
 Alpha  occ. eigenvalues --  -10.06107 -10.05829 -10.05811 -10.05626  -7.83677
 Alpha  occ. eigenvalues --   -7.83636  -5.80147  -5.80087  -5.79660  -5.79645
 Alpha  occ. eigenvalues --   -5.79035  -5.78975  -0.83051  -0.76925  -0.70334
 Alpha  occ. eigenvalues --   -0.68500  -0.65841  -0.62820  -0.59857  -0.59337
 Alpha  occ. eigenvalues --   -0.53176  -0.51335  -0.48164  -0.47019  -0.42498
 Alpha  occ. eigenvalues --   -0.40020  -0.38417  -0.36780  -0.35423  -0.34502
 Alpha  occ. eigenvalues --   -0.33776  -0.31557  -0.30718  -0.30340  -0.29400
 Alpha  occ. eigenvalues --   -0.29054  -0.28523  -0.28209  -0.27134  -0.25146
 Alpha  occ. eigenvalues --   -0.24210  -0.23773  -0.21772  -0.18309  -0.17602
 Alpha  occ. eigenvalues --   -0.16937  -0.16314  -0.15145  -0.13321  -0.11351
 Alpha  occ. eigenvalues --    0.04731
 Alpha virt. eigenvalues --    0.06480   0.07273   0.07614   0.08341   0.08732
 Alpha virt. eigenvalues --    0.09357   0.09441   0.09952   0.10471   0.10804
 Alpha virt. eigenvalues --    0.11597   0.11776   0.12689   0.12719   0.13448

  Beta  occ. eigenvalues --  -88.75148 -88.75108 -14.17875 -10.11617 -10.09668
  Beta  occ. eigenvalues --  -10.08424 -10.08257 -10.06473 -10.06252 -10.06183
  Beta  occ. eigenvalues --  -10.05863 -10.05813 -10.05753 -10.05603  -7.83645
  Beta  occ. eigenvalues --   -7.83605  -5.80070  -5.80023  -5.79626  -5.79622
  Beta  occ. eigenvalues --   -5.79017  -5.78953  -0.82663  -0.76912  -0.70175
  Beta  occ. eigenvalues --   -0.68109  -0.65702  -0.62718  -0.59813  -0.59220
  Beta  occ. eigenvalues --   -0.53069  -0.50908  -0.48002  -0.46920  -0.42440
  Beta  occ. eigenvalues --   -0.39910  -0.38385  -0.36616  -0.35313  -0.34459
  Beta  occ. eigenvalues --   -0.33664  -0.31500  -0.30650  -0.30251  -0.29194
  Beta  occ. eigenvalues --   -0.28558  -0.28390  -0.28126  -0.27044  -0.25080
  Beta  occ. eigenvalues --   -0.24125  -0.23656  -0.21540  -0.17679  -0.17573
  Beta  occ. eigenvalues --   -0.16536  -0.15638  -0.14871  -0.13128  -0.11037
  Beta virt. eigenvalues --    0.06985   0.07523   0.07842   0.08642   0.08991
  Beta virt. eigenvalues --    0.09187   0.09564   0.09714   0.10049   0.10565
  Beta virt. eigenvalues --    0.11027   0.11783   0.11929   0.12806   0.12838

 Mulliken charges and spin densities:
               1          2
     1  C   -0.043720  -0.779374
     2  C   -0.247050   0.287559
     3  C   -0.290362  -0.326067
     4  C   -0.450554   1.351637
     5  C    1.246790  -1.659138
     6  C   -0.594101  -0.218064
     7  S    0.435210  -0.091003
     8  S   -0.551782   0.035805
     9  C   -0.624175   0.096772
    10  C    0.681568  -0.261855
    11  C   -0.753237   0.495624
    12  C    0.154773  -0.326251
    13  C   -0.207708   0.225969
    14  N    0.095628   0.130236
    15  H   -0.018475   0.155818
    16  H   -0.105679   0.227199
    17  H   -0.045630   0.191641
    18  H    0.675982  -0.614032
    19  H    0.040017   0.076534
    20  H   -0.451612   0.630343
    21  H   -0.066814   0.216157
    22  H   -0.176727   0.314418
    23  H   -0.211667   0.340917
    24  H   -0.068388   0.256899
    25  H    0.176111   0.028567
    26  H    0.200014  -0.004805
    27  H   -0.003522   0.149058
    28  H    0.085507   0.040403
    29  H    0.119601   0.029032
 Sum of Mulliken charges =  -1.00000   1.00000

 Dipole moment (field-independent basis, Debye):
    X=              2.1487    Y=             -1.0546    Z=              0.5356  Tot=              2.4528
 Quadrupole moment (field-independent basis, Debye-Ang):
   XX=           -159.4578   YY=           -137.0900   ZZ=           -124.3015
   XY=             12.4394   XZ=              3.2559   YZ=             -0.8079

 Summary of Natural Population Analysis:

                                       Natural Population
                Natural  -----------------------------------------------
    Atom  No    Charge         Core      Valence    Rydberg      Total
 -----------------------------------------------------------------------
      C    1   -0.28344      0.99965     2.27832    0.00548     3.28344
      C    2   -0.11459      0.99954     2.10499    0.01007     3.11459
      C    3   -0.19589      0.99957     2.18623    0.01010     3.19589
      C    4   -0.05505      0.99953     2.04212    0.01340     3.05505
      C    5   -0.28064      0.99962     2.27451    0.00651     3.28064
      C    6   -0.24012      0.99951     2.22817    0.01243     3.24012
      S    7    0.03462      4.99968     2.94508    0.02063     7.96538
      S    8    0.08081      4.99956     2.89911    0.02052     7.91919
      C    9    0.03035      0.99945     1.94934    0.02086     2.96965
      C   10   -0.13364      0.99947     2.12468    0.00949     3.13364
      C   11   -0.03884      0.99957     2.02885    0.01042     3.03884
      C   12   -0.14286      0.99956     2.13439    0.00890     3.14286
      C   13    0.04318      0.99959     1.94231    0.01492     2.95682
      N   14   -0.21529      0.99964     2.70312    0.01253     3.71529
      H   15    0.10156      0.00000     0.39757    0.00086     0.39844
      H   16    0.09695      0.00000     0.40193    0.00113     0.40305
      H   17    0.09898      0.00000     0.40003    0.00099     0.40102
      H   18    0.11209      0.00000     0.38476    0.00315     0.38791
      H   19    0.10590      0.00000     0.39248    0.00162     0.39410
      H   20    0.09973      0.00000     0.39902    0.00124     0.40027
      H   21    0.09881      0.00000     0.40005    0.00114     0.40119
      H   22    0.09843      0.00000     0.40034    0.00123     0.40157
      H   23    0.10359      0.00000     0.39516    0.00125     0.39641
      H   24    0.10314      0.00000     0.39500    0.00187     0.39686
      H   25    0.10725      0.00000     0.39139    0.00136     0.39275
      H   26    0.10908      0.00000     0.38877    0.00215     0.39092
      H   27    0.09503      0.00000     0.40421    0.00077     0.40497
      H   28    0.09748      0.00000     0.40163    0.00089     0.40252
      H   29    0.08339      0.00000     0.41554    0.00107     0.41661
 =======================================================================
   * Total *    0.00000     21.99395    37.80909    0.19696    60.00000

 Normal termination of Gaussian 16 at Thu Dec 10 11:42:39 2020.
