 Gaussian 16, Revision A.03,

 -----------------------------------------------------------
 # opt freq B3LYP/6-31G(d) empiricaldispersion=gd3bj scf=xqc
 -----------------------------------------------------------

 ------------------------------
 CID_88161867_JID_3459_neutraal
 ------------------------------
 Symbolic Z-matrix:
 Charge =  0 Multiplicity = 1

 SCF Done:  E(RB3LYP) =  -571.852863826     A.U. after   15 cycles
 SCF Done:  E(RB3LYP) =  -571.856026213     A.U. after   12 cycles
 SCF Done:  E(RB3LYP) =  -571.856407410     A.U. after   13 cycles
 SCF Done:  E(RB3LYP) =  -571.855453783     A.U. after   13 cycles
 SCF Done:  E(RB3LYP) =  -571.856569983     A.U. after   11 cycles
 SCF Done:  E(RB3LYP) =  -571.856607049     A.U. after   11 cycles
 SCF Done:  E(RB3LYP) =  -571.856632360     A.U. after   10 cycles
 SCF Done:  E(RB3LYP) =  -571.856643634     A.U. after   10 cycles
 SCF Done:  E(RB3LYP) =  -571.856649333     A.U. after    9 cycles
 SCF Done:  E(RB3LYP) =  -571.856650293     A.U. after    8 cycles
 SCF Done:  E(RB3LYP) =  -571.856650349     A.U. after    6 cycles
 Optimization completed.
    -- Stationary point found.
 Normal termination of Gaussian 16 at Wed Dec  9 23:16:16 2020.

 --------------------------------------------------------------------
 #N Geom=AllCheck Guess=TCheck SCRF=Check GenChk RB3LYP/6-31G(d) Freq
 --------------------------------------------------------------------

 Structure from the checkpoint file:  "JID_3459.chk"
 ------------------------------
 CID_88161867_JID_3459_neutraal
 ------------------------------
 Charge =  0 Multiplicity = 1

 SCF Done:  E(RB3LYP) =  -571.856650349     A.U. after    2 cycles

  Exact polarizability: 169.662  -7.141 131.387   0.973  -0.558  54.840
 Approx polarizability: 264.825 -23.574 223.666   2.188  -0.620  86.657

                      1                      2                      3
                      A                      A                      A
 Frequencies --     66.9490               126.9693               145.5488
 Red. masses --      4.5383                 3.5238                 4.5122
 Frc consts  --      0.0120                 0.0335                 0.0563
 IR Inten    --      6.3127                 0.4977                 1.2339

                      4                      5                      6
                      A                      A                      A
 Frequencies --    154.9796               203.7144               259.4250
 Red. masses --      6.7540                 2.6436                 2.4316
 Frc consts  --      0.0956                 0.0646                 0.0964
 IR Inten    --      7.1125                10.8914                12.7149

                      7                      8                      9
                      A                      A                      A
 Frequencies --    284.5244               333.6170               339.9465
 Red. masses --      1.6159                 2.4263                 2.6653
 Frc consts  --      0.0771                 0.1591                 0.1815
 IR Inten    --     43.9292                30.8455                 8.4329

                     10                     11                     12
                      A                      A                      A
 Frequencies --    400.2320               416.9201               461.7010
 Red. masses --      4.8571                 3.1215                 4.0026
 Frc consts  --      0.4584                 0.3197                 0.5027
 IR Inten    --      2.2706                21.9694                 1.0980

                     13                     14                     15
                      A                      A                      A
 Frequencies --    496.2792               506.2170               534.4137
 Red. masses --      2.8666                 3.8667                 3.0780
 Frc consts  --      0.4160                 0.5838                 0.5179
 IR Inten    --     19.4908                11.3602                15.0503

                     16                     17                     18
                      A                      A                      A
 Frequencies --    581.0078               620.6991               654.8829
 Red. masses --      1.6881                 5.3123                 2.4687
 Frc consts  --      0.3357                 1.2059                 0.6238
 IR Inten    --    167.3287                 7.6306                37.7778

                     19                     20                     21
                      A                      A                      A
 Frequencies --    700.1114               731.6026               765.5444
 Red. masses --      5.2125                 5.7783                 4.0541
 Frc consts  --      1.5053                 1.8222                 1.3999
 IR Inten    --     25.2913                13.1747                19.5354

                     22                     23                     24
                      A                      A                      A
 Frequencies --    787.6202               843.3419               905.5182
 Red. masses --      3.4242                 1.3100                 2.8605
 Frc consts  --      1.2515                 0.5490                 1.3819
 IR Inten    --      4.8214                19.3084                 3.8451

                     25                     26                     27
                      A                      A                      A
 Frequencies --    921.9224               950.3567               963.5909
 Red. masses --      1.4465                 2.5189                 2.6981
 Frc consts  --      0.7244                 1.3404                 1.4760
 IR Inten    --      6.9896                 6.1643                11.2007

                     28                     29                     30
                      A                      A                      A
 Frequencies --    965.8053              1025.5853              1032.3946
 Red. masses --      1.4164                 2.2993                 1.8005
 Frc consts  --      0.7784                 1.4249                 1.1307
 IR Inten    --      1.5668                18.9187                 0.2019

                     31                     32                     33
                      A                      A                      A
 Frequencies --   1079.6968              1118.4514              1173.2338
 Red. masses --      1.9735                 2.7907                 1.4459
 Frc consts  --      1.3554                 2.0568                 1.1726
 IR Inten    --      5.3359                17.6825                 4.0270

                     34                     35                     36
                      A                      A                      A
 Frequencies --   1202.9806              1212.5112              1224.8149
 Red. masses --      1.8222                 1.1807                 2.0007
 Frc consts  --      1.5537                 1.0227                 1.7684
 IR Inten    --      2.9511                 0.0858                62.5337

                     37                     38                     39
                      A                      A                      A
 Frequencies --   1241.8133              1281.3485              1314.2934
 Red. masses --      2.8425                 1.5701                 1.3471
 Frc consts  --      2.5826                 1.5189                 1.3710
 IR Inten    --     31.7749                18.7058                 4.0687

                     40                     41                     42
                      A                      A                      A
 Frequencies --   1353.0754              1380.7792              1398.6901
 Red. masses --      1.9893                 1.9478                 1.9066
 Frc consts  --      2.1458                 2.1880                 2.1976
 IR Inten    --     13.1767                14.9461                 5.7882

                     43                     44                     45
                      A                      A                      A
 Frequencies --   1411.9881              1437.0839              1472.5892
 Red. masses --      3.1321                 1.6821                 2.4471
 Frc consts  --      3.6791                 2.0468                 3.1265
 IR Inten    --    111.3317                20.7807                17.7491

                     46                     47                     48
                      A                      A                      A
 Frequencies --   1496.6842              1527.8441              1538.1761
 Red. masses --      1.1304                 1.1352                 2.6582
 Frc consts  --      1.4920                 1.5612                 3.7055
 IR Inten    --      4.4570                 1.9320                 0.1695

                     49                     50                     51
                      A                      A                      A
 Frequencies --   1630.7378              1651.6484              1665.3650
 Red. masses --      5.7787                 2.2475                 2.0674
 Frc consts  --      9.0542                 3.6123                 3.3783
 IR Inten    --      6.0752                48.0868                69.2343

                     52                     53                     54
                      A                      A                      A
 Frequencies --   1721.0840              1797.7618              2914.2088
 Red. masses --      5.2443                 9.6946                 1.0841
 Frc consts  --      9.1525                18.4606                 5.4245
 IR Inten    --    255.4789               254.4910               151.8251

                     55                     56                     57
                      A                      A                      A
 Frequencies --   2996.9721              3024.1116              3084.8435
 Red. masses --      1.0733                 1.0662                 1.0917
 Frc consts  --      5.6800                 5.7451                 6.1209
 IR Inten    --     54.1028                24.2470                56.3932

                     58                     59                     60
                      A                      A                      A
 Frequencies --   3090.4100              3181.5091              3199.0731
 Red. masses --      1.0951                 1.0873                 1.0943
 Frc consts  --      6.1622                 6.4845                 6.5984
 IR Inten    --     33.0390                 5.9193                18.7707

                     61                     62                     63
                      A                      A                      A
 Frequencies --   3207.1541              3577.3179              3695.5168
 Red. masses --      1.0895                 1.0477                 1.0989
 Frc consts  --      6.6024                 7.8997                 8.8418
 IR Inten    --      4.3455                23.2292                20.5460

 - Thermochemistry -
 -------------------
 Temperature   298.150 Kelvin.  Pressure   1.00000 Atm.
 Atom     1 has atomic number  6 and mass  12.00000

 Molecular mass:   174.07931 amu.
 Principal axes and moments of inertia in atomic units:
                           1         2         3
     Eigenvalues --  1220.287463066.759944178.45560
           X            1.00000   0.00025   0.00261
           Y           -0.00025   1.00000  -0.00060
           Z           -0.00261   0.00059   1.00000
 This molecule is an asymmetric top.
 Rotational symmetry number  1.
 Warning -- assumption of classical behavior for rotation
           may cause significant error
 Rotational temperatures (Kelvin)      0.07098     0.02824     0.02073
 Rotational constants (GHZ):           1.47895     0.58848     0.43192
 Zero-point vibrational energy     487389.7 (Joules/Mol)
                                  116.48893 (Kcal/Mol)
 Warning -- explicit consideration of  17 degrees of freedom as
           vibrations may cause significant error
 Vibrational temperatures:     96.32   182.68   209.41   222.98   293.10
          (Kelvin)            373.25   409.37   480.00   489.11   575.84
                              599.86   664.28   714.04   728.33   768.90
                              835.94   893.05   942.23  1007.30  1052.61
                             1101.45  1133.21  1213.38  1302.84  1326.44
                             1367.35  1386.39  1389.58  1475.59  1485.39
                             1553.44  1609.20  1688.02  1730.82  1744.53
                             1762.24  1786.69  1843.57  1890.98  1946.77
                             1986.63  2012.40  2031.54  2067.64  2118.73
                             2153.39  2198.23  2213.09  2346.27  2376.35
                             2396.09  2476.26  2586.58  4192.90  4311.97
                             4351.02  4438.40  4446.41  4577.48  4602.75
                             4614.38  5146.96  5317.02

 Zero-point correction=                           0.185637 (Hartree/Particle)
 Thermal correction to Energy=                    0.196384
 Thermal correction to Enthalpy=                  0.197329
 Thermal correction to Gibbs Free Energy=         0.149302
 Sum of electronic and zero-point Energies=           -571.671013
 Sum of electronic and thermal Energies=              -571.660266
 Sum of electronic and thermal Enthalpies=            -571.659322
 Sum of electronic and thermal Free Energies=         -571.707349

                     E (Thermal)             CV                S
                      KCal/Mol        Cal/Mol-Kelvin    Cal/Mol-Kelvin
 Total                  123.233             42.398            101.081
 Electronic               0.000              0.000              0.000
 Translational            0.889              2.981             41.370
 Rotational               0.889              2.981             31.126
 Vibrational            121.456             36.436             28.585
 Vibration     1          0.598              1.970              4.241
 Vibration     2          0.611              1.926              2.991
 Vibration     3          0.617              1.907              2.730
 Vibration     4          0.620              1.897              2.610
 Vibration     5          0.639              1.835              2.099
 Vibration     6          0.668              1.747              1.666
 Vibration     7          0.683              1.702              1.506
 Vibration     8          0.715              1.608              1.243
 Vibration     9          0.720              1.596              1.212
 Vibration    10          0.766              1.470              0.962
 Vibration    11          0.780              1.433              0.902
 Vibration    12          0.819              1.335              0.761
 Vibration    13          0.852              1.258              0.667
 Vibration    14          0.861              1.236              0.643
 Vibration    15          0.889              1.174              0.577
 Vibration    16          0.938              1.072              0.483
 Vibration    17          0.981              0.988              0.415

 Optimization completed.
    -- Stationary point found.
 Normal termination of Gaussian 16 at Wed Dec  9 23:21:25 2020.

 ----------------------------------------------------------------------
 # B3LYP/6-311++G(d,p) empiricaldispersion=gd3bj scf=xqc pop=npa geom=c
 heck
 ----------------------------------------------------------------------

 --------------------------------------
 CID_88161867_JID_3459_Energie_neutraal
 --------------------------------------
 Structure from the checkpoint file:  "JID_3459.chk"
 Charge =  0 Multiplicity = 1

 SCF Done:  E(RB3LYP) =  -572.016264949     A.U. after   15 cycles
 Normal termination of Gaussian 16 at Wed Dec  9 23:23:13 2020.

 ----------------------------------------------------------------------
 # B3LYP/6-311++G(d,p) empiricaldispersion=gd3bj scf=xqc pop=npa geom=c
 heck
 ----------------------------------------------------------------------

 ------------------------------------
 CID_88161867_JID_3459_Energie_kation
 ------------------------------------
 Structure from the checkpoint file:  "JID_3459.chk"
 Charge =  1 Multiplicity = 2

 SCF Done:  E(UB3LYP) =  -571.709566601     A.U. after   33 cycles
 SCF Done:  E(UB3LYP) =  -571.709566601     a.u. after    1 cycles
 Normal termination of Gaussian 16 at Wed Dec  9 23:28:18 2020.
 Gaussian 16:  ES64L-G16RevA.03 25-Dec-2016

 ----------------------------------------------------------------------
 # B3LYP/6-311++G(d,p) empiricaldispersion=gd3bj scf=xqc pop=npa geom=c
 heck
 ----------------------------------------------------------------------

 -----------------------------------
 CID_88161867_JID_3459_Energie_anion
 -----------------------------------
 Structure from the checkpoint file:  "JID_3459.chk"
 Charge = -1 Multiplicity = 2

                         Standard orientation:
 ---------------------------------------------------------------------
 Center     Atomic      Atomic             Coordinates (Angstroms)
 Number     Number       Type             X           Y           Z
 ---------------------------------------------------------------------
      1          6           0        2.156394   -1.475713   -0.270548
      2          6           0        2.980825   -0.495603    0.572407
      3          7           0        2.714349    0.900095    0.251785
      4          6           0        1.508224    1.217453   -0.060525
      5          6           0        0.371246    0.251493   -0.082429
      6          6           0        0.697758   -1.120844   -0.170091
      7          6           0       -0.318944   -2.076413   -0.169141
      8          6           0       -1.653410   -1.688604   -0.077777
      9          6           0       -1.981536   -0.332560    0.018695
     10          6           0       -0.964378    0.630696    0.017384
     11          6           0       -3.392976    0.087798    0.125925
     12          8           0       -3.763801    1.243093    0.219177
     13          7           0        1.240033    2.518068   -0.444759
     14          1           0        2.329523   -2.512571    0.038274
     15          1           0        2.476670   -1.391006   -1.319838
     16          1           0        2.779722   -0.671131    1.641854
     17          1           0        4.049002   -0.683628    0.421433
     18          1           0       -0.058953   -3.129228   -0.237618
     19          1           0       -2.444454   -2.434988   -0.075108
     20          1           0       -1.271099    1.667829    0.111270
     21          1           0       -4.128284   -0.746902    0.116762
     22          1           0        0.303731    2.873862   -0.324167
     23          1           0        1.974661    3.169651   -0.198854
 ---------------------------------------------------------------------

 SCF Done:  E(UB3LYP) =  -572.036146177     A.U. after   28 cycles

 The electronic state is 2-A.
 Alpha  occ. eigenvalues --  -18.92045 -14.20354 -14.15659 -10.11746 -10.07184
 Alpha  occ. eigenvalues --  -10.05626 -10.04617 -10.04150 -10.02944 -10.02786
 Alpha  occ. eigenvalues --  -10.02534 -10.02412 -10.01161  -0.85853  -0.83265
 Alpha  occ. eigenvalues --   -0.75479  -0.71358  -0.64420  -0.61741  -0.59510
 Alpha  occ. eigenvalues --   -0.52300  -0.49214  -0.47109  -0.43834  -0.41858
 Alpha  occ. eigenvalues --   -0.38712  -0.36521  -0.34776  -0.33490  -0.31643
 Alpha  occ. eigenvalues --   -0.30046  -0.28484  -0.28154  -0.26601  -0.25911
 Alpha  occ. eigenvalues --   -0.25255  -0.24809  -0.23342  -0.21784  -0.19912
 Alpha  occ. eigenvalues --   -0.19665  -0.13066  -0.12423  -0.11278  -0.10087
 Alpha  occ. eigenvalues --   -0.08275   0.04292
 Alpha virt. eigenvalues --    0.08539   0.09004   0.09611   0.09908   0.10942
 Alpha virt. eigenvalues --    0.11345   0.12529   0.12727   0.13420   0.14615
 Alpha virt. eigenvalues --    0.15119   0.15768   0.16859   0.17503   0.17731

  Beta  occ. eigenvalues --  -18.91463 -14.20341 -14.15678 -10.11724 -10.07165
  Beta  occ. eigenvalues --  -10.05313 -10.04654 -10.04241 -10.03023 -10.02632
  Beta  occ. eigenvalues --  -10.02319 -10.01941 -10.01047  -0.84797  -0.83248
  Beta  occ. eigenvalues --   -0.75442  -0.70981  -0.64070  -0.61480  -0.59212
  Beta  occ. eigenvalues --   -0.51974  -0.48976  -0.46626  -0.43351  -0.41789
  Beta  occ. eigenvalues --   -0.38425  -0.36356  -0.34643  -0.33221  -0.31457
  Beta  occ. eigenvalues --   -0.29912  -0.28372  -0.27948  -0.26288  -0.25721
  Beta  occ. eigenvalues --   -0.24726  -0.24295  -0.21736  -0.21591  -0.19647
  Beta  occ. eigenvalues --   -0.17962  -0.12801  -0.12193  -0.10525  -0.08526
  Beta  occ. eigenvalues --   -0.07756
  Beta virt. eigenvalues --    0.08461   0.09038   0.09800   0.10045   0.10625
  Beta virt. eigenvalues --    0.11120   0.11654   0.12514   0.12712   0.13422
  Beta virt. eigenvalues --    0.14617   0.15698   0.15857   0.16958   0.17491

 Mulliken charges and spin densities:
               1          2
     1  C   -0.346396  -0.017162
     2  C   -0.478679  -0.080257
     3  N   -0.125023  -0.006001
     4  C   -0.772729   0.039664
     5  C    0.575854  -0.053630
     6  C    1.031755   0.273983
     7  C   -0.583398  -0.009092
     8  C   -0.937913   0.167569
     9  C    1.232220   0.054059
    10  C   -0.800733   0.141449
    11  C   -0.284660   0.235895
    12  O   -0.397564   0.195867
    13  N   -0.292471   0.004834
    14  H    0.108044  -0.004415
    15  H    0.077017   0.069035
    16  H    0.111420   0.001202
    17  H    0.121067   0.022230
    18  H    0.086258   0.004243
    19  H    0.084480  -0.011854
    20  H    0.070495  -0.013491
    21  H    0.026650  -0.020458
    22  H    0.248640   0.003225
    23  H    0.245665   0.003106
 Sum of Mulliken charges =  -1.00000   1.00000

 Dipole moment (field-independent basis, Debye):
    X=              5.2799    Y=             -1.6974    Z=              0.0959  Tot=              5.5468
 Quadrupole moment (field-independent basis, Debye-Ang):
   XX=           -130.8996   YY=            -84.6256   ZZ=            -86.4529
   XY=              6.4820   XZ=              2.2461   YZ=             -0.2661

 Summary of Natural Population Analysis:

                                       Natural Population
                Natural  -----------------------------------------------
    Atom  No    Charge         Core      Valence    Rydberg      Total
 -----------------------------------------------------------------------
      C    1   -0.20554      0.99961     2.19930    0.00664     3.20554
      C    2   -0.08584      0.99963     2.07621    0.00999     3.08584
      N    3   -0.30070      0.99966     2.78506    0.01598     3.80070
      C    4    0.22847      0.99954     1.75475    0.01724     2.77153
      C    5   -0.08871      0.99944     2.07954    0.00973     3.08871
      C    6    0.08472      0.99950     1.90762    0.00817     2.91528
      C    7   -0.13286      0.99953     2.12432    0.00901     3.13286
      C    8   -0.03523      0.99954     2.02696    0.00873     3.03523
      C    9   -0.06185      0.99949     2.05334    0.00902     3.06185
      C   10   -0.03786      0.99950     2.02991    0.00845     3.03786
      C   11    0.24421      0.99969     1.73509    0.02101     2.75579
      O   12   -0.24670      0.99988     3.23892    0.00790     4.24670
      N   13   -0.39889      0.99971     2.89044    0.00874     3.89889
      H   14    0.09614      0.00000     0.40263    0.00124     0.40386
      H   15    0.09996      0.00000     0.39815    0.00189     0.40004
      H   16    0.08362      0.00000     0.41491    0.00147     0.41638
      H   17    0.08390      0.00000     0.41402    0.00208     0.41610
      H   18    0.08895      0.00000     0.40945    0.00160     0.41105
      H   19    0.08769      0.00000     0.41035    0.00196     0.41231
      H   20    0.09664      0.00000     0.40116    0.00220     0.40336
      H   21    0.02548      0.00000     0.47145    0.00307     0.47452
      H   22    0.18914      0.00000     0.30960    0.00125     0.31086
      H   23    0.18524      0.00000     0.31307    0.00169     0.31476
 =======================================================================
   * Total *    0.00000     12.99470    32.84624    0.15906    46.00000

 Normal termination of Gaussian 16 at Wed Dec  9 23:32:39 2020.
