 Gaussian 16, Revision A.03,

 -----------------------------------------------------------
 # opt freq B3LYP/6-31G(d) empiricaldispersion=gd3bj scf=xqc
 -----------------------------------------------------------

 ------------------------------
 CID_68303216_JID_2638_neutraal
 ------------------------------
 Symbolic Z-matrix:
 Charge =  0 Multiplicity = 1

 SCF Done:  E(RB3LYP) =  -561.988489262     A.U. after   14 cycles
 SCF Done:  E(RB3LYP) =  -561.989817021     A.U. after   12 cycles
 SCF Done:  E(RB3LYP) =  -561.990552050     A.U. after   12 cycles
 SCF Done:  E(RB3LYP) =  -561.990620284     A.U. after   11 cycles
 SCF Done:  E(RB3LYP) =  -561.990646839     A.U. after   10 cycles
 SCF Done:  E(RB3LYP) =  -561.990662187     A.U. after    9 cycles
 SCF Done:  E(RB3LYP) =  -561.990665464     A.U. after    9 cycles
 SCF Done:  E(RB3LYP) =  -561.990667164     A.U. after    9 cycles
 SCF Done:  E(RB3LYP) =  -561.990667890     A.U. after    8 cycles
 SCF Done:  E(RB3LYP) =  -561.990668332     A.U. after    8 cycles
 SCF Done:  E(RB3LYP) =  -561.990713808     A.U. after   10 cycles
 SCF Done:  E(RB3LYP) =  -561.990715479     A.U. after    8 cycles
 SCF Done:  E(RB3LYP) =  -561.990715570     A.U. after    7 cycles
 SCF Done:  E(RB3LYP) =  -561.990713122     A.U. after   10 cycles
 SCF Done:  E(RB3LYP) =  -561.990715680     A.U. after   10 cycles
 SCF Done:  E(RB3LYP) =  -561.990715710     A.U. after    7 cycles
 Optimization completed.
    -- Stationary point found.
 Normal termination of Gaussian 16 at Wed Dec  9 17:52:16 2020.

 --------------------------------------------------------------------
 #N Geom=AllCheck Guess=TCheck SCRF=Check GenChk RB3LYP/6-31G(d) Freq
 --------------------------------------------------------------------

 Structure from the checkpoint file:  "JID_2638.chk"
 ------------------------------
 CID_68303216_JID_2638_neutraal
 ------------------------------
 Charge =  0 Multiplicity = 1

 SCF Done:  E(RB3LYP) =  -561.990715710     A.U. after    1 cycles

  Exact polarizability: 124.241   2.604  94.453   0.045   1.539  53.648
 Approx polarizability: 167.875   2.064 165.962  -1.589   8.623  86.158

                      1                      2                      3
                      A                      A                      A
 Frequencies --     33.6681                48.6358                64.1895
 Red. masses --      1.0228                 4.8781                 6.1274
 Frc consts  --      0.0007                 0.0068                 0.0149
 IR Inten    --      0.1031                 1.2592                 0.7327

                      4                      5                      6
                      A                      A                      A
 Frequencies --    103.9517               196.0946               243.3990
 Red. masses --      4.6545                 4.6306                 3.9015
 Frc consts  --      0.0296                 0.1049                 0.1362
 IR Inten    --      0.7249                 5.3611                 8.8164

                      7                      8                      9
                      A                      A                      A
 Frequencies --    267.6489               329.7956               358.6166
 Red. masses --      3.6893                 3.1080                 6.0211
 Frc consts  --      0.1557                 0.1992                 0.4562
 IR Inten    --      2.0897                 2.0578                 0.8229

                     10                     11                     12
                      A                      A                      A
 Frequencies --    403.6870               538.8700               629.5779
 Red. masses --      3.6479                 1.5026                 4.0924
 Frc consts  --      0.3503                 0.2571                 0.9557
 IR Inten    --      2.7387                70.8229                19.6452

                     13                     14                     15
                      A                      A                      A
 Frequencies --    654.0340               689.0506               694.3161
 Red. masses --      3.4239                 3.6549                 2.6289
 Frc consts  --      0.8629                 1.0224                 0.7467
 IR Inten    --      0.5240                12.3266                10.6046

                     16                     17                     18
                      A                      A                      A
 Frequencies --    717.2039               762.7624               771.9710
 Red. masses --      4.7624                 1.3577                 3.9978
 Frc consts  --      1.4433                 0.4654                 1.4037
 IR Inten    --     13.2712                78.6267                 2.1303

                     19                     20                     21
                      A                      A                      A
 Frequencies --    815.9323               889.7344               963.8890
 Red. masses --      5.1048                 1.3545                 2.2180
 Frc consts  --      2.0023                 0.6317                 1.2141
 IR Inten    --     20.1796                12.3085                 5.4517

                     22                     23                     24
                      A                      A                      A
 Frequencies --    988.9389              1008.9253              1032.0975
 Red. masses --      8.4370                 1.6485                 5.0928
 Frc consts  --      4.8616                 0.9887                 3.1963
 IR Inten    --     13.8916                 5.7672                 3.1221

                     25                     26                     27
                      A                      A                      A
 Frequencies --   1061.0229              1076.1859              1090.2934
 Red. masses --      3.9799                 1.5576                 5.0725
 Frc consts  --      2.6398                 1.0629                 3.5527
 IR Inten    --     17.0665                 7.5896                 6.2487

                     28                     29                     30
                      A                      A                      A
 Frequencies --   1124.1384              1151.4617              1202.5611
 Red. masses --      3.0747                 3.2323                 1.6377
 Frc consts  --      2.2893                 2.5250                 1.3954
 IR Inten    --     44.4621                23.2860                 2.5452

                     31                     32                     33
                      A                      A                      A
 Frequencies --   1216.8117              1301.5654              1303.2758
 Red. masses --      2.0523                 1.9857                 2.1113
 Frc consts  --      1.7903                 1.9820                 2.1129
 IR Inten    --     12.5868                28.0147                44.7628

                     34                     35                     36
                      A                      A                      A
 Frequencies --   1321.5608              1328.1281              1394.7089
 Red. masses --      2.7393                 1.6775                 3.5527
 Frc consts  --      2.8188                 1.7433                 4.0717
 IR Inten    --      4.4594                36.1391                36.8099

                     37                     38                     39
                      A                      A                      A
 Frequencies --   1437.2305              1443.2345              1459.7458
 Red. masses --      3.5058                 1.4513                 2.4372
 Frc consts  --      4.2666                 1.7810                 3.0598
 IR Inten    --      1.7631                 9.4322                27.3839

                     40                     41                     42
                      A                      A                      A
 Frequencies --   1490.3018              1506.6798              1513.8742
 Red. masses --      1.3219                 1.0622                 2.6401
 Frc consts  --      1.7298                 1.4206                 3.5649
 IR Inten    --     24.6705                 8.3867                23.1945

                     43                     44                     45
                      A                      A                      A
 Frequencies --   1525.2392              1555.1511              1596.4487
 Red. masses --      1.3945                 4.2440                 4.5243
 Frc consts  --      1.9114                 6.0474                 6.7937
 IR Inten    --      6.1410                12.0599               135.2127

                     46                     47                     48
                      A                      A                      A
 Frequencies --   1608.1210              3029.6622              3062.6357
 Red. masses --      4.5785                 1.0727                 1.0390
 Frc consts  --      6.9761                 5.8011                 5.7418
 IR Inten    --     32.1048                 9.4206                12.2207

                     49                     50                     51
                      A                      A                      A
 Frequencies --   3124.5188              3141.5102              3156.1508
 Red. masses --      1.0996                 1.0895                 1.1019
 Frc consts  --      6.3247                 6.3350                 6.4672
 IR Inten    --      9.9253                 0.8102                 5.1397

                     52                     53                     54
                      A                      A                      A
 Frequencies --   3275.6979              3590.6722              3653.8828
 Red. masses --      1.0968                 1.0836                 1.0820
 Frc consts  --      6.9342                 8.2310                 8.5109
 IR Inten    --     10.2602               182.4122                72.4175

 - Thermochemistry -
 -------------------
 Temperature   298.150 Kelvin.  Pressure   1.00000 Atm.
 Atom     1 has atomic number  6 and mass  12.00000

 Molecular mass:   164.08104 amu.
 Principal axes and moments of inertia in atomic units:
                           1         2         3
     Eigenvalues --   757.485133321.603673948.59228
           X            0.99975   0.02214  -0.00146
           Y           -0.02215   0.99972  -0.00833
           Z            0.00128   0.00836   0.99996
 This molecule is an asymmetric top.
 Rotational symmetry number  1.
 Warning -- assumption of classical behavior for rotation
           may cause significant error
 Rotational temperatures (Kelvin)      0.11434     0.02608     0.02194
 Rotational constants (GHZ):           2.38254     0.54333     0.45706
 Zero-point vibrational energy     412409.4 (Joules/Mol)
                                   98.56820 (Kcal/Mol)
 Warning -- explicit consideration of  11 degrees of freedom as
           vibrations may cause significant error
 Vibrational temperatures:     48.44    69.98    92.35   149.56   282.14
          (Kelvin)            350.20   385.09   474.50   515.97   580.82
                              775.31   905.82   941.01   991.39   998.97
                             1031.90  1097.44  1110.69  1173.94  1280.13
                             1386.82  1422.86  1451.62  1484.96  1526.58
                             1548.39  1568.69  1617.38  1656.70  1730.22
                             1750.72  1872.66  1875.12  1901.43  1910.88
                             2006.67  2067.85  2076.49  2100.25  2144.21
                             2167.78  2178.13  2194.48  2237.52  2296.93
                             2313.73  4359.01  4406.45  4495.49  4519.93
                             4541.00  4713.00  5166.18  5257.12

 Zero-point correction=                           0.157078 (Hartree/Particle)
 Thermal correction to Energy=                    0.167240
 Thermal correction to Enthalpy=                  0.168185
 Thermal correction to Gibbs Free Energy=         0.119239
 Sum of electronic and zero-point Energies=           -561.833637
 Sum of electronic and thermal Energies=              -561.823475
 Sum of electronic and thermal Enthalpies=            -561.822531
 Sum of electronic and thermal Free Energies=         -561.871476

                     E (Thermal)             CV                S
                      KCal/Mol        Cal/Mol-Kelvin    Cal/Mol-Kelvin
 Total                  104.945             36.641            103.014
 Electronic               0.000              0.000              0.000
 Translational            0.889              2.981             41.194
 Rotational               0.889              2.981             30.675
 Vibrational            103.167             30.679             31.145
 Vibration     1          0.594              1.983              5.601
 Vibration     2          0.595              1.978              4.872
 Vibration     3          0.597              1.971              4.324
 Vibration     4          0.605              1.946              3.379
 Vibration     5          0.636              1.845              2.169
 Vibration     6          0.659              1.774              1.778
 Vibration     7          0.673              1.733              1.611
 Vibration     8          0.713              1.616              1.261
 Vibration     9          0.733              1.558              1.128
 Vibration    10          0.769              1.462              0.949
 Vibration    11          0.894              1.164              0.568

 Optimization completed.
    -- Stationary point found.
 Normal termination of Gaussian 16 at Wed Dec  9 17:56:35 2020.

 ----------------------------------------------------------------------
 # B3LYP/6-311++G(d,p) empiricaldispersion=gd3bj scf=xqc pop=npa geom=c
 heck
 ----------------------------------------------------------------------

 --------------------------------------
 CID_68303216_JID_2638_Energie_neutraal
 --------------------------------------
 Structure from the checkpoint file:  "JID_2638.chk"
 Charge =  0 Multiplicity = 1

 SCF Done:  E(RB3LYP) =  -562.146068887     A.U. after   15 cycles
 Normal termination of Gaussian 16 at Wed Dec  9 17:58:46 2020.

 ----------------------------------------------------------------------
 # B3LYP/6-311++G(d,p) empiricaldispersion=gd3bj scf=xqc pop=npa geom=c
 heck
 ----------------------------------------------------------------------

 ------------------------------------
 CID_68303216_JID_2638_Energie_kation
 ------------------------------------
 Structure from the checkpoint file:  "JID_2638.chk"
 Charge =  1 Multiplicity = 2

 SCF Done:  E(UB3LYP) =  -561.812502147     A.U. after   28 cycles
 Normal termination of Gaussian 16 at Wed Dec  9 18:03:24 2020.
 Gaussian 16:  ES64L-G16RevA.03 25-Dec-2016

 ----------------------------------------------------------------------
 # B3LYP/6-311++G(d,p) empiricaldispersion=gd3bj scf=xqc pop=npa geom=c
 heck
 ----------------------------------------------------------------------

 -----------------------------------
 CID_68303216_JID_2638_Energie_anion
 -----------------------------------
 Structure from the checkpoint file:  "JID_2638.chk"
 Charge = -1 Multiplicity = 2

                         Standard orientation:
 ---------------------------------------------------------------------
 Center     Atomic      Atomic             Coordinates (Angstroms)
 Number     Number       Type             X           Y           Z
 ---------------------------------------------------------------------
      1          6           0        3.324623    1.675783    0.004982
      2          6           0        2.425285    0.486563    0.012579
      3          7           0        1.160167    0.447666    0.410156
      4          6           0        0.780252   -0.850684    0.178951
      5          7           0        1.733676   -1.615462   -0.331194
      6          7           0        2.775242   -0.743778   -0.425009
      7          6           0       -0.584243   -1.378100    0.510425
      8          6           0       -1.703031   -0.445626    0.151506
      9          7           0       -2.939116   -0.795527   -0.182527
     10          6           0       -3.556357    0.409374   -0.355998
     11          7           0       -2.792629    1.475285   -0.155007
     12          7           0       -1.608288    0.901753    0.178524
     13          1           0        4.378196    1.381021    0.027404
     14          1           0        3.159461    2.284874   -0.891355
     15          1           0        3.116015    2.300056    0.876980
     16          1           0        3.658965   -1.060841   -0.797228
     17          1           0       -0.632011   -1.590836    1.588560
     18          1           0       -0.740864   -2.328958   -0.002958
     19          1           0       -4.595087    0.502757   -0.641912
     20          1           0       -0.767213    1.438507    0.361235
 ---------------------------------------------------------------------

 SCF Done:  E(UB3LYP) =  -562.141778593     A.U. after   29 cycles

 The electronic state is 2-A.
 Alpha  occ. eigenvalues --  -14.29835 -14.28888 -14.25188 -14.24109 -14.21797
 Alpha  occ. eigenvalues --  -14.20996 -10.15925 -10.15152 -10.13524 -10.13231
 Alpha  occ. eigenvalues --  -10.11088 -10.07269  -0.98866  -0.97868  -0.80813
 Alpha  occ. eigenvalues --   -0.80251  -0.76247  -0.74062  -0.65987  -0.62729
 Alpha  occ. eigenvalues --   -0.54796  -0.52936  -0.52067  -0.50281  -0.45350
 Alpha  occ. eigenvalues --   -0.43197  -0.39087  -0.37347  -0.36795  -0.35734
 Alpha  occ. eigenvalues --   -0.33497  -0.32460  -0.31712  -0.30436  -0.29370
 Alpha  occ. eigenvalues --   -0.24496  -0.23894  -0.21435  -0.20090  -0.19771
 Alpha  occ. eigenvalues --   -0.19281  -0.17841  -0.16328   0.04388
 Alpha virt. eigenvalues --    0.07328   0.07969   0.08290   0.09159   0.09519
 Alpha virt. eigenvalues --    0.10301   0.10806   0.11711   0.11860   0.12645
 Alpha virt. eigenvalues --    0.12996   0.13737   0.13862   0.14954   0.15489

  Beta  occ. eigenvalues --  -14.29826 -14.28801 -14.25184 -14.24101 -14.21796
  Beta  occ. eigenvalues --  -14.20980 -10.15921 -10.15155 -10.13524 -10.13231
  Beta  occ. eigenvalues --  -10.11085 -10.07173  -0.98856  -0.97825  -0.80804
  Beta  occ. eigenvalues --   -0.80193  -0.76222  -0.74013  -0.65954  -0.62604
  Beta  occ. eigenvalues --   -0.54768  -0.52923  -0.51965  -0.50245  -0.45300
  Beta  occ. eigenvalues --   -0.43123  -0.39059  -0.37314  -0.36769  -0.35675
  Beta  occ. eigenvalues --   -0.33467  -0.32434  -0.31656  -0.30362  -0.29285
  Beta  occ. eigenvalues --   -0.24484  -0.23851  -0.21414  -0.20059  -0.19762
  Beta  occ. eigenvalues --   -0.19265  -0.17819  -0.16294
  Beta virt. eigenvalues --    0.07106   0.07919   0.08266   0.09216   0.09720
  Beta virt. eigenvalues --    0.10009   0.10722   0.11231   0.11841   0.12204
  Beta virt. eigenvalues --    0.12966   0.13570   0.13731   0.13987   0.15250

 Mulliken charges and spin densities:
               1          2
     1  C    4.408437  -5.000043
     2  C   -1.900068   2.332215
     3  N   -0.155057  -0.003516
     4  C   -0.528782   0.650947
     5  N    0.044574  -0.025691
     6  N    0.048824  -0.278909
     7  C   -0.619187  -0.440550
     8  C    0.040794  -0.012274
     9  N   -0.137534   0.005075
    10  C   -0.065844   0.046944
    11  N    0.022553  -0.015196
    12  N   -0.228013  -0.011829
    13  H   -0.868328   1.044408
    14  H   -0.598692   0.785150
    15  H   -0.443960   0.610455
    16  H   -0.729705   1.107058
    17  H    0.074555   0.124617
    18  H    0.188102   0.016430
    19  H    0.132401   0.021180
    20  H    0.314929   0.043529
 Sum of Mulliken charges =  -1.00000   1.00000

 Dipole moment (field-independent basis, Debye):
    X=            -11.3157    Y=             -1.8204    Z=              2.0944  Tot=             11.6509
 Quadrupole moment (field-independent basis, Debye-Ang):
   XX=           -166.6845   YY=           -107.1756   ZZ=            -92.1781
   XY=             -4.8210   XZ=              7.3869   YZ=             -2.1057

 Summary of Natural Population Analysis:

                                       Natural Population
                Natural  -----------------------------------------------
    Atom  No    Charge         Core      Valence    Rydberg      Total
 -----------------------------------------------------------------------
      C    1   -0.30988      0.99963     2.30355    0.00670     3.30988
      C    2    0.21202      0.99962     1.77293    0.01542     2.78798
      N    3   -0.29983      0.99966     2.78909    0.01107     3.79983
      C    4    0.17276      0.99964     1.80818    0.01942     2.82724
      N    5   -0.16152      0.99969     2.64943    0.01239     3.66152
      N    6   -0.17154      0.99964     2.65887    0.01303     3.67154
      C    7   -0.22885      0.99955     2.22082    0.00848     3.22885
      C    8    0.19989      0.99963     1.78423    0.01624     2.80011
      N    9   -0.27217      0.99970     2.76253    0.00993     3.77217
      C   10    0.08093      0.99971     1.89980    0.01956     2.91907
      N   11   -0.16149      0.99974     2.64978    0.01196     3.66149
      N   12   -0.18096      0.99963     2.67006    0.01126     3.68096
      H   13    0.11993      0.00000     0.36953    0.01053     0.38007
      H   14    0.11549      0.00000     0.38181    0.00270     0.38451
      H   15    0.11446      0.00000     0.38341    0.00213     0.38554
      H   16    0.21784      0.00000     0.25713    0.02503     0.28216
      H   17    0.11652      0.00000     0.38232    0.00116     0.38348
      H   18    0.12400      0.00000     0.37457    0.00143     0.37600
      H   19    0.09003      0.00000     0.40921    0.00077     0.40997
      H   20    0.22238      0.00000     0.27479    0.00284     0.27762
 =======================================================================
   * Total *    0.00000     11.99586    30.80206    0.20207    43.00000

 Normal termination of Gaussian 16 at Wed Dec  9 18:08:13 2020.
