 Gaussian 16, Revision A.03,

 -----------------------------------------------------------
 # opt freq B3LYP/6-31G(d) empiricaldispersion=gd3bj scf=xqc
 -----------------------------------------------------------

 ------------------------------
 CID_65771011_JID_5636_neutraal
 ------------------------------
 Symbolic Z-matrix:
 Charge =  0 Multiplicity = 1

 SCF Done:  E(RB3LYP) =  -1068.47946365     A.U. after   14 cycles
 SCF Done:  E(RB3LYP) =  -1068.48407874     A.U. after   12 cycles
 SCF Done:  E(RB3LYP) =  -1068.48536802     A.U. after   12 cycles
 SCF Done:  E(RB3LYP) =  -1068.48658350     A.U. after   12 cycles
 SCF Done:  E(RB3LYP) =  -1068.48984842     A.U. after   15 cycles
 SCF Done:  E(RB3LYP) =  -1068.49155467     A.U. after   12 cycles
 SCF Done:  E(RB3LYP) =  -1068.49278484     A.U. after   12 cycles
 SCF Done:  E(RB3LYP) =  -1068.49335230     A.U. after   11 cycles
 SCF Done:  E(RB3LYP) =  -1068.49356809     A.U. after   11 cycles
 SCF Done:  E(RB3LYP) =  -1068.49366726     A.U. after   11 cycles
 SCF Done:  E(RB3LYP) =  -1068.49370525     A.U. after   10 cycles
 SCF Done:  E(RB3LYP) =  -1068.49371769     A.U. after    9 cycles
 SCF Done:  E(RB3LYP) =  -1068.49371853     A.U. after    8 cycles
 SCF Done:  E(RB3LYP) =  -1068.49371888     A.U. after    8 cycles
 SCF Done:  E(RB3LYP) =  -1068.49371902     A.U. after    8 cycles
 Optimization completed.
    -- Stationary point found.
 Normal termination of Gaussian 16 at Thu Dec 10 16:37:50 2020.

 --------------------------------------------------------------------
 #N Geom=AllCheck Guess=TCheck SCRF=Check GenChk RB3LYP/6-31G(d) Freq
 --------------------------------------------------------------------

 Structure from the checkpoint file:  "JID_5636.chk"
 ------------------------------
 CID_65771011_JID_5636_neutraal
 ------------------------------
 Charge =  0 Multiplicity = 1

 SCF Done:  E(RB3LYP) =  -1068.49371902     A.U. after    1 cycles

  Exact polarizability: 161.189  -0.780 126.756  -1.339   1.981 119.611
 Approx polarizability: 188.627  -0.239 184.436  -0.595   0.696 192.445

                      1                      2                      3
                      A                      A                      A
 Frequencies --     23.2167                35.0575                60.1323
 Red. masses --      3.8463                 3.0579                 2.7401
 Frc consts  --      0.0012                 0.0022                 0.0058
 IR Inten    --      0.0605                 0.1860                 0.0421

                      4                      5                      6
                      A                      A                      A
 Frequencies --     76.9509               102.6571               119.2192
 Red. masses --      3.2542                 2.9941                 2.8928
 Frc consts  --      0.0114                 0.0186                 0.0242
 IR Inten    --      1.0701                 3.2838                 2.8256

                      7                      8                      9
                      A                      A                      A
 Frequencies --    143.1064               164.3738               185.5412
 Red. masses --      4.2740                 3.2930                 2.4119
 Frc consts  --      0.0516                 0.0524                 0.0489
 IR Inten    --      1.6099                 0.8400                12.4227

                     10                     11                     12
                      A                      A                      A
 Frequencies --    212.4504               234.8252               250.9512
 Red. masses --      3.4628                 1.6085                 1.8228
 Frc consts  --      0.0921                 0.0523                 0.0676
 IR Inten    --      1.8471                 0.4716                10.3893

                     13                     14                     15
                      A                      A                      A
 Frequencies --    261.6380               273.1391               292.3953
 Red. masses --      1.3518                 4.3793                 1.6967
 Frc consts  --      0.0545                 0.1925                 0.0855
 IR Inten    --     35.9957                 9.3716                 0.9737

                     16                     17                     18
                      A                      A                      A
 Frequencies --    308.9717               376.4444               389.9546
 Red. masses --      2.4734                 3.1477                 3.6357
 Frc consts  --      0.1391                 0.2628                 0.3257
 IR Inten    --      8.9862                 2.5112                17.9888

                     19                     20                     21
                      A                      A                      A
 Frequencies --    417.4972               429.0868               458.9444
 Red. masses --      3.0731                 2.6674                 2.4546
 Frc consts  --      0.3156                 0.2894                 0.3046
 IR Inten    --      8.9917                 1.3455                 9.3109

                     22                     23                     24
                      A                      A                      A
 Frequencies --    475.3592               482.9772               520.6299
 Red. masses --      3.3831                 4.8554                 3.6805
 Frc consts  --      0.4504                 0.6673                 0.5878
 IR Inten    --      1.0450                10.5784                 5.4753

                     25                     26                     27
                      A                      A                      A
 Frequencies --    546.9859               603.3155               642.7630
 Red. masses --      3.8876                 4.0998                 1.9943
 Frc consts  --      0.6853                 0.8792                 0.4854
 IR Inten    --     14.1767               107.3695               110.4309

                     28                     29                     30
                      A                      A                      A
 Frequencies --    712.1416               775.2232               808.8192
 Red. masses --      3.1107                 1.2065                 2.0988
 Frc consts  --      0.9295                 0.4272                 0.8090
 IR Inten    --     23.7488                20.3770                 4.5642

                     31                     32                     33
                      A                      A                      A
 Frequencies --    832.5033               863.6832               870.4552
 Red. masses --      1.4886                 2.2739                 1.3180
 Frc consts  --      0.6079                 0.9994                 0.5884
 IR Inten    --      0.4250                73.4378               121.0779

                     34                     35                     36
                      A                      A                      A
 Frequencies --    899.9478               924.9581               942.6591
 Red. masses --      2.0128                 2.1363                 1.5894
 Frc consts  --      0.9605                 1.0768                 0.8321
 IR Inten    --      6.1857                43.8496                26.4611

                     37                     38                     39
                      A                      A                      A
 Frequencies --    947.3717               970.9473              1000.6520
 Red. masses --      2.2194                 1.5645                 2.2348
 Frc consts  --      1.1736                 0.8690                 1.3184
 IR Inten    --    117.7805                 2.3666                20.1859

                     40                     41                     42
                      A                      A                      A
 Frequencies --   1014.6225              1015.1988              1062.1740
 Red. masses --      1.9400                 1.7529                 2.0369
 Frc consts  --      1.1767                 1.0644                 1.3540
 IR Inten    --     52.4983                15.9051                40.4388

                     43                     44                     45
                      A                      A                      A
 Frequencies --   1069.9478              1095.0874              1105.7992
 Red. masses --      2.7252                 2.6860                 1.8685
 Frc consts  --      1.8381                 1.8978                 1.3461
 IR Inten    --      6.4841                23.6427                 3.0104

                     46                     47                     48
                      A                      A                      A
 Frequencies --   1123.7887              1129.6702              1149.0980
 Red. masses --      4.0384                 3.6131                 2.2364
 Frc consts  --      3.0049                 2.7166                 1.7399
 IR Inten    --     83.0571                89.5680                 6.9684

                     49                     50                     51
                      A                      A                      A
 Frequencies --   1155.3276              1167.0147              1180.6473
 Red. masses --      2.5407                 1.7431                 2.4181
 Frc consts  --      1.9980                 1.3987                 1.9859
 IR Inten    --     19.6431                19.4919                15.8821

                     52                     53                     54
                      A                      A                      A
 Frequencies --   1199.9015              1233.0354              1275.3328
 Red. masses --      1.2248                 1.6697                 1.2938
 Frc consts  --      1.0390                 1.4956                 1.2399
 IR Inten    --      1.3859                 4.7823                18.4311

                     55                     56                     57
                      A                      A                      A
 Frequencies --   1286.4842              1298.6504              1310.1390
 Red. masses --      1.3806                 1.3431                 1.2648
 Frc consts  --      1.3462                 1.3346                 1.2791
 IR Inten    --     21.3286                21.0062                 6.6484

                     58                     59                     60
                      A                      A                      A
 Frequencies --   1315.5957              1327.8032              1353.2269
 Red. masses --      1.5053                 2.6005                 1.3050
 Frc consts  --      1.5351                 2.7013                 1.4080
 IR Inten    --     33.0181               127.4447                 6.4787

                     61                     62                     63
                      A                      A                      A
 Frequencies --   1355.8606              1375.1850              1389.8271
 Red. masses --      1.3343                 1.2150                 1.3124
 Frc consts  --      1.4452                 1.3538                 1.4936
 IR Inten    --      7.4056                 2.3486                 4.0850

                     64                     65                     66
                      A                      A                      A
 Frequencies --   1395.6413              1405.8783              1408.8832
 Red. masses --      1.2837                 1.3593                 1.4129
 Frc consts  --      1.4733                 1.5829                 1.6524
 IR Inten    --      3.5383                 1.1925                 1.8284

                     67                     68                     69
                      A                      A                      A
 Frequencies --   1423.0768              1431.4408              1445.7317
 Red. masses --      1.5662                 1.3521                 1.2571
 Frc consts  --      1.8688                 1.6323                 1.5481
 IR Inten    --      1.4054                10.3870                 7.5172

                     70                     71                     72
                      A                      A                      A
 Frequencies --   1449.7651              1457.0380              1504.6878
 Red. masses --      1.4773                 1.2879                 1.0908
 Frc consts  --      1.8295                 1.6109                 1.4551
 IR Inten    --     15.7941                46.5048                 0.4203

                     73                     74                     75
                      A                      A                      A
 Frequencies --   1510.4045              1516.6931              1524.6120
 Red. masses --      1.0765                 1.0904                 1.0845
 Frc consts  --      1.4469                 1.4779                 1.4853
 IR Inten    --      2.8308                 7.4592                 1.1481

                     76                     77                     78
                      A                      A                      A
 Frequencies --   1527.9569              1533.9840              1536.6617
 Red. masses --      1.0579                 1.0844                 1.0795
 Frc consts  --      1.4552                 1.5034                 1.5018
 IR Inten    --      7.5491                 4.4645                 0.8100

                     79                     80                     81
                      A                      A                      A
 Frequencies --   1538.9279              1543.0224              1701.8498
 Red. masses --      1.0947                 1.0469                 1.0878
 Frc consts  --      1.5275                 1.4686                 1.8562
 IR Inten    --      3.4117                 7.8919                33.7088

                     82                     83                     84
                      A                      A                      A
 Frequencies --   2939.7515              3001.7321              3019.8890
 Red. masses --      1.0729                 1.0731                 1.0720
 Frc consts  --      5.4631                 5.6969                 5.7598
 IR Inten    --     67.8107                33.3524                24.8643

                     85                     86                     87
                      A                      A                      A
 Frequencies --   3027.2604              3035.4097              3036.9560
 Red. masses --      1.0780                 1.0633                 1.0690
 Frc consts  --      5.8204                 5.7722                 5.8093
 IR Inten    --      4.8730                17.3425                24.2062

                     88                     89                     90
                      A                      A                      A
 Frequencies --   3043.0018              3045.5717              3050.2422
 Red. masses --      1.0641                 1.0395                 1.0584
 Frc consts  --      5.8052                 5.6806                 5.8017
 IR Inten    --     53.9398                15.3510                31.8611

                     91                     92                     93
                      A                      A                      A
 Frequencies --   3068.5359              3084.5324              3085.1985
 Red. masses --      1.0895                 1.1021                 1.1018
 Frc consts  --      6.0442                 6.1779                 6.1792
 IR Inten    --     24.2573                61.4069                 3.6238

                     94                     95                     96
                      A                      A                      A
 Frequencies --   3093.5921              3112.1791              3120.5212
 Red. masses --      1.1000                 1.1026                 1.0993
 Frc consts  --      6.2026                 6.2923                 6.3069
 IR Inten    --     44.8128                58.3874                27.8470

                     97                     98                     99
                      A                      A                      A
 Frequencies --   3122.7642              3139.6401              3160.3218
 Red. masses --      1.0980                 1.0931                 1.0911
 Frc consts  --      6.3084                 6.3487                 6.4208
 IR Inten    --     23.5694                 9.5390                 3.7195

                    100                    101                    102
                      A                      A                      A
 Frequencies --   3475.4906              3537.9504              3556.8198
 Red. masses --      1.0501                 1.0744                 1.0921
 Frc consts  --      7.4731                 7.9239                 8.1405
 IR Inten    --      1.5745                23.5138                 0.5337

 - Thermochemistry -
 -------------------
 Temperature   298.150 Kelvin.  Pressure   1.00000 Atm.
 Atom     1 has atomic number  6 and mass  12.00000

 Molecular mass:   235.13545 amu.
 Principal axes and moments of inertia in atomic units:
                           1         2         3
     Eigenvalues --  2058.551716664.794847600.77520
           X            0.99983  -0.01847  -0.00117
           Y            0.01848   0.99981   0.00554
           Z            0.00107  -0.00556   0.99998
 This molecule is an asymmetric top.
 Rotational symmetry number  1.
 Warning -- assumption of classical behavior for rotation
           may cause significant error
 Rotational temperatures (Kelvin)      0.04208     0.01300     0.01140
 Rotational constants (GHZ):           0.87670     0.27079     0.23744
 Zero-point vibrational energy     838827.3 (Joules/Mol)
                                  200.48454 (Kcal/Mol)
 Warning -- explicit consideration of  26 degrees of freedom as
           vibrations may cause significant error
 Vibrational temperatures:     33.40    50.44    86.52   110.72   147.70
          (Kelvin)            171.53   205.90   236.50   266.95   305.67
                              337.86   361.06   376.44   392.99   420.69
                              444.54   541.62   561.06   600.69   617.36
                              660.32   683.94   694.90   749.07   786.99
                              868.04   924.79  1024.61  1115.37  1163.71
                             1197.79  1242.65  1252.39  1294.82  1330.81
                             1356.28  1363.06  1396.98  1439.72  1459.82
                             1460.64  1528.23  1539.42  1575.59  1591.00
                             1616.88  1625.34  1653.30  1662.26  1679.07
                             1698.69  1726.39  1774.06  1834.92  1850.96
                             1868.47  1885.00  1892.85  1910.41  1946.99
                             1950.78  1978.58  1999.65  2008.02  2022.75
                             2027.07  2047.49  2059.52  2080.09  2085.89
                             2096.35  2164.91  2173.14  2182.18  2193.58
                             2198.39  2207.06  2210.91  2214.17  2220.07
                             2448.58  4229.65  4318.82  4344.95  4355.55
                             4367.28  4369.50  4378.20  4381.90  4388.62
                             4414.94  4437.95  4438.91  4450.99  4477.73
                             4489.73  4492.96  4517.24  4547.00  5000.46
                             5090.32  5117.47

 Zero-point correction=                           0.319492 (Hartree/Particle)
 Thermal correction to Energy=                    0.336182
 Thermal correction to Enthalpy=                  0.337126
 Thermal correction to Gibbs Free Energy=         0.274190
 Sum of electronic and zero-point Energies=          -1068.174227
 Sum of electronic and thermal Energies=             -1068.157537
 Sum of electronic and thermal Enthalpies=           -1068.156593
 Sum of electronic and thermal Free Energies=        -1068.219529

                     E (Thermal)             CV                S
                      KCal/Mol        Cal/Mol-Kelvin    Cal/Mol-Kelvin
 Total                  210.957             62.661            132.461
 Electronic               0.000              0.000              0.000
 Translational            0.889              2.981             42.267
 Rotational               0.889              2.981             33.011
 Vibrational            209.180             56.700             57.184
 Vibration     1          0.593              1.985              6.338
 Vibration     2          0.594              1.982              5.520
 Vibration     3          0.597              1.973              4.453
 Vibration     4          0.599              1.965              3.967
 Vibration     5          0.605              1.947              3.403
 Vibration     6          0.609              1.933              3.113
 Vibration     7          0.616              1.910              2.762
 Vibration     8          0.623              1.886              2.499
 Vibration     9          0.632              1.860              2.272
 Vibration    10          0.643              1.822              2.023
 Vibration    11          0.655              1.788              1.842
 Vibration    12          0.663              1.761              1.724
 Vibration    13          0.669              1.743              1.651
 Vibration    14          0.676              1.723              1.576
 Vibration    15          0.688              1.688              1.460
 Vibration    16          0.698              1.657              1.368
 Vibration    17          0.747              1.520              1.053
 Vibration    18          0.758              1.492              1.000
 Vibration    19          0.781              1.432              0.901
 Vibration    20          0.790              1.407              0.862
 Vibration    21          0.817              1.341              0.769
 Vibration    22          0.832              1.305              0.723
 Vibration    23          0.839              1.288              0.702
 Vibration    24          0.876              1.204              0.609
 Vibration    25          0.902              1.146              0.550
 Vibration    26          0.962              1.025              0.444

                           ! Non-Optimized Parameters !
 Normal termination of Gaussian 16 at Thu Dec 10 16:50:11 2020.

 ----------------------------------------------------------------------
 # B3LYP/6-311++G(d,p) empiricaldispersion=gd3bj scf=xqc pop=npa geom=c
 heck
 ----------------------------------------------------------------------

 --------------------------------------
 CID_65771011_JID_5636_Energie_neutraal
 --------------------------------------
 Structure from the checkpoint file:  "JID_5636.chk"
 Charge =  0 Multiplicity = 1

 SCF Done:  E(RB3LYP) =  -1068.72370058     A.U. after   14 cycles
 Normal termination of Gaussian 16 at Thu Dec 10 16:57:27 2020.

 ----------------------------------------------------------------------
 # B3LYP/6-311++G(d,p) empiricaldispersion=gd3bj scf=xqc pop=npa geom=c
 heck
 ----------------------------------------------------------------------

 ------------------------------------
 CID_65771011_JID_5636_Energie_kation
 ------------------------------------
 Structure from the checkpoint file:  "JID_5636.chk"
 Charge =  1 Multiplicity = 2

 SCF Done:  E(UB3LYP) =  -1068.40631281     A.U. after   24 cycles
 Normal termination of Gaussian 16 at Thu Dec 10 17:12:37 2020.
 Gaussian 16:  ES64L-G16RevA.03 25-Dec-2016

 ----------------------------------------------------------------------
 # B3LYP/6-311++G(d,p) empiricaldispersion=gd3bj scf=xqc pop=npa geom=c
 heck
 ----------------------------------------------------------------------

 -----------------------------------
 CID_65771011_JID_5636_Energie_anion
 -----------------------------------
 Structure from the checkpoint file:  "JID_5636.chk"
 Charge = -1 Multiplicity = 2

                         Standard orientation:
 ---------------------------------------------------------------------
 Center     Atomic      Atomic             Coordinates (Angstroms)
 Number     Number       Type             X           Y           Z
 ---------------------------------------------------------------------
      1          6           0        4.580865   -1.991785   -0.128438
      2          6           0        3.191773   -2.176647    0.489929
      3          6           0        2.517187   -0.865198    0.892025
      4          7           0        2.274186   -0.028845   -0.294866
      5         16           0        1.302521    1.324810   -0.076415
      6          8           0        1.476402    1.925429    1.248401
      7          8           0        1.507077    2.133414   -1.282055
      8          7           0       -0.191265    0.551509   -0.049445
      9          6           0       -1.257920    1.274526    0.669164
     10          6           0       -2.419037    0.314882    0.926297
     11          6           0       -2.940406   -0.313950   -0.374137
     12          6           0       -1.774531   -0.960114   -1.135051
     13          6           0       -0.625472    0.022582   -1.355555
     14          6           0       -4.062898   -1.324895   -0.122269
     15          7           0       -5.221368   -0.693189    0.519116
     16          1           0        4.532144   -1.456922   -1.084466
     17          1           0        5.053642   -2.959166   -0.327033
     18          1           0        5.241108   -1.428002    0.541936
     19          1           0        2.538092   -2.710837   -0.210173
     20          1           0        3.273065   -2.797775    1.390935
     21          1           0        1.537980   -1.066559    1.334593
     22          1           0        3.118519   -0.332018    1.641331
     23          1           0        3.121359    0.280889   -0.766261
     24          1           0       -1.607057    2.135986    0.077488
     25          1           0       -0.841273    1.649196    1.603899
     26          1           0       -3.220201    0.869896    1.427581
     27          1           0       -2.079253   -0.477188    1.608518
     28          1           0       -3.360130    0.492296   -0.992860
     29          1           0       -1.396879   -1.822153   -0.568848
     30          1           0       -2.114923   -1.333000   -2.109251
     31          1           0        0.228929   -0.475130   -1.817649
     32          1           0       -0.940627    0.845474   -2.014558
     33          1           0       -4.396004   -1.724059   -1.088145
     34          1           0       -3.648238   -2.179860    0.445149
     35          1           0       -6.013488   -1.332483    0.499967
     36          1           0       -5.023165   -0.529028    1.504305
 ---------------------------------------------------------------------

 SCF Done:  E(UB3LYP) =  -1068.71465710     A.U. after   29 cycles

 The electronic state is 2-A.
 Alpha  occ. eigenvalues --  -88.98964 -19.03318 -19.03290 -14.26029 -14.25814
 Alpha  occ. eigenvalues --  -14.19959 -10.12177 -10.12091 -10.12070 -10.09897
 Alpha  occ. eigenvalues --  -10.08656 -10.08534 -10.08491 -10.08364 -10.07739
 Alpha  occ. eigenvalues --   -8.04958  -6.01210  -6.01191  -6.01141  -1.04339
 Alpha  occ. eigenvalues --   -0.92601  -0.86367  -0.84150  -0.79258  -0.72081
 Alpha  occ. eigenvalues --   -0.69796  -0.68167  -0.62471  -0.60367  -0.56096
 Alpha  occ. eigenvalues --   -0.54882  -0.51373  -0.50274  -0.47277  -0.46014
 Alpha  occ. eigenvalues --   -0.43408  -0.41053  -0.40193  -0.39358  -0.37920
 Alpha  occ. eigenvalues --   -0.37171  -0.36721  -0.35304  -0.35104  -0.34960
 Alpha  occ. eigenvalues --   -0.33540  -0.32859  -0.32255  -0.30990  -0.29015
 Alpha  occ. eigenvalues --   -0.27737  -0.27533  -0.27069  -0.26517  -0.26245
 Alpha  occ. eigenvalues --   -0.25199  -0.24862  -0.24101  -0.23658  -0.23048
 Alpha  occ. eigenvalues --   -0.22076  -0.19239  -0.17218  -0.15325   0.03785
 Alpha virt. eigenvalues --    0.05164   0.06924   0.07090   0.07517   0.08033
 Alpha virt. eigenvalues --    0.08221   0.09448   0.09914   0.10180   0.10534
 Alpha virt. eigenvalues --    0.11081   0.11251   0.11641   0.12296   0.12923

  Beta  occ. eigenvalues --  -88.98960 -19.03312 -19.03284 -14.26020 -14.25798
  Beta  occ. eigenvalues --  -14.19912 -10.12174 -10.12081 -10.12066 -10.09869
  Beta  occ. eigenvalues --  -10.08631 -10.08532 -10.08479 -10.08345 -10.07697
  Beta  occ. eigenvalues --   -8.04952  -6.01205  -6.01187  -6.01136  -1.04321
  Beta  occ. eigenvalues --   -0.92583  -0.86351  -0.84126  -0.79184  -0.72049
  Beta  occ. eigenvalues --   -0.69753  -0.68148  -0.62430  -0.60309  -0.56045
  Beta  occ. eigenvalues --   -0.54842  -0.51297  -0.50222  -0.47238  -0.45991
  Beta  occ. eigenvalues --   -0.43392  -0.41026  -0.40146  -0.39342  -0.37877
  Beta  occ. eigenvalues --   -0.37153  -0.36693  -0.35260  -0.35065  -0.34920
  Beta  occ. eigenvalues --   -0.33502  -0.32826  -0.32211  -0.30963  -0.28983
  Beta  occ. eigenvalues --   -0.27712  -0.27479  -0.27029  -0.26480  -0.26224
  Beta  occ. eigenvalues --   -0.25172  -0.24824  -0.24082  -0.23638  -0.23027
  Beta  occ. eigenvalues --   -0.22064  -0.19216  -0.17201  -0.15274
  Beta virt. eigenvalues --    0.05898   0.06423   0.07294   0.07550   0.07830
  Beta virt. eigenvalues --    0.08495   0.08659   0.09853   0.10218   0.10457
  Beta virt. eigenvalues --    0.10807   0.11300   0.11494   0.11856   0.12600

 Mulliken charges and spin densities:
               1          2
     1  C    0.817612  -1.362622
     2  C   -0.425395   0.260617
     3  C    0.078864  -0.447676
     4  N   -0.291150   0.047313
     5  S    0.463261  -0.098183
     6  O   -0.233414   0.006767
     7  O   -0.169809   0.000471
     8  N   -0.008760   0.081272
     9  C   -0.592960   0.017766
    10  C    0.358340  -0.771107
    11  C   -0.672375   1.314870
    12  C   -0.235749  -0.209858
    13  C   -0.056857  -0.600200
    14  C    1.002341  -1.717331
    15  N   -0.428537   0.078289
    16  H   -0.130753   0.253159
    17  H   -0.519065   0.680635
    18  H   -0.082298   0.227995
    19  H   -0.093350   0.238331
    20  H   -0.233385   0.387430
    21  H    0.089467   0.113870
    22  H    0.025580   0.161386
    23  H    0.319749  -0.008272
    24  H    0.159179   0.002492
    25  H    0.141085   0.084107
    26  H    0.132154  -0.003365
    27  H   -0.110230   0.295955
    28  H    0.138342   0.034749
    29  H    0.159341   0.002878
    30  H   -0.009706   0.158506
    31  H    0.110311   0.102428
    32  H    0.206896  -0.015981
    33  H   -0.294713   0.459980
    34  H   -0.314047   0.448804
    35  H   -0.198127   0.446030
    36  H   -0.101846   0.328497
 Sum of Mulliken charges =  -1.00000   1.00000

 Dipole moment (field-independent basis, Debye):
    X=              1.9132    Y=              4.4695    Z=             -1.6626  Tot=              5.1382
 Quadrupole moment (field-independent basis, Debye-Ang):
   XX=           -218.7115   YY=           -156.1871   ZZ=           -134.1673
   XY=             -0.8871   XZ=              5.4584   YZ=              2.9902

 Summary of Natural Population Analysis:

                                       Natural Population
                Natural  -----------------------------------------------
    Atom  No    Charge         Core      Valence    Rydberg      Total
 -----------------------------------------------------------------------
      C    1   -0.28978      0.99967     2.28464    0.00547     3.28978
      C    2   -0.19480      0.99964     2.18611    0.00905     3.19480
      C    3   -0.09323      0.99961     2.08159    0.01203     3.09323
      N    4   -0.43238      0.99975     2.92047    0.01216     3.93238
      S    5    1.16906      4.99929     1.72816    0.10348     6.83094
      O    6   -0.46106      0.99990     3.45613    0.00503     4.46106
      O    7   -0.46342      0.99990     3.45857    0.00494     4.46342
      N    8   -0.36983      0.99972     2.85735    0.01277     3.86983
      C    9   -0.08692      0.99961     2.07656    0.01075     3.08692
      C   10   -0.19657      0.99960     2.18692    0.01004     3.19657
      C   11   -0.11410      0.99958     2.10397    0.01054     3.11410
      C   12   -0.19314      0.99960     2.18423    0.00930     3.19314
      C   13   -0.08859      0.99960     2.07767    0.01132     3.08859
      C   14   -0.08395      0.99960     2.07216    0.01219     3.08395
      N   15   -0.42361      0.99977     2.91308    0.01076     3.92361
      H   16    0.09385      0.00000     0.40501    0.00114     0.40615
      H   17    0.10542      0.00000     0.39297    0.00161     0.39458
      H   18    0.09671      0.00000     0.40219    0.00110     0.40329
      H   19    0.09983      0.00000     0.39875    0.00142     0.40017
      H   20    0.10138      0.00000     0.39728    0.00134     0.39862
      H   21    0.10589      0.00000     0.39245    0.00166     0.39411
      H   22    0.09126      0.00000     0.40752    0.00123     0.40874
      H   23    0.19645      0.00000     0.30164    0.00191     0.30355
      H   24    0.08641      0.00000     0.41246    0.00113     0.41359
      H   25    0.11395      0.00000     0.38502    0.00103     0.38605
      H   26    0.10521      0.00000     0.39387    0.00093     0.39479
      H   27    0.10037      0.00000     0.39811    0.00152     0.39963
      H   28    0.09567      0.00000     0.40235    0.00198     0.40433
      H   29    0.10092      0.00000     0.39728    0.00180     0.39908
      H   30    0.10255      0.00000     0.39653    0.00092     0.39745
      H   31    0.11139      0.00000     0.38750    0.00110     0.38861
      H   32    0.09034      0.00000     0.40858    0.00108     0.40966
      H   33    0.09136      0.00000     0.40742    0.00122     0.40864
      H   34    0.08045      0.00000     0.41708    0.00247     0.41955
      H   35    0.17910      0.00000     0.31787    0.00303     0.32090
      H   36    0.17380      0.00000     0.32380    0.00240     0.32620
 =======================================================================
   * Total *   -0.00000     18.99484    44.73331    0.27185    64.00000

 Normal termination of Gaussian 16 at Thu Dec 10 17:31:30 2020.
