 Gaussian 16, Revision A.03,

 -----------------------------------------------------------
 # opt freq B3LYP/6-31G(d) empiricaldispersion=gd3bj scf=xqc
 -----------------------------------------------------------

 -------------------------------
 CID_145607622_JID_2300_neutraal
 -------------------------------
 Symbolic Z-matrix:
 Charge =  0 Multiplicity = 1

 SCF Done:  E(RB3LYP) =  -543.527743782     A.U. after   14 cycles
 SCF Done:  E(RB3LYP) =  -543.517407470     A.U. after   14 cycles
 SCF Done:  E(RB3LYP) =  -543.530000860     A.U. after   12 cycles
 SCF Done:  E(RB3LYP) =  -543.532296142     A.U. after   11 cycles
 SCF Done:  E(RB3LYP) =  -543.534517050     A.U. after   14 cycles
 SCF Done:  E(RB3LYP) =  -543.535733535     A.U. after   13 cycles
 SCF Done:  E(RB3LYP) =  -543.537484723     A.U. after   13 cycles
 SCF Done:  E(RB3LYP) =  -543.537672007     A.U. after   12 cycles
 SCF Done:  E(RB3LYP) =  -543.538500045     A.U. after   13 cycles
 SCF Done:  E(RB3LYP) =  -543.538884388     A.U. after   11 cycles
 SCF Done:  E(RB3LYP) =  -543.540551897     A.U. after   11 cycles
 SCF Done:  E(RB3LYP) =  -543.540555246     A.U. after   10 cycles
 SCF Done:  E(RB3LYP) =  -543.540556755     A.U. after    9 cycles
 SCF Done:  E(RB3LYP) =  -543.540556960     A.U. after    7 cycles
 SCF Done:  E(RB3LYP) =  -543.540557249     A.U. after    7 cycles
 SCF Done:  E(RB3LYP) =  -543.540557972     A.U. after   10 cycles
 Optimization completed.
    -- Stationary point found.
 Normal termination of Gaussian 16 at Wed Dec  9 17:39:30 2020.

 --------------------------------------------------------------------
 #N Geom=AllCheck Guess=TCheck SCRF=Check GenChk RB3LYP/6-31G(d) Freq
 --------------------------------------------------------------------

 Structure from the checkpoint file:  "JID_2300.chk"
 -------------------------------
 CID_145607622_JID_2300_neutraal
 -------------------------------
 Charge =  0 Multiplicity = 1

 SCF Done:  E(RB3LYP) =  -543.540557972     A.U. after    1 cycles

  Exact polarizability: 181.517 -39.504 104.493  -8.979  18.359 102.665
 Approx polarizability: 281.525 -84.956 158.434 -26.515  35.652 149.464

                      1                      2                      3
                      A                      A                      A
 Frequencies --     20.3786                30.1793                39.7975
 Red. masses --      3.7222                 3.8717                 3.2096
 Frc consts  --      0.0009                 0.0021                 0.0030
 IR Inten    --      0.0664                 0.2248                 0.1245

                      4                      5                      6
                      A                      A                      A
 Frequencies --     44.2043                56.1090                62.4093
 Red. masses --      2.8946                 3.5129                 3.1662
 Frc consts  --      0.0033                 0.0065                 0.0073
 IR Inten    --      0.4452                 0.1423                 0.4652

                      7                      8                      9
                      A                      A                      A
 Frequencies --     66.3193                85.3765                97.3110
 Red. masses --      2.1887                 2.7472                 2.7567
 Frc consts  --      0.0057                 0.0118                 0.0154
 IR Inten    --      0.0271                 0.3165                 0.6008

                     10                     11                     12
                      A                      A                      A
 Frequencies --     99.2188               109.6728               120.2981
 Red. masses --      2.6889                 1.4690                 1.9476
 Frc consts  --      0.0156                 0.0104                 0.0166
 IR Inten    --      0.0363                 0.9331                 2.0075

                     13                     14                     15
                      A                      A                      A
 Frequencies --    127.9142               147.6981               249.9777
 Red. masses --      2.8265                 1.1844                 4.0658
 Frc consts  --      0.0272                 0.0152                 0.1497
 IR Inten    --      0.6399                 1.9688                 0.3592

                     16                     17                     18
                      A                      A                      A
 Frequencies --    272.8365               301.9251               330.9888
 Red. masses --      4.8940                 2.9464                 1.0158
 Frc consts  --      0.2146                 0.1582                 0.0656
 IR Inten    --      6.7862                10.6962                 0.2687

                     19                     20                     21
                      A                      A                      A
 Frequencies --    339.4854               385.7631               393.9307
 Red. masses --      1.0581                 3.3595                 1.1121
 Frc consts  --      0.0719                 0.2946                 0.1017
 IR Inten    --     18.8455                 2.2372               100.0858

                     22                     23                     24
                      A                      A                      A
 Frequencies --    488.5225               533.0430               550.3659
 Red. masses --      2.3979                 1.6373                 3.0502
 Frc consts  --      0.3372                 0.2741                 0.5444
 IR Inten    --      9.6881                55.1208                 9.2087

                     25                     26                     27
                      A                      A                      A
 Frequencies --    556.8564               686.4584               702.9757
 Red. masses --      1.3878                 2.3446                 1.4424
 Frc consts  --      0.2536                 0.6509                 0.4200
 IR Inten    --     85.0460                 3.5705                 2.7510

                     28                     29                     30
                      A                      A                      A
 Frequencies --    730.7324               788.2055               795.8084
 Red. masses --      1.0965                 3.5237                 4.3680
 Frc consts  --      0.3450                 1.2898                 1.6299
 IR Inten    --     29.9671                 4.6545                 8.2196

                     31                     32                     33
                      A                      A                      A
 Frequencies --    804.1523               822.0204               832.8936
 Red. masses --      1.4087                 1.5069                 1.0621
 Frc consts  --      0.5367                 0.5999                 0.4341
 IR Inten    --     32.0657                24.0586                 7.7489

                     34                     35                     36
                      A                      A                      A
 Frequencies --    836.1512               839.7067               840.7064
 Red. masses --      1.0653                 1.0619                 1.4553
 Frc consts  --      0.4388                 0.4412                 0.6060
 IR Inten    --      4.8131                 8.5784               104.9506

                     37                     38                     39
                      A                      A                      A
 Frequencies --    843.2083               921.6541               989.6468
 Red. masses --      1.1100                 3.8215                 1.2326
 Frc consts  --      0.4650                 1.9126                 0.7113
 IR Inten    --      3.5000                 0.5902                 0.2027

                     40                     41                     42
                      A                      A                      A
 Frequencies --    995.2573              1012.0511              1012.6131
 Red. masses --      1.6362                 3.2253                 3.1239
 Frc consts  --      0.9549                 1.9464                 1.8872
 IR Inten    --     17.4757                 1.3031                 1.7112

                     43                     44                     45
                      A                      A                      A
 Frequencies --   1013.8554              1213.6506              1233.4084
 Red. masses --      1.8351                 1.5845                 1.4676
 Frc consts  --      1.1114                 1.3751                 1.3154
 IR Inten    --     22.7577                89.6710                 0.7201

                     46                     47                     48
                      A                      A                      A
 Frequencies --   1237.6510              1240.7282              1241.4563
 Red. masses --      1.4618                 1.4544                 1.4527
 Frc consts  --      1.3193                 1.3192                 1.3191
 IR Inten    --      0.5678                 1.7517                 0.6282

                     49                     50                     51
                      A                      A                      A
 Frequencies --   1293.0348              1336.7428              1401.0785
 Red. masses --      1.3439                 1.5566                 2.0108
 Frc consts  --      1.3239                 1.6388                 2.3256
 IR Inten    --      5.3670                29.8750                 1.8447

                     52                     53                     54
                      A                      A                      A
 Frequencies --   1425.2020              1428.6241              1435.4646
 Red. masses --      1.3789                 1.3524                 1.1989
 Frc consts  --      1.6503                 1.6262                 1.4555
 IR Inten    --      7.9810                 8.0080                 4.0471

                     55                     56                     57
                      A                      A                      A
 Frequencies --   1449.2599              1453.5951              1458.6636
 Red. masses --      1.5312                 1.2504                 1.2618
 Frc consts  --      1.8949                 1.5566                 1.5819
 IR Inten    --    134.5092                10.6620                15.1723

                     58                     59                     60
                      A                      A                      A
 Frequencies --   1473.3959              1511.9569              1528.5746
 Red. masses --      1.2037                 1.3434                 1.0251
 Frc consts  --      1.5395                 1.8094                 1.4112
 IR Inten    --      4.0880                31.0989                 1.0614

                     61                     62                     63
                      A                      A                      A
 Frequencies --   1529.9982              1534.7738              1536.7071
 Red. masses --      1.0313                 1.0355                 1.0548
 Frc consts  --      1.4223                 1.4371                 1.4676
 IR Inten    --      2.4257                 2.6932                 5.9055

                     64                     65                     66
                      A                      A                      A
 Frequencies --   1539.0854              1541.5626              1546.1082
 Red. masses --      1.0261                 1.0607                 1.0512
 Frc consts  --      1.4321                 1.4852                 1.4805
 IR Inten    --      0.3745                 9.5112                11.7944

                     67                     68                     69
                      A                      A                      A
 Frequencies --   1552.3068              1651.5095              1709.1606
 Red. masses --      1.0454                 5.5234                 4.5495
 Frc consts  --      1.4842                 8.8760                 7.8303
 IR Inten    --      7.0732                21.2835               105.9924

                     70                     71                     72
                      A                      A                      A
 Frequencies --   1714.2646              3021.8055              3050.3850
 Red. masses --      4.2805                 1.0466                 1.0364
 Frc consts  --      7.4113                 5.6308                 5.6820
 IR Inten    --     19.2970                48.6175                17.7246

                     73                     74                     75
                      A                      A                      A
 Frequencies --   3052.9729              3057.2066              3086.7703
 Red. masses --      1.0381                 1.0360                 1.0899
 Frc consts  --      5.7009                 5.7051                 6.1185
 IR Inten    --     35.5526                24.3073                14.8042

                     76                     77                     78
                      A                      A                      A
 Frequencies --   3100.5745              3108.0462              3108.7771
 Red. masses --      1.1010                 1.1004                 1.1005
 Frc consts  --      6.2364                 6.2626                 6.2666
 IR Inten    --      9.8151                25.8062                 3.0963

                     79                     80                     81
                      A                      A                      A
 Frequencies --   3125.2067              3127.8281              3134.9413
 Red. masses --      1.1030                 1.1023                 1.1022
 Frc consts  --      6.3474                 6.3539                 6.3822
 IR Inten    --     74.2061                37.0467                42.1077

                     82                     83                     84
                      A                      A                      A
 Frequencies --   3142.9165              3172.7672              3189.4219
 Red. masses --      1.1001                 1.0845                 1.0679
 Frc consts  --      6.4026                 6.4323                 6.4003
 IR Inten    --     28.2793                 0.8444                 7.7318

                     85                     86                     87
                      A                      A                      A
 Frequencies --   3193.5274              3199.9833              3278.9248
 Red. masses --      1.0821                 1.0609                 1.1155
 Frc consts  --      6.5023                 6.4003                 7.0662
 IR Inten    --      4.2102                 1.8592                 6.1372

                     88                     89                     90
                      A                      A                      A
 Frequencies --   3288.4648              3589.8214              3748.8505
 Red. masses --      1.1183                 1.0666                 1.0654
 Frc consts  --      7.1249                 8.0986                 8.8221
 IR Inten    --      6.1641               439.1118               135.3313

 - Thermochemistry -
 -------------------
 Temperature   298.150 Kelvin.  Pressure   1.00000 Atm.
 Atom     1 has atomic number  6 and mass  12.00000

 Molecular mass:   172.14633 amu.
 Principal axes and moments of inertia in atomic units:
                           1         2         3
     Eigenvalues --  1777.919013782.601354204.66524
           X            0.99990   0.00146   0.01391
           Y           -0.00133   0.99996  -0.00903
           Z           -0.01393   0.00901   0.99986
 This molecule is an asymmetric top.
 Rotational symmetry number  1.
 Warning -- assumption of classical behavior for rotation
           may cause significant error
 Rotational temperatures (Kelvin)      0.04872     0.02290     0.02060
 Rotational constants (GHZ):           1.01509     0.47712     0.42922
 Zero-point vibrational energy     741540.2 (Joules/Mol)
                                  177.23235 (Kcal/Mol)
 Warning -- explicit consideration of  25 degrees of freedom as
           vibrations may cause significant error
 Vibrational temperatures:     29.32    43.42    57.26    63.60    80.73
          (Kelvin)             89.79    95.42   122.84   140.01   142.75
                              157.79   173.08   184.04   212.50   359.66
                              392.55   434.40   476.22   488.44   555.03
                              566.78   702.87   766.93   791.85   801.19
                              987.66  1011.43  1051.36  1134.05  1144.99
                             1157.00  1182.70  1198.35  1203.04  1208.15
                             1209.59  1213.19  1326.05  1423.88  1431.95
                             1456.12  1456.92  1458.71  1746.17  1774.60
                             1780.70  1785.13  1786.18  1860.39  1923.27
                             2015.84  2050.55  2055.47  2065.31  2085.16
                             2091.40  2098.69  2119.89  2175.37  2199.28
                             2201.33  2208.20  2210.98  2214.40  2217.96
                             2224.50  2233.42  2376.15  2459.10  2466.44
                             4347.70  4388.82  4392.55  4398.64  4441.17
                             4461.04  4471.79  4472.84  4496.48  4500.25
                             4510.48  4521.96  4564.90  4588.87  4594.77
                             4604.06  4717.64  4731.37  5164.95  5393.76

 Zero-point correction=                           0.282438 (Hartree/Particle)
 Thermal correction to Energy=                    0.301128
 Thermal correction to Enthalpy=                  0.302072
 Thermal correction to Gibbs Free Energy=         0.232228
 Sum of electronic and zero-point Energies=           -543.258120
 Sum of electronic and thermal Energies=              -543.239430
 Sum of electronic and thermal Enthalpies=            -543.238486
 Sum of electronic and thermal Free Energies=         -543.308330

                     E (Thermal)             CV                S
                      KCal/Mol        Cal/Mol-Kelvin    Cal/Mol-Kelvin
 Total                  188.961             62.409            147.000
 Electronic               0.000              0.000              0.000
 Translational            0.889              2.981             41.337
 Rotational               0.889              2.981             31.714
 Vibrational            187.183             56.448             73.949
 Vibration     1          0.593              1.986              6.597
 Vibration     2          0.594              1.984              5.818
 Vibration     3          0.594              1.981              5.269
 Vibration     4          0.595              1.980              5.061
 Vibration     5          0.596              1.975              4.590
 Vibration     6          0.597              1.972              4.380
 Vibration     7          0.598              1.970              4.260
 Vibration     8          0.601              1.959              3.763
 Vibration     9          0.603              1.951              3.507
 Vibration    10          0.604              1.950              3.470
 Vibration    11          0.606              1.941              3.275
 Vibration    12          0.609              1.932              3.096
 Vibration    13          0.611              1.925              2.977
 Vibration    14          0.617              1.905              2.702
 Vibration    15          0.663              1.763              1.731
 Vibration    16          0.676              1.723              1.578
 Vibration    17          0.694              1.670              1.406
 Vibration    18          0.713              1.614              1.255
 Vibration    19          0.719              1.597              1.215
 Vibration    20          0.754              1.501              1.016
 Vibration    21          0.761              1.483              0.985
 Vibration    22          0.844              1.275              0.687
 Vibration    23          0.888              1.177              0.580
 Vibration    24          0.906              1.139              0.543
 Vibration    25          0.912              1.125              0.530

                           ! Non-Optimized Parameters !
 Normal termination of Gaussian 16 at Wed Dec  9 17:47:32 2020.

 ----------------------------------------------------------------------
 # B3LYP/6-311++G(d,p) empiricaldispersion=gd3bj scf=xqc pop=npa geom=c
 heck
 ----------------------------------------------------------------------

 ---------------------------------------
 CID_145607622_JID_2300_Energie_neutraal
 ---------------------------------------
 Structure from the checkpoint file:  "JID_2300.chk"
 Charge =  0 Multiplicity = 1

 SCF Done:  E(RB3LYP) =  -543.719144187     A.U. after   15 cycles
 Normal termination of Gaussian 16 at Wed Dec  9 17:52:03 2020.

 ----------------------------------------------------------------------
 # B3LYP/6-311++G(d,p) empiricaldispersion=gd3bj scf=xqc pop=npa geom=c
 heck
 ----------------------------------------------------------------------

 -------------------------------------
 CID_145607622_JID_2300_Energie_kation
 -------------------------------------
 Structure from the checkpoint file:  "JID_2300.chk"
 Charge =  1 Multiplicity = 2

 SCF Done:  E(UB3LYP) =  -543.436095877     A.U. after   21 cycles
 Normal termination of Gaussian 16 at Wed Dec  9 18:01:51 2020.
 Gaussian 16:  ES64L-G16RevA.03 25-Dec-2016

 ----------------------------------------------------------------------
 # B3LYP/6-311++G(d,p) empiricaldispersion=gd3bj scf=xqc pop=npa geom=c
 heck
 ----------------------------------------------------------------------

 ------------------------------------
 CID_145607622_JID_2300_Energie_anion
 ------------------------------------
 Structure from the checkpoint file:  "JID_2300.chk"
 Charge = -1 Multiplicity = 2

                         Standard orientation:
 ---------------------------------------------------------------------
 Center     Atomic      Atomic             Coordinates (Angstroms)
 Number     Number       Type             X           Y           Z
 ---------------------------------------------------------------------
      1          6           0       -0.513141   -2.369554    0.349973
      2          6           0       -0.480076   -1.819957    1.777085
      3          6           0       -3.808981   -0.429396    0.027535
      4          6           0       -3.340248   -0.145322   -1.400462
      5          6           0        3.883893   -0.691096   -0.466919
      6          6           0        2.652449   -0.137585   -0.486593
      7          6           0        2.236124    0.692965    0.645061
      8          6           0        1.113313    1.376812    0.975972
      9          6           0       -0.167463    1.581722    0.316441
     10          6           0       -1.205065    2.185517    0.924468
     11          8           0       -0.253877    1.139289   -0.987230
     12          8           0        1.839364   -0.398815   -1.543172
     13          1           0        0.076340   -1.748269   -0.330711
     14          1           0       -1.539382   -2.416947   -0.033279
     15          1           0       -0.099305   -3.383423    0.304919
     16          1           0        0.547594   -1.760390    2.151382
     17          1           0       -0.901971   -0.810372    1.825020
     18          1           0       -1.052035   -2.455107    2.463748
     19          1           0       -4.775130    0.045951    0.229964
     20          1           0       -3.088858   -0.057146    0.763165
     21          1           0       -3.925430   -1.505415    0.194206
     22          1           0       -4.049690   -0.522609   -2.144736
     23          1           0       -3.246173    0.935510   -1.581924
     24          1           0       -2.375635   -0.626088   -1.601138
     25          1           0        4.556619   -0.529988    0.365763
     26          1           0        4.217937   -1.316813   -1.286334
     27          1           0        3.024625    0.755325    1.390676
     28          1           0        1.145796    1.875105    1.941033
     29          1           0       -2.149746    2.355058    0.418032
     30          1           0       -1.120656    2.522739    1.949601
     31          1           0       -1.181102    1.113316   -1.272671
     32          1           0        1.027486    0.141137   -1.478865
 ---------------------------------------------------------------------

 SCF Done:  E(UB3LYP) =  -543.723477112     A.U. after   30 cycles

 The electronic state is 2-A.
 Alpha  occ. eigenvalues --  -19.03556 -18.99016 -10.08954 -10.07954 -10.07138
 Alpha  occ. eigenvalues --  -10.05942 -10.04034 -10.03870 -10.01552 -10.01311
 Alpha  occ. eigenvalues --  -10.00720  -9.99398  -0.94334  -0.90382  -0.66187
 Alpha  occ. eigenvalues --   -0.65856  -0.63473  -0.62064  -0.57821  -0.52541
 Alpha  occ. eigenvalues --   -0.49858  -0.49734  -0.45471  -0.43558  -0.37664
 Alpha  occ. eigenvalues --   -0.36251  -0.34797  -0.34469  -0.32065  -0.31665
 Alpha  occ. eigenvalues --   -0.31576  -0.28528  -0.27998  -0.27729  -0.26953
 Alpha  occ. eigenvalues --   -0.26342  -0.25478  -0.25396  -0.25119  -0.24807
 Alpha  occ. eigenvalues --   -0.24077  -0.22901  -0.22618  -0.22474  -0.18642
 Alpha  occ. eigenvalues --   -0.15831  -0.10965  -0.06942   0.04778
 Alpha virt. eigenvalues --    0.06573   0.08511   0.09085   0.09423   0.10416
 Alpha virt. eigenvalues --    0.10792   0.11282   0.12202   0.12243   0.12956
 Alpha virt. eigenvalues --    0.13514   0.14028   0.14450   0.14810   0.15656

  Beta  occ. eigenvalues --  -19.03545 -18.99022 -10.08842 -10.07992 -10.07125
  Beta  occ. eigenvalues --  -10.05912 -10.04031 -10.03869 -10.01374 -10.00973
  Beta  occ. eigenvalues --  -10.00462  -9.99112  -0.94272  -0.90381  -0.66149
  Beta  occ. eigenvalues --   -0.65275  -0.63467  -0.61593  -0.57377  -0.52468
  Beta  occ. eigenvalues --   -0.49852  -0.49181  -0.44981  -0.43380  -0.37439
  Beta  occ. eigenvalues --   -0.36002  -0.34773  -0.34423  -0.31998  -0.31572
  Beta  occ. eigenvalues --   -0.31510  -0.28318  -0.27680  -0.27648  -0.26787
  Beta  occ. eigenvalues --   -0.26177  -0.25437  -0.25313  -0.25078  -0.24660
  Beta  occ. eigenvalues --   -0.23927  -0.22641  -0.22595  -0.22414  -0.18447
  Beta  occ. eigenvalues --   -0.14532  -0.09627  -0.05143
  Beta virt. eigenvalues --    0.06900   0.08509   0.09107   0.09319   0.10149
  Beta virt. eigenvalues --    0.10532   0.10871   0.11240   0.12179   0.12215
  Beta virt. eigenvalues --    0.12925   0.13664   0.14033   0.14410   0.14695

 Mulliken charges and spin densities:
               1          2
     1  C   -0.333182  -0.048667
     2  C   -0.361212   0.011722
     3  C    0.169007  -0.542122
     4  C   -0.372377  -0.073604
     5  C   -0.734767   0.296232
     6  C    0.240670  -0.061545
     7  C   -0.210438   0.277410
     8  C   -0.312095  -0.016756
     9  C    0.426218   0.067326
    10  C   -0.843735   0.323405
    11  O   -0.285110   0.008237
    12  O   -0.277042   0.001173
    13  H    0.108581  -0.003117
    14  H    0.112967  -0.021861
    15  H    0.116432  -0.004722
    16  H    0.116888  -0.004203
    17  H    0.154158   0.006447
    18  H    0.075371   0.034592
    19  H   -0.162961   0.291456
    20  H    0.051489   0.129211
    21  H   -0.002614   0.123000
    22  H   -0.180338   0.317245
    23  H    0.118023  -0.018155
    24  H    0.122035   0.016626
    25  H    0.078231  -0.010147
    26  H    0.103785  -0.014164
    27  H    0.116648  -0.016403
    28  H    0.125105  -0.016235
    29  H    0.116119  -0.051156
    30  H    0.101320   0.000155
    31  H    0.253235   0.000160
    32  H    0.369586  -0.001539
 Sum of Mulliken charges =  -1.00000   1.00000

 Dipole moment (field-independent basis, Debye):
    X=             -2.7301    Y=             -0.7379    Z=              0.4785  Tot=              2.8683
 Quadrupole moment (field-independent basis, Debye-Ang):
   XX=           -134.3598   YY=           -102.1153   ZZ=            -93.7662
   XY=             -0.2862   XZ=              7.2606   YZ=             -2.4757

 Summary of Natural Population Analysis:

                                       Natural Population
                Natural  -----------------------------------------------
    Atom  No    Charge         Core      Valence    Rydberg      Total
 -----------------------------------------------------------------------
      C    1   -0.28932      0.99968     2.28514    0.00450     3.28932
      C    2   -0.28879      0.99968     2.28464    0.00447     3.28879
      C    3   -0.29253      0.99968     2.28692    0.00593     3.29253
      C    4   -0.29488      0.99968     2.28944    0.00576     3.29488
      C    5   -0.18502      0.99957     2.17647    0.00898     3.18502
      C    6    0.13317      0.99940     1.85450    0.01293     2.86683
      C    7   -0.05576      0.99951     2.04780    0.00845     3.05576
      C    8   -0.10684      0.99952     2.09819    0.00913     3.10684
      C    9    0.15866      0.99939     1.82839    0.01356     2.84134
      C   10   -0.21430      0.99955     2.20575    0.00900     3.21430
      O   11   -0.36977      0.99986     3.36162    0.00829     4.36977
      O   12   -0.36916      0.99987     3.36152    0.00777     4.36916
      H   13    0.10769      0.00000     0.38971    0.00260     0.39231
      H   14    0.08831      0.00000     0.41035    0.00134     0.41169
      H   15    0.08872      0.00000     0.41031    0.00097     0.41128
      H   16    0.10005      0.00000     0.39901    0.00094     0.39995
      H   17    0.10552      0.00000     0.39298    0.00150     0.39448
      H   18    0.08447      0.00000     0.41448    0.00105     0.41553
      H   19    0.09317      0.00000     0.40583    0.00100     0.40683
      H   20    0.11012      0.00000     0.38843    0.00145     0.38988
      H   21    0.09478      0.00000     0.40427    0.00095     0.40522
      H   22    0.09629      0.00000     0.40279    0.00091     0.40371
      H   23    0.09007      0.00000     0.40881    0.00111     0.40993
      H   24    0.10019      0.00000     0.39867    0.00114     0.39981
      H   25    0.08474      0.00000     0.41445    0.00081     0.41526
      H   26    0.08569      0.00000     0.41328    0.00104     0.41431
      H   27    0.08788      0.00000     0.41067    0.00146     0.41212
      H   28    0.09051      0.00000     0.40818    0.00132     0.40949
      H   29    0.08378      0.00000     0.41531    0.00091     0.41622
      H   30    0.09325      0.00000     0.40599    0.00076     0.40675
      H   31    0.24125      0.00000     0.25632    0.00244     0.25875
      H   32    0.24806      0.00000     0.24914    0.00280     0.25194
 =======================================================================
   * Total *   -0.00000     11.99538    35.87935    0.12527    48.00000

 Normal termination of Gaussian 16 at Wed Dec  9 18:14:37 2020.
