 Gaussian 16, Revision A.03,

 -----------------------------------------------------------
 # opt freq B3LYP/6-31G(d) empiricaldispersion=gd3bj scf=xqc
 -----------------------------------------------------------

 -------------------------------
 CID_116697059_JID_6847_neutraal
 -------------------------------
 Symbolic Z-matrix:
 Charge =  0 Multiplicity = 1

 SCF Done:  E(RB3LYP) =  -1122.93393834     A.U. after   15 cycles
 SCF Done:  E(RB3LYP) =  -1122.94166728     A.U. after   13 cycles
 SCF Done:  E(RB3LYP) =  -1122.94391163     A.U. after   13 cycles
 SCF Done:  E(RB3LYP) =  -1122.94496158     A.U. after   14 cycles
 SCF Done:  E(RB3LYP) =  -1122.94563386     A.U. after   12 cycles
 SCF Done:  E(RB3LYP) =  -1122.94561850     A.U. after   13 cycles
 SCF Done:  E(RB3LYP) =  -1122.94583633     A.U. after   12 cycles
 SCF Done:  E(RB3LYP) =  -1122.94589208     A.U. after   10 cycles
 SCF Done:  E(RB3LYP) =  -1122.94589981     A.U. after   11 cycles
 SCF Done:  E(RB3LYP) =  -1122.94590286     A.U. after    9 cycles
 SCF Done:  E(RB3LYP) =  -1122.94590424     A.U. after    8 cycles
 SCF Done:  E(RB3LYP) =  -1122.94590509     A.U. after    9 cycles
 SCF Done:  E(RB3LYP) =  -1122.94590537     A.U. after    8 cycles
 SCF Done:  E(RB3LYP) =  -1122.94590546     A.U. after    8 cycles
 SCF Done:  E(RB3LYP) =  -1122.94590549     A.U. after    7 cycles
 Optimization completed.
    -- Stationary point found.
 Normal termination of Gaussian 16 at Fri Dec 11 00:52:16 2020.

 --------------------------------------------------------------------
 #N Geom=AllCheck Guess=TCheck SCRF=Check GenChk RB3LYP/6-31G(d) Freq
 --------------------------------------------------------------------

 Structure from the checkpoint file:  "JID_6847.chk"
 -------------------------------
 CID_116697059_JID_6847_neutraal
 -------------------------------
 Charge =  0 Multiplicity = 1

 SCF Done:  E(RB3LYP) =  -1122.94590549     A.U. after    1 cycles

  Exact polarizability: 167.263  -1.182 162.831  16.809   9.097  94.619
 Approx polarizability: 243.797  -1.608 269.500  40.254  24.774 148.521

                      1                      2                      3
                      A                      A                      A
 Frequencies --     23.6448                36.4852                56.3806
 Red. masses --      6.1616                 4.0537                 3.7663
 Frc consts  --      0.0020                 0.0032                 0.0071
 IR Inten    --      0.2010                 0.0509                 0.1183

                      4                      5                      6
                      A                      A                      A
 Frequencies --     63.7273                74.6792                97.5319
 Red. masses --      3.8154                 4.6618                 3.2210
 Frc consts  --      0.0091                 0.0153                 0.0181
 IR Inten    --      0.2783                 3.4181                 1.1974

                      7                      8                      9
                      A                      A                      A
 Frequencies --    106.5679               136.2692               201.8978
 Red. masses --      5.1002                 7.1636                 4.4974
 Frc consts  --      0.0341                 0.0784                 0.1080
 IR Inten    --      1.4341                 2.5084                 1.4778

                     10                     11                     12
                      A                      A                      A
 Frequencies --    223.6993               225.5257               229.5157
 Red. masses --      3.6800                 1.1330                 2.0412
 Frc consts  --      0.1085                 0.0340                 0.0634
 IR Inten    --      1.9615                 0.1915                 3.2235

                     13                     14                     15
                      A                      A                      A
 Frequencies --    231.0226               292.3254               311.8665
 Red. masses --      3.4264                 2.6774                 2.8685
 Frc consts  --      0.1077                 0.1348                 0.1644
 IR Inten    --      9.3915                 0.6607                 1.6677

                     16                     17                     18
                      A                      A                      A
 Frequencies --    333.2828               373.9735               405.0700
 Red. masses --      3.2573                 3.9559                 3.7362
 Frc consts  --      0.2132                 0.3260                 0.3612
 IR Inten    --      2.3622                 2.2557                 2.0392

                     19                     20                     21
                      A                      A                      A
 Frequencies --    437.2559               470.5746               490.6411
 Red. masses --      2.9624                 3.4903                 3.2978
 Frc consts  --      0.3337                 0.4554                 0.4677
 IR Inten    --      0.6034                 1.3728                 1.6858

                     22                     23                     24
                      A                      A                      A
 Frequencies --    513.2467               549.9850               563.9004
 Red. masses --      5.1608                 8.1711                 1.6594
 Frc consts  --      0.8010                 1.4562                 0.3109
 IR Inten    --     12.7100                 4.3790                82.0179

                     25                     26                     27
                      A                      A                      A
 Frequencies --    603.7498               644.5161               672.6509
 Red. masses --      1.5173                 5.4826                 2.2039
 Frc consts  --      0.3259                 1.3418                 0.5875
 IR Inten    --     11.9477                18.5037                95.9281

                     28                     29                     30
                      A                      A                      A
 Frequencies --    684.4176               741.4908               748.4536
 Red. masses --      4.3407                 7.5729                 9.1148
 Frc consts  --      1.1980                 2.4531                 3.0083
 IR Inten    --     72.9972                19.2694                17.8679

                     31                     32                     33
                      A                      A                      A
 Frequencies --    773.6406               779.6198               817.2988
 Red. masses --      3.1883                 1.5796                 1.5872
 Frc consts  --      1.1243                 0.5657                 0.6246
 IR Inten    --     54.5885                 2.6872                 2.0823

                     34                     35                     36
                      A                      A                      A
 Frequencies --    839.3396               869.2176               902.1366
 Red. masses --      1.6831                 3.9900                 1.6995
 Frc consts  --      0.6986                 1.7762                 0.8149
 IR Inten    --      9.7060                 8.0472                23.5225

                     37                     38                     39
                      A                      A                      A
 Frequencies --    948.6786               961.6390               996.2826
 Red. masses --      2.1606                 3.3752                 1.2889
 Frc consts  --      1.1457                 1.8389                 0.7538
 IR Inten    --      5.2809                 5.7655                20.9248

                     40                     41                     42
                      A                      A                      A
 Frequencies --   1000.0535              1045.4428              1061.4092
 Red. masses --      1.7639                 2.8233                 2.7121
 Frc consts  --      1.0394                 1.8181                 1.8002
 IR Inten    --     10.2215                59.2539                 1.9273

                     43                     44                     45
                      A                      A                      A
 Frequencies --   1116.2299              1143.3160              1166.9400
 Red. masses --      1.8804                 3.0826                 2.0221
 Frc consts  --      1.3804                 2.3741                 1.6223
 IR Inten    --      0.7304               153.1360                 3.6367

                     46                     47                     48
                      A                      A                      A
 Frequencies --   1183.7485              1204.0883              1211.4928
 Red. masses --      2.3774                 2.0306                 1.9385
 Frc consts  --      1.9627                 1.7346                 1.6763
 IR Inten    --     18.6711               123.3213                69.6770

                     49                     50                     51
                      A                      A                      A
 Frequencies --   1283.8506              1322.7134              1337.3314
 Red. masses --      1.4123                 1.2337                 3.2291
 Frc consts  --      1.3715                 1.2717                 3.4026
 IR Inten    --     14.9798                 2.2056                13.5962

                     52                     53                     54
                      A                      A                      A
 Frequencies --   1357.8562              1368.1728              1395.4218
 Red. masses --      1.1980                 1.3338                 2.2990
 Frc consts  --      1.3014                 1.4711                 2.6375
 IR Inten    --      2.7841                25.3264                52.9247

                     55                     56                     57
                      A                      A                      A
 Frequencies --   1407.8847              1409.4886              1436.7364
 Red. masses --      2.5329                 1.5229                 1.6413
 Frc consts  --      2.9580                 1.7826                 1.9962
 IR Inten    --     38.2243                 5.8697                12.9396

                     58                     59                     60
                      A                      A                      A
 Frequencies --   1439.5111              1445.1664              1494.2616
 Red. masses --      1.3063                 1.2309                 1.7577
 Frc consts  --      1.5949                 1.5147                 2.3124
 IR Inten    --      5.8593                 3.6076                53.7055

                     61                     62                     63
                      A                      A                      A
 Frequencies --   1512.9324              1518.8217              1527.5059
 Red. masses --      1.1059                 1.1019                 1.0445
 Frc consts  --      1.4914                 1.4977                 1.4359
 IR Inten    --      7.1760                 8.8837                10.2317

                     64                     65                     66
                      A                      A                      A
 Frequencies --   1531.9928              1536.9892              1538.3854
 Red. masses --      1.0811                 3.2776                 1.2718
 Frc consts  --      1.4950                 4.5619                 1.7733
 IR Inten    --      6.0439                81.2105                19.4025

                     67                     68                     69
                      A                      A                      A
 Frequencies --   1545.3734              1558.2916              1752.4708
 Red. masses --      1.0542                10.2680                 7.9728
 Frc consts  --      1.4833                14.6903                14.4266
 IR Inten    --      7.3380               141.1199               317.2455

                     70                     71                     72
                      A                      A                      A
 Frequencies --   1824.6353              3016.9508              3040.2093
 Red. masses --      9.9990                 1.0625                 1.0451
 Frc consts  --     19.6136                 5.6976                 5.6911
 IR Inten    --    325.3589                25.3901                21.7144

                     73                     74                     75
                      A                      A                      A
 Frequencies --   3048.6648              3049.0763              3059.5655
 Red. masses --      1.0402                 1.0802                 1.0880
 Frc consts  --      5.6961                 5.9167                 6.0005
 IR Inten    --     27.4622                 2.3567                 8.3501

                     76                     77                     78
                      A                      A                      A
 Frequencies --   3072.0840              3111.0260              3112.5653
 Red. masses --      1.0754                 1.0962                 1.1017
 Frc consts  --      5.9797                 6.2507                 6.2887
 IR Inten    --     71.3075                32.9474                46.1555

                     79                     80                     81
                      A                      A                      A
 Frequencies --   3120.4497              3132.0423              3159.4949
 Red. masses --      1.1017                 1.1019                 1.0950
 Frc consts  --      6.3202                 6.3689                 6.4403
 IR Inten    --     37.6039                26.4066                 8.5587

                     82                     83                     84
                      A                      A                      A
 Frequencies --   3290.4048              3602.6721              3693.3260
 Red. masses --      1.0945                 1.0759                 1.0640
 Frc consts  --      6.9819                 8.2277                 8.5516
 IR Inten    --      7.0490                39.2383                75.6471

 - Thermochemistry -
 -------------------
 Temperature   298.150 Kelvin.  Pressure   1.00000 Atm.
 Atom     1 has atomic number  6 and mass  12.00000

 Molecular mass:   242.07251 amu.
 Principal axes and moments of inertia in atomic units:
                           1         2         3
     Eigenvalues --  3213.546005271.227957596.65097
           X            0.99926   0.03736  -0.00913
           Y           -0.03739   0.99930  -0.00263
           Z            0.00902   0.00297   0.99995
 This molecule is an asymmetric top.
 Rotational symmetry number  1.
 Warning -- assumption of classical behavior for rotation
           may cause significant error
 Rotational temperatures (Kelvin)      0.02695     0.01643     0.01140
 Rotational constants (GHZ):           0.56160     0.34238     0.23757
 Zero-point vibrational energy     631743.4 (Joules/Mol)
                                  150.99029 (Kcal/Mol)
 Warning -- explicit consideration of  25 degrees of freedom as
           vibrations may cause significant error
 Vibrational temperatures:     34.02    52.49    81.12    91.69   107.45
          (Kelvin)            140.33   153.33   196.06   290.49   321.85
                              324.48   330.22   332.39   420.59   448.71
                              479.52   538.06   582.81   629.11   677.05
                              705.92   738.45   791.31   811.33   868.66
                              927.31   967.79   984.72  1066.84  1076.86
                             1113.10  1121.70  1175.91  1207.62  1250.61
                             1297.97  1364.94  1383.58  1433.43  1438.85
                             1504.16  1527.13  1606.01  1644.98  1678.97
                             1703.15  1732.41  1743.07  1847.17  1903.09
                             1924.12  1953.65  1968.50  2007.70  2025.63
                             2027.94  2067.14  2071.14  2079.27  2149.91
                             2176.77  2185.25  2197.74  2204.20  2211.38
                             2213.39  2223.45  2242.03  2521.41  2625.24
                             4340.72  4374.18  4386.35  4386.94  4402.03
                             4420.04  4476.07  4478.29  4489.63  4506.31
                             4545.81  4734.16  5183.44  5313.87

 Zero-point correction=                           0.240618 (Hartree/Particle)
 Thermal correction to Energy=                    0.257198
 Thermal correction to Enthalpy=                  0.258142
 Thermal correction to Gibbs Free Energy=         0.194496
 Sum of electronic and zero-point Energies=          -1122.705287
 Sum of electronic and thermal Energies=             -1122.688707
 Sum of electronic and thermal Enthalpies=           -1122.687763
 Sum of electronic and thermal Free Energies=        -1122.751409

                     E (Thermal)             CV                S
                      KCal/Mol        Cal/Mol-Kelvin    Cal/Mol-Kelvin
 Total                  161.394             60.425            133.954
 Electronic               0.000              0.000              0.000
 Translational            0.889              2.981             42.353
 Rotational               0.889              2.981             33.220
 Vibrational            159.617             54.464             58.381
 Vibration     1          0.593              1.985              6.302
 Vibration     2          0.594              1.982              5.441
 Vibration     3          0.596              1.975              4.580
 Vibration     4          0.597              1.972              4.338
 Vibration     5          0.599              1.966              4.026
 Vibration     6          0.603              1.951              3.503
 Vibration     7          0.605              1.944              3.330
 Vibration     8          0.614              1.917              2.856
 Vibration     9          0.639              1.837              2.116
 Vibration    10          0.649              1.805              1.929
 Vibration    11          0.650              1.802              1.914
 Vibration    12          0.652              1.796              1.883
 Vibration    13          0.653              1.794              1.871
 Vibration    14          0.688              1.688              1.460
 Vibration    15          0.700              1.651              1.352
 Vibration    16          0.715              1.609              1.244
 Vibration    17          0.745              1.526              1.063
 Vibration    18          0.770              1.459              0.944
 Vibration    19          0.798              1.389              0.835
 Vibration    20          0.828              1.315              0.736
 Vibration    21          0.846              1.271              0.682
 Vibration    22          0.868              1.221              0.626
 Vibration    23          0.905              1.140              0.544
 Vibration    24          0.920              1.109              0.516
 Vibration    25          0.962              1.024              0.443

                           ! Non-Optimized Parameters !
 Normal termination of Gaussian 16 at Fri Dec 11 01:01:13 2020.

 ----------------------------------------------------------------------
 # B3LYP/6-311++G(d,p) empiricaldispersion=gd3bj scf=xqc pop=npa geom=c
 heck
 ----------------------------------------------------------------------

 ---------------------------------------
 CID_116697059_JID_6847_Energie_neutraal
 ---------------------------------------
 Structure from the checkpoint file:  "JID_6847.chk"
 Charge =  0 Multiplicity = 1

 SCF Done:  E(RB3LYP) =  -1123.18824196     A.U. after   16 cycles
 Normal termination of Gaussian 16 at Fri Dec 11 01:05:16 2020.

 ----------------------------------------------------------------------
 # B3LYP/6-311++G(d,p) empiricaldispersion=gd3bj scf=xqc pop=npa geom=c
 heck
 ----------------------------------------------------------------------

 -------------------------------------
 CID_116697059_JID_6847_Energie_kation
 -------------------------------------
 Structure from the checkpoint file:  "JID_6847.chk"
 Charge =  1 Multiplicity = 2

 SCF Done:  E(UB3LYP) =  -1122.85322560     A.U. after   31 cycles
 Normal termination of Gaussian 16 at Fri Dec 11 01:15:53 2020.
 Gaussian 16:  ES64L-G16RevA.03 25-Dec-2016

 ----------------------------------------------------------------------
 # B3LYP/6-311++G(d,p) empiricaldispersion=gd3bj scf=xqc pop=npa geom=c
 heck
 ----------------------------------------------------------------------

 ------------------------------------
 CID_116697059_JID_6847_Energie_anion
 ------------------------------------
 Structure from the checkpoint file:  "JID_6847.chk"
 Charge = -1 Multiplicity = 2

                         Standard orientation:
 ---------------------------------------------------------------------
 Center     Atomic      Atomic             Coordinates (Angstroms)
 Number     Number       Type             X           Y           Z
 ---------------------------------------------------------------------
      1          6           0       -4.074914   -0.926239    1.755596
      2          6           0       -3.668184   -0.258163    0.439638
      3          6           0       -2.309439   -0.721011   -0.109736
      4          6           0       -2.297350   -2.193281   -0.534079
      5          6           0       -1.870098    0.147343   -1.301963
      6          7           0       -1.576701    1.538371   -0.953415
      7          6           0       -0.464150    2.076311   -0.389656
      8          8           0       -0.379270    3.268029   -0.092204
      9          6           0        0.719862    1.200967   -0.131539
     10          7           0        0.853617   -0.081526   -0.306267
     11          6           0        2.104464   -0.503879    0.070400
     12          6           0        2.937957    0.483845    0.543481
     13         16           0        2.143976    2.005579    0.526943
     14          6           0        2.520434   -1.919444   -0.021020
     15          8           0        3.617473   -2.324931    0.305933
     16          8           0        1.549156   -2.724543   -0.508744
     17          1           0       -4.210779   -2.006717    1.639939
     18          1           0       -5.018102   -0.514070    2.130623
     19          1           0       -3.311231   -0.767241    2.526545
     20          1           0       -4.442516   -0.437854   -0.321359
     21          1           0       -3.632810    0.828579    0.595660
     22          1           0       -1.555432   -0.590303    0.676825
     23          1           0       -2.987293   -2.369239   -1.370294
     24          1           0       -1.290645   -2.489662   -0.847109
     25          1           0       -2.598336   -2.850698    0.287282
     26          1           0       -0.987713   -0.289176   -1.768945
     27          1           0       -2.667069    0.176348   -2.054196
     28          1           0       -2.318909    2.220723   -1.043786
     29          1           0        3.954067    0.355676    0.888561
     30          1           0        1.934368   -3.620681   -0.519674
 ---------------------------------------------------------------------

 SCF Done:  E(UB3LYP) =  -1123.21190684     A.U. after   27 cycles

 The electronic state is 2-A.
 Alpha  occ. eigenvalues --  -88.71145 -19.04570 -18.97841 -18.93809 -14.20227
 Alpha  occ. eigenvalues --  -14.16255 -10.16814 -10.12339 -10.08733 -10.07347
 Alpha  occ. eigenvalues --  -10.07122 -10.06661 -10.06366 -10.05724 -10.05664
 Alpha  occ. eigenvalues --  -10.03082  -7.79823  -5.76098  -5.75743  -5.75501
 Alpha  occ. eigenvalues --   -0.98300  -0.89410  -0.88993  -0.81395  -0.79151
 Alpha  occ. eigenvalues --   -0.70628  -0.64367  -0.63927  -0.61910  -0.57856
 Alpha  occ. eigenvalues --   -0.53767  -0.52820  -0.49336  -0.46167  -0.42282
 Alpha  occ. eigenvalues --   -0.41291  -0.38542  -0.36649  -0.36363  -0.36126
 Alpha  occ. eigenvalues --   -0.34071  -0.33896  -0.33037  -0.32666  -0.30161
 Alpha  occ. eigenvalues --   -0.29502  -0.28430  -0.28296  -0.27451  -0.26455
 Alpha  occ. eigenvalues --   -0.26284  -0.25147  -0.24741  -0.22991  -0.22613
 Alpha  occ. eigenvalues --   -0.21924  -0.21430  -0.20110  -0.15913  -0.14240
 Alpha  occ. eigenvalues --   -0.13560  -0.12509  -0.11654  -0.10631   0.03902
 Alpha virt. eigenvalues --    0.06692   0.08234   0.08266   0.09276   0.09364
 Alpha virt. eigenvalues --    0.10628   0.11231   0.11496   0.11663   0.12392
 Alpha virt. eigenvalues --    0.13548   0.13658   0.14657   0.15090   0.15208

  Beta  occ. eigenvalues --  -88.71030 -19.04537 -18.97846 -18.93636 -14.20158
  Beta  occ. eigenvalues --  -14.16138 -10.16727 -10.12187 -10.08738 -10.07347
  Beta  occ. eigenvalues --  -10.07120 -10.06391 -10.06361 -10.05834 -10.05664
  Beta  occ. eigenvalues --  -10.02455  -7.79720  -5.76048  -5.75694  -5.75116
  Beta  occ. eigenvalues --   -0.98228  -0.89077  -0.88973  -0.81078  -0.78977
  Beta  occ. eigenvalues --   -0.70606  -0.63913  -0.63621  -0.61538  -0.57811
  Beta  occ. eigenvalues --   -0.53725  -0.52442  -0.48820  -0.46081  -0.41891
  Beta  occ. eigenvalues --   -0.40950  -0.38482  -0.36584  -0.36254  -0.35953
  Beta  occ. eigenvalues --   -0.33995  -0.33689  -0.32894  -0.32350  -0.30019
  Beta  occ. eigenvalues --   -0.29438  -0.28238  -0.27786  -0.27179  -0.26387
  Beta  occ. eigenvalues --   -0.26148  -0.24844  -0.24126  -0.22951  -0.22148
  Beta  occ. eigenvalues --   -0.21843  -0.20852  -0.19969  -0.15890  -0.13359
  Beta  occ. eigenvalues --   -0.12385  -0.11703  -0.11380  -0.08884
  Beta virt. eigenvalues --    0.06668   0.08217   0.08239   0.09325   0.10374
  Beta virt. eigenvalues --    0.10614   0.10742   0.11217   0.11486   0.11681
  Beta virt. eigenvalues --    0.12370   0.13530   0.13643   0.14651   0.15097

 Mulliken charges and spin densities:
               1          2
     1  C   -0.709282   0.005887
     2  C   -0.194357   0.002294
     3  C    0.548642   0.009014
     4  C   -0.727028  -0.012840
     5  C   -0.418079  -0.007632
     6  N   -0.235780   0.028012
     7  C    0.531491   0.142379
     8  O   -0.397964   0.064646
     9  C   -0.011983   0.155955
    10  N    0.193300   0.050882
    11  C   -0.988221  -0.145986
    12  C    0.317827   0.474885
    13  S   -0.571656   0.173488
    14  C   -0.107942   0.073138
    15  O   -0.376340   0.000188
    16  O   -0.201714   0.004540
    17  H    0.129813   0.000902
    18  H    0.120734   0.003457
    19  H    0.152299  -0.000402
    20  H    0.112108  -0.002488
    21  H    0.124391   0.011162
    22  H    0.151464   0.002523
    23  H    0.112057   0.001377
    24  H    0.163066   0.001143
    25  H    0.103518  -0.000673
    26  H    0.236933   0.000397
    27  H    0.121504  -0.001465
    28  H    0.300830  -0.001797
    29  H    0.241011  -0.033151
    30  H    0.279358   0.000165
 Sum of Mulliken charges =  -1.00000   1.00000

 Dipole moment (field-independent basis, Debye):
    X=             -6.8690    Y=             -4.8402    Z=             -1.1105  Tot=              8.4761
 Quadrupole moment (field-independent basis, Debye-Ang):
   XX=           -136.9081   YY=           -137.8899   ZZ=           -110.3640
   XY=              3.8036   XZ=             -1.1785   YZ=              0.3538

 Summary of Natural Population Analysis:

                                       Natural Population
                Natural  -----------------------------------------------
    Atom  No    Charge         Core      Valence    Rydberg      Total
 -----------------------------------------------------------------------
      C    1   -0.28496      0.99967     2.28115    0.00413     3.28496
      C    2   -0.18894      0.99963     2.18231    0.00700     3.18894
      C    3   -0.12026      0.99960     2.11265    0.00801     3.12026
      C    4   -0.28926      0.99965     2.28449    0.00512     3.28926
      C    5   -0.08720      0.99959     2.07668    0.01092     3.08720
      N    6   -0.31226      0.99967     2.80066    0.01194     3.81226
      C    7    0.33652      0.99959     1.64285    0.02104     2.66348
      O    8   -0.32010      0.99988     3.31397    0.00625     4.32010
      C    9    0.03100      0.99958     1.95285    0.01657     2.96900
      N   10   -0.22772      0.99963     2.71641    0.01169     3.72772
      C   11   -0.04503      0.99943     2.03150    0.01410     3.04503
      C   12   -0.05102      0.99952     2.04156    0.00995     3.05102
      S   13    0.24592      4.99944     2.73196    0.02268     7.75408
      C   14    0.39971      0.99965     1.57662    0.02402     2.60029
      O   15   -0.33336      0.99987     3.32686    0.00663     4.33336
      O   16   -0.34105      0.99988     3.33467    0.00651     4.34105
      H   17    0.09288      0.00000     0.40618    0.00094     0.40712
      H   18    0.09328      0.00000     0.40579    0.00093     0.40672
      H   19    0.09840      0.00000     0.40064    0.00095     0.40160
      H   20    0.08596      0.00000     0.41283    0.00121     0.41404
      H   21    0.09854      0.00000     0.40029    0.00117     0.40146
      H   22    0.10758      0.00000     0.39052    0.00190     0.39242
      H   23    0.08799      0.00000     0.41111    0.00091     0.41201
      H   24    0.11351      0.00000     0.38564    0.00086     0.38649
      H   25    0.09403      0.00000     0.40515    0.00081     0.40597
      H   26    0.11589      0.00000     0.38301    0.00110     0.38411
      H   27    0.08493      0.00000     0.41399    0.00108     0.41507
      H   28    0.18514      0.00000     0.31285    0.00202     0.31486
      H   29    0.10258      0.00000     0.39637    0.00105     0.39742
      H   30    0.22732      0.00000     0.26755    0.00513     0.27268
 =======================================================================
   * Total *   -0.00000     19.99428    43.79910    0.20662    64.00000

 Normal termination of Gaussian 16 at Fri Dec 11 01:24:59 2020.
