 Gaussian 16, Revision A.03,

 -----------------------------------------------------------
 # opt freq B3LYP/6-31G(d) empiricaldispersion=gd3bj scf=xqc
 -----------------------------------------------------------

 -------------------------------
 CID_125869410_JID_8376_neutraal
 -------------------------------
 Symbolic Z-matrix:
 Charge =  0 Multiplicity = 1

 SCF Done:  E(RB3LYP) =  -1158.13044092     A.U. after   15 cycles
 SCF Done:  E(RB3LYP) =  -1158.14070781     A.U. after   14 cycles
 SCF Done:  E(RB3LYP) =  -1158.14002091     A.U. after   14 cycles
 SCF Done:  E(RB3LYP) =  -1158.14346528     A.U. after   13 cycles
 SCF Done:  E(RB3LYP) =  -1158.14541099     A.U. after   13 cycles
 SCF Done:  E(RB3LYP) =  -1158.14598681     A.U. after   13 cycles
 SCF Done:  E(RB3LYP) =  -1158.14510074     A.U. after   13 cycles
 SCF Done:  E(RB3LYP) =  -1158.14688604     A.U. after   12 cycles
 SCF Done:  E(RB3LYP) =  -1158.14728823     A.U. after   13 cycles
 SCF Done:  E(RB3LYP) =  -1158.14739976     A.U. after   12 cycles
 SCF Done:  E(RB3LYP) =  -1158.14746688     A.U. after   11 cycles
 SCF Done:  E(RB3LYP) =  -1158.14747154     A.U. after    9 cycles
 SCF Done:  E(RB3LYP) =  -1158.14747304     A.U. after    9 cycles
 SCF Done:  E(RB3LYP) =  -1158.14747340     A.U. after    8 cycles
 SCF Done:  E(RB3LYP) =  -1158.14747351     A.U. after    7 cycles
 SCF Done:  E(RB3LYP) =  -1158.14747353     A.U. after    7 cycles
 Optimization completed.
    -- Stationary point found.
 Normal termination of Gaussian 16 at Mon Dec 14 13:24:30 2020.

 --------------------------------------------------------------------
 #N Geom=AllCheck Guess=TCheck SCRF=Check GenChk RB3LYP/6-31G(d) Freq
 --------------------------------------------------------------------

 Structure from the checkpoint file:  "JID_8376.chk"
 -------------------------------
 CID_125869410_JID_8376_neutraal
 -------------------------------
 Charge =  0 Multiplicity = 1

 SCF Done:  E(RB3LYP) =  -1158.14747353     A.U. after    1 cycles

  Exact polarizability: 192.699  15.534 184.161 -12.958   2.402 137.113
 Approx polarizability: 284.205  21.916 300.944 -26.551   9.122 241.370

                      1                      2                      3
                      A                      A                      A
 Frequencies --     25.4187                32.3003                61.9090
 Red. masses --      4.3210                 6.0365                 6.3032
 Frc consts  --      0.0016                 0.0037                 0.0142
 IR Inten    --      0.9354                 1.3826                 2.4564

                      4                      5                      6
                      A                      A                      A
 Frequencies --     85.8658               102.6934               110.7914
 Red. masses --      4.0998                 4.7671                 3.1385
 Frc consts  --      0.0178                 0.0296                 0.0227
 IR Inten    --      1.2388                 1.1279                 2.7609

                      7                      8                      9
                      A                      A                      A
 Frequencies --    132.4399               146.9360               175.2791
 Red. masses --      4.4358                 1.1425                 1.2003
 Frc consts  --      0.0458                 0.0145                 0.0217
 IR Inten    --      1.1558                 0.8603                 0.6108

                     10                     11                     12
                      A                      A                      A
 Frequencies --    180.4469               213.5819               239.7962
 Red. masses --      2.4214                 3.8560                 3.3789
 Frc consts  --      0.0465                 0.1036                 0.1145
 IR Inten    --      2.9861                 2.2335                 1.0278

                     13                     14                     15
                      A                      A                      A
 Frequencies --    249.8936               269.1136               303.9093
 Red. masses --      2.1922                 2.2599                 2.7313
 Frc consts  --      0.0807                 0.0964                 0.1486
 IR Inten    --      0.3618                 1.9382                 0.1967

                     16                     17                     18
                      A                      A                      A
 Frequencies --    306.8240               317.9624               362.7610
 Red. masses --      4.6005                 3.4866                 4.2161
 Frc consts  --      0.2552                 0.2077                 0.3269
 IR Inten    --      0.2063                 1.6843                 2.4147

                     19                     20                     21
                      A                      A                      A
 Frequencies --    418.4175               447.8842               469.0934
 Red. masses --      3.5241                 6.0553                 3.2541
 Frc consts  --      0.3635                 0.7157                 0.4219
 IR Inten    --      4.2059                 1.4038                 2.6258

                     22                     23                     24
                      A                      A                      A
 Frequencies --    484.7795               494.9606               525.0823
 Red. masses --      1.9794                 2.7987                 4.3955
 Frc consts  --      0.2741                 0.4040                 0.7140
 IR Inten    --     45.2824                39.9847                 2.4004

                     25                     26                     27
                      A                      A                      A
 Frequencies --    550.0700               561.8814               633.6720
 Red. masses --      5.1891                 5.4774                 4.5655
 Frc consts  --      0.9251                 1.0189                 1.0801
 IR Inten    --     11.6941                 5.0555                18.3077

                     28                     29                     30
                      A                      A                      A
 Frequencies --    652.3744               662.6683               668.3285
 Red. masses --      6.4544                 3.6533                 6.2505
 Frc consts  --      1.6185                 0.9452                 1.6449
 IR Inten    --      3.1243                24.7143                 2.0318

                     31                     32                     33
                      A                      A                      A
 Frequencies --    705.0659               727.4169               755.0494
 Red. masses --      6.8293                 4.0243                 5.2992
 Frc consts  --      2.0002                 1.2546                 1.7800
 IR Inten    --      3.6585                 0.1044                 5.2753

                     34                     35                     36
                      A                      A                      A
 Frequencies --    784.2607               818.7478               852.8553
 Red. masses --      4.4231                 1.4004                 4.0582
 Frc consts  --      1.6029                 0.5531                 1.7391
 IR Inten    --      7.9926                17.4952                14.0381

                     37                     38                     39
                      A                      A                      A
 Frequencies --    918.8179               943.4034               976.5254
 Red. masses --      1.3433                 1.2904                 1.7216
 Frc consts  --      0.6682                 0.6767                 0.9673
 IR Inten    --     12.5135                 0.9290                 6.5554

                     40                     41                     42
                      A                      A                      A
 Frequencies --    999.5006              1013.9917              1029.1444
 Red. masses --      3.3089                 2.0084                 1.6131
 Frc consts  --      1.9476                 1.2167                 1.0066
 IR Inten    --      2.0988                23.9400                11.0089

                     43                     44                     45
                      A                      A                      A
 Frequencies --   1056.2280              1071.9877              1073.6939
 Red. masses --      3.0610                 4.4779                 1.5368
 Frc consts  --      2.0120                 3.0318                 1.0438
 IR Inten    --     21.1330                30.0378                 3.8174

                     46                     47                     48
                      A                      A                      A
 Frequencies --   1084.9556              1134.6538              1172.7076
 Red. masses --      1.4618                 4.2795                 1.5101
 Frc consts  --      1.0139                 3.2462                 1.2236
 IR Inten    --      4.0293                16.0808                33.7309

                     49                     50                     51
                      A                      A                      A
 Frequencies --   1179.8674              1182.8150              1200.0048
 Red. masses --      1.2864                 6.1285                 2.8057
 Frc consts  --      1.0551                 5.0517                 2.3804
 IR Inten    --      0.4844                25.8754                15.2007

                     52                     53                     54
                      A                      A                      A
 Frequencies --   1229.5393              1247.0451              1265.2474
 Red. masses --      1.6411                 2.0463                 2.4854
 Frc consts  --      1.4618                 1.8750                 2.3442
 IR Inten    --      4.5895                 5.3654                37.1012

                     55                     56                     57
                      A                      A                      A
 Frequencies --   1315.4672              1325.9702              1334.8146
 Red. masses --      3.9112                 5.7675                 1.4148
 Frc consts  --      3.9877                 5.9746                 1.4852
 IR Inten    --    162.3786                78.8755                35.2800

                     58                     59                     60
                      A                      A                      A
 Frequencies --   1371.0966              1401.3816              1414.8235
 Red. masses --      3.1673                 1.7592                 2.3234
 Frc consts  --      3.5082                 2.0356                 2.7401
 IR Inten    --     10.3249                12.8127                41.7275

                     61                     62                     63
                      A                      A                      A
 Frequencies --   1443.4477              1452.8104              1465.5032
 Red. masses --      1.2703                 1.8096                 2.2805
 Frc consts  --      1.5595                 2.2503                 2.8857
 IR Inten    --      3.2833                57.4077                72.6095

                     64                     65                     66
                      A                      A                      A
 Frequencies --   1498.6125              1503.3069              1504.9751
 Red. masses --      2.2615                 1.0861                 1.0445
 Frc consts  --      2.9924                 1.4461                 1.3938
 IR Inten    --    210.1163                25.3852                 5.8298

                     67                     68                     69
                      A                      A                      A
 Frequencies --   1508.7650              1516.1208              1520.2715
 Red. masses --      1.2967                 1.1633                 1.1685
 Frc consts  --      1.7391                 1.5754                 1.5911
 IR Inten    --      5.5477                10.4453                 3.7222

                     70                     71                     72
                      A                      A                      A
 Frequencies --   1522.7347              1530.1081              1560.2350
 Red. masses --      1.0488                 1.0994                 2.6299
 Frc consts  --      1.4329                 1.5166                 3.7720
 IR Inten    --      8.5130                40.9858                31.8019

                     73                     74                     75
                      A                      A                      A
 Frequencies --   1626.9196              1644.2930              1663.3181
 Red. masses --      5.9171                 6.7099                 5.6338
 Frc consts  --      9.2277                10.6886                 9.1833
 IR Inten    --     21.0909                39.9593                53.3017

                     76                     77                     78
                      A                      A                      A
 Frequencies --   1691.3469              3044.6006              3053.4123
 Red. masses --      8.0891                 1.0335                 1.0361
 Frc consts  --     13.6338                 5.6444                 5.6916
 IR Inten    --    129.4362                32.2010                22.2203

                     79                     80                     81
                      A                      A                      A
 Frequencies --   3063.6721              3106.5951              3110.8805
 Red. masses --      1.0375                 1.1000                 1.1063
 Frc consts  --      5.7376                 6.2549                 6.3079
 IR Inten    --      9.3853                11.0331                22.9226

                     82                     83                     84
                      A                      A                      A
 Frequencies --   3121.7344              3137.6967              3153.7732
 Red. masses --      1.1015                 1.1031                 1.0882
 Frc consts  --      6.3246                 6.3986                 6.3771
 IR Inten    --      4.5354                17.6124                13.7145

                     85                     86                     87
                      A                      A                      A
 Frequencies --   3169.1842              3170.5348              3186.1351
 Red. masses --      1.1028                 1.1011                 1.0872
 Frc consts  --      6.5259                 6.5216                 6.5024
 IR Inten    --     25.1980                 3.3316                 8.9096

                     88                     89                     90
                      A                      A                      A
 Frequencies --   3202.4636              3244.0047              3679.4043
 Red. masses --      1.0946                 1.0913                 1.0821
 Frc consts  --      6.6141                 6.7662                 8.6314
 IR Inten    --     18.7998                33.6826                98.1291

 - Thermochemistry -
 -------------------
 Temperature   298.150 Kelvin.  Pressure   1.00000 Atm.
 Atom     1 has atomic number  6 and mass  12.00000

 Molecular mass:   262.08883 amu.
 Principal axes and moments of inertia in atomic units:
                           1         2         3
     Eigenvalues --  3228.653515999.784397073.39127
           X            0.99993  -0.01183   0.00019
           Y            0.01183   0.99989   0.00886
           Z           -0.00030  -0.00885   0.99996
 This molecule is an asymmetric top.
 Rotational symmetry number  1.
 Warning -- assumption of classical behavior for rotation
           may cause significant error
 Rotational temperatures (Kelvin)      0.02683     0.01444     0.01225
 Rotational constants (GHZ):           0.55898     0.30080     0.25515
 Zero-point vibrational energy     667343.2 (Joules/Mol)
                                  159.49886 (Kcal/Mol)
 Warning -- explicit consideration of  26 degrees of freedom as
           vibrations may cause significant error
 Vibrational temperatures:     36.57    46.47    89.07   123.54   147.75
          (Kelvin)            159.40   190.55   211.41   252.19   259.62
                              307.30   345.01   359.54   387.19   437.26
                              441.45   457.48   521.93   602.01   644.41
                              674.92   697.49   712.14   755.48   791.43
                              808.42   911.71   938.62   953.43   961.58
                             1014.43  1046.59  1086.35  1128.38  1178.00
                             1227.07  1321.97  1357.35  1405.00  1438.06
                             1458.91  1480.71  1519.68  1542.35  1544.81
                             1561.01  1632.51  1687.26  1697.57  1701.81
                             1726.54  1769.03  1794.22  1820.41  1892.66
                             1907.78  1920.50  1972.70  2016.28  2035.62
                             2076.80  2090.27  2108.53  2156.17  2162.92
                             2165.32  2170.78  2181.36  2187.33  2190.88
                             2201.48  2244.83  2340.77  2365.77  2393.14
                             2433.47  4380.50  4393.18  4407.94  4469.70
                             4475.86  4491.48  4514.45  4537.58  4559.75
                             4561.69  4584.14  4607.63  4667.40  5293.84

 Zero-point correction=                           0.254178 (Hartree/Particle)
 Thermal correction to Energy=                    0.271375
 Thermal correction to Enthalpy=                  0.272319
 Thermal correction to Gibbs Free Energy=         0.208149
 Sum of electronic and zero-point Energies=          -1157.893296
 Sum of electronic and thermal Energies=             -1157.876099
 Sum of electronic and thermal Enthalpies=           -1157.875155
 Sum of electronic and thermal Free Energies=        -1157.939325

                     E (Thermal)             CV                S
                      KCal/Mol        Cal/Mol-Kelvin    Cal/Mol-Kelvin
 Total                  170.290             63.971            135.057
 Electronic               0.000              0.000              0.000
 Translational            0.889              2.981             42.590
 Rotational               0.889              2.981             33.282
 Vibrational            168.513             58.010             59.185
 Vibration     1          0.593              1.985              6.158
 Vibration     2          0.594              1.983              5.683
 Vibration     3          0.597              1.972              4.395
 Vibration     4          0.601              1.959              3.752
 Vibration     5          0.605              1.947              3.403
 Vibration     6          0.607              1.941              3.255
 Vibration     7          0.613              1.921              2.910
 Vibration     8          0.617              1.906              2.712
 Vibration     9          0.627              1.873              2.378
 Vibration    10          0.629              1.866              2.324
 Vibration    11          0.644              1.820              2.013
 Vibration    12          0.657              1.780              1.804
 Vibration    13          0.663              1.763              1.731
 Vibration    14          0.674              1.730              1.602
 Vibration    15          0.695              1.666              1.395
 Vibration    16          0.697              1.661              1.379
 Vibration    17          0.704              1.639              1.321
 Vibration    18          0.737              1.549              1.110
 Vibration    19          0.781              1.430              0.897
 Vibration    20          0.807              1.366              0.802
 Vibration    21          0.826              1.319              0.740
 Vibration    22          0.841              1.284              0.697
 Vibration    23          0.851              1.261              0.671
 Vibration    24          0.880              1.194              0.598
 Vibration    25          0.905              1.140              0.544
 Vibration    26          0.918              1.114              0.520

 Optimization completed.
    -- Stationary point found.
 Normal termination of Gaussian 16 at Mon Dec 14 13:39:08 2020.

 ----------------------------------------------------------------------
 # B3LYP/6-311++G(d,p) empiricaldispersion=gd3bj scf=xqc pop=npa geom=c
 heck
 ----------------------------------------------------------------------

 ---------------------------------------
 CID_125869410_JID_8376_Energie_neutraal
 ---------------------------------------
 Structure from the checkpoint file:  "JID_8376.chk"
 Charge =  0 Multiplicity = 1

 SCF Done:  E(RB3LYP) =  -1158.37463669     A.U. after   16 cycles
 Normal termination of Gaussian 16 at Mon Dec 14 13:46:10 2020.

 ----------------------------------------------------------------------
 # B3LYP/6-311++G(d,p) empiricaldispersion=gd3bj scf=xqc pop=npa geom=c
 heck
 ----------------------------------------------------------------------

 -------------------------------------
 CID_125869410_JID_8376_Energie_kation
 -------------------------------------
 Structure from the checkpoint file:  "JID_8376.chk"
 Charge =  1 Multiplicity = 2

 SCF Done:  E(UB3LYP) =  -1158.09625027     A.U. after   30 cycles
 Normal termination of Gaussian 16 at Mon Dec 14 14:04:38 2020.
 Gaussian 16:  ES64L-G16RevA.03 25-Dec-2016

 ----------------------------------------------------------------------
 # B3LYP/6-311++G(d,p) empiricaldispersion=gd3bj scf=xqc pop=npa geom=c
 heck
 ----------------------------------------------------------------------

 ------------------------------------
 CID_125869410_JID_8376_Energie_anion
 ------------------------------------
 Structure from the checkpoint file:  "JID_8376.chk"
 Charge = -1 Multiplicity = 2

                         Standard orientation:
 ---------------------------------------------------------------------
 Center     Atomic      Atomic             Coordinates (Angstroms)
 Number     Number       Type             X           Y           Z
 ---------------------------------------------------------------------
      1          6           0       -4.440433    0.342764    0.742174
      2          6           0       -3.167207   -0.173267    0.132034
      3          6           0       -2.054206    0.688424    0.002953
      4          6           0       -0.859680    0.238494   -0.552249
      5          6           0       -0.753360   -1.090913   -0.994587
      6          6           0       -1.859157   -1.944296   -0.908966
      7          6           0       -3.043040   -1.481145   -0.333656
      8          6           0        0.493841   -1.620819   -1.561818
      9          7           0        1.720470   -1.434619   -1.221806
     10          7           0        1.898877   -0.636191   -0.070237
     11          6           0        1.896593   -1.128140    1.221016
     12          7           0        2.310938   -0.216018    2.059600
     13          7           0        2.584895    0.865683    1.260587
     14          6           0        2.363482    0.664000   -0.068324
     15         16           0        2.511207    1.736774   -1.340165
     16          6           0        1.460172   -2.503846    1.571994
     17          8           0       -2.242657    1.958462    0.451333
     18          6           0       -1.138886    2.857288    0.380714
     19          1           0       -4.269497    0.699164    1.764556
     20          1           0       -4.827829    1.198489    0.177368
     21          1           0       -5.207631   -0.436085    0.767011
     22          1           0       -0.031584    0.916597   -0.706855
     23          1           0       -1.789435   -2.966147   -1.271059
     24          1           0       -3.896965   -2.148071   -0.251243
     25          1           0        0.392273   -2.322091   -2.391813
     26          1           0        2.949104    1.718024    1.658081
     27          1           0        2.038825   -3.247812    1.014178
     28          1           0        1.606217   -2.659434    2.642266
     29          1           0        0.401661   -2.650217    1.329749
     30          1           0       -0.285170    2.481510    0.957609
     31          1           0       -0.819998    3.022320   -0.654568
     32          1           0       -1.493001    3.794416    0.811978
 ---------------------------------------------------------------------

 SCF Done:  E(UB3LYP) =  -1158.39513330     A.U. after   24 cycles

 The electronic state is 2-A.
 Alpha  occ. eigenvalues --  -88.66836 -19.03317 -14.27625 -14.27413 -14.23370
 Alpha  occ. eigenvalues --  -14.17386 -10.15699 -10.13636 -10.11037 -10.09584
 Alpha  occ. eigenvalues --  -10.07722 -10.05029 -10.04652 -10.03903 -10.03442
 Alpha  occ. eigenvalues --  -10.03377 -10.02921 -10.02348  -7.75577  -5.72036
 Alpha  occ. eigenvalues --   -5.71351  -5.71123  -0.97695  -0.94887  -0.86209
 Alpha  occ. eigenvalues --   -0.75265  -0.73390  -0.71628  -0.65137  -0.63603
 Alpha  occ. eigenvalues --   -0.62205  -0.59923  -0.58379  -0.56865  -0.52956
 Alpha  occ. eigenvalues --   -0.50112  -0.47610  -0.46497  -0.44694  -0.42606
 Alpha  occ. eigenvalues --   -0.40073  -0.38369  -0.36522  -0.35429  -0.34943
 Alpha  occ. eigenvalues --   -0.33234  -0.32827  -0.31368  -0.31142  -0.30724
 Alpha  occ. eigenvalues --   -0.30309  -0.29950  -0.28563  -0.26895  -0.26531
 Alpha  occ. eigenvalues --   -0.24823  -0.24326  -0.23113  -0.22291  -0.21913
 Alpha  occ. eigenvalues --   -0.20923  -0.20179  -0.18602  -0.18018  -0.12799
 Alpha  occ. eigenvalues --   -0.11701  -0.09662  -0.09375  -0.08430   0.03726
 Alpha virt. eigenvalues --    0.07811   0.08511   0.08734   0.09699   0.09927
 Alpha virt. eigenvalues --    0.11066   0.11116   0.11534   0.12124   0.12408
 Alpha virt. eigenvalues --    0.12692   0.13001   0.13237   0.13321   0.14030

  Beta  occ. eigenvalues --  -88.66834 -19.03336 -14.27609 -14.27435 -14.23366
  Beta  occ. eigenvalues --  -14.16818 -10.15662 -10.13613 -10.11034 -10.09670
  Beta  occ. eigenvalues --  -10.07722 -10.05054 -10.04233 -10.03963 -10.03310
  Beta  occ. eigenvalues --  -10.03109 -10.02762 -10.02145  -7.75575  -5.72035
  Beta  occ. eigenvalues --   -5.71343  -5.71122  -0.97631  -0.94922  -0.85769
  Beta  occ. eigenvalues --   -0.75213  -0.72873  -0.71224  -0.64755  -0.63583
  Beta  occ. eigenvalues --   -0.62067  -0.59828  -0.58183  -0.56477  -0.52741
  Beta  occ. eigenvalues --   -0.49968  -0.47282  -0.46197  -0.44499  -0.42405
  Beta  occ. eigenvalues --   -0.39929  -0.38215  -0.36401  -0.35423  -0.34784
  Beta  occ. eigenvalues --   -0.33019  -0.32770  -0.31245  -0.31007  -0.30693
  Beta  occ. eigenvalues --   -0.29976  -0.29656  -0.28437  -0.26711  -0.26421
  Beta  occ. eigenvalues --   -0.24644  -0.24037  -0.22941  -0.22176  -0.21379
  Beta  occ. eigenvalues --   -0.20732  -0.19731  -0.18526  -0.15878  -0.12211
  Beta  occ. eigenvalues --   -0.10592  -0.09414  -0.08397  -0.08278
  Beta virt. eigenvalues --    0.07778   0.08483   0.08702   0.09622   0.09680
  Beta virt. eigenvalues --    0.10339   0.11117   0.11434   0.11685   0.12119
  Beta virt. eigenvalues --    0.12460   0.12769   0.13200   0.13278   0.13354

 Mulliken charges and spin densities:
               1          2
     1  C   -0.569548  -0.021407
     2  C    0.590196   0.196025
     3  C   -0.913268  -0.062529
     4  C    0.265239   0.177143
     5  C    1.122092  -0.035442
     6  C   -0.655450   0.160063
     7  C   -0.611720  -0.003120
     8  C   -0.546777   0.282277
     9  N   -0.612302   0.260302
    10  N    0.597824  -0.038794
    11  C    0.223700  -0.003883
    12  N   -0.124977   0.005711
    13  N   -0.011042  -0.001116
    14  C    0.071200   0.032810
    15  S   -0.782963   0.009918
    16  C   -0.562415  -0.003260
    17  O   -0.141673  -0.000070
    18  C   -0.322042  -0.003493
    19  H    0.134155   0.023051
    20  H    0.144301   0.011198
    21  H    0.119955   0.000363
    22  H   -0.089499  -0.009674
    23  H    0.100139   0.013961
    24  H    0.099998   0.002672
    25  H    0.134546   0.004971
    26  H    0.351207   0.001132
    27  H    0.174401  -0.000529
    28  H    0.144686   0.000168
    29  H    0.187994  -0.001761
    30  H    0.163094   0.000219
    31  H    0.172987   0.003486
    32  H    0.145963  -0.000393
 Sum of Mulliken charges =  -1.00000   1.00000

 Dipole moment (field-independent basis, Debye):
    X=             -1.8102    Y=              0.0226    Z=              4.4598  Tot=              4.8132
 Quadrupole moment (field-independent basis, Debye-Ang):
   XX=           -156.0912   YY=           -125.9419   ZZ=           -135.0410
   XY=             -2.1596   XZ=             10.1957   YZ=              1.6361

 Summary of Natural Population Analysis:

                                       Natural Population
                Natural  -----------------------------------------------
    Atom  No    Charge         Core      Valence    Rydberg      Total
 -----------------------------------------------------------------------
      C    1   -0.29225      0.99965     2.28804    0.00457     3.29225
      C    2    0.02041      0.99949     1.97198    0.00812     2.97959
      C    3    0.14371      0.99935     1.84602    0.01091     2.85629
      C    4   -0.10040      0.99948     2.09170    0.00922     3.10040
      C    5   -0.04912      0.99950     2.03923    0.01039     3.04912
      C    6   -0.07293      0.99953     2.06508    0.00832     3.07293
      C    7   -0.12056      0.99954     2.11261    0.00842     3.12056
      C    8    0.13906      0.99961     1.84648    0.01485     2.86094
      N    9   -0.08832      0.99967     2.57477    0.01388     3.58832
      N   10   -0.14694      0.99952     2.63052    0.01689     3.64694
      C   11    0.20543      0.99962     1.78006    0.01489     2.79457
      N   12   -0.16919      0.99968     2.65809    0.01142     3.66919
      N   13   -0.20156      0.99963     2.68615    0.01577     3.70156
      C   14    0.11749      0.99961     1.86113    0.02177     2.88251
      S   15   -0.15677      4.99960     3.14302    0.01416     8.15677
      C   16   -0.30878      0.99963     2.30463    0.00452     3.30878
      O   17   -0.28279      0.99985     3.27392    0.00902     4.28279
      C   18   -0.10109      0.99961     2.09338    0.00810     3.10109
      H   19    0.10229      0.00000     0.39656    0.00115     0.39771
      H   20    0.10200      0.00000     0.39685    0.00116     0.39800
      H   21    0.09256      0.00000     0.40658    0.00086     0.40744
      H   22    0.11012      0.00000     0.38782    0.00207     0.38988
      H   23    0.09105      0.00000     0.40752    0.00143     0.40895
      H   24    0.08941      0.00000     0.40958    0.00101     0.41059
      H   25    0.07997      0.00000     0.41873    0.00130     0.42003
      H   26    0.19968      0.00000     0.29885    0.00147     0.30032
      H   27    0.11179      0.00000     0.38725    0.00096     0.38821
      H   28    0.10606      0.00000     0.39305    0.00089     0.39394
      H   29    0.11971      0.00000     0.37939    0.00089     0.38029
      H   30    0.08686      0.00000     0.41187    0.00126     0.41314
      H   31    0.08902      0.00000     0.40981    0.00117     0.41098
      H   32    0.08408      0.00000     0.41515    0.00076     0.41592
 =======================================================================
   * Total *    0.00000     21.99257    46.78582    0.22162    69.00000

 Normal termination of Gaussian 16 at Mon Dec 14 14:19:05 2020.
