 Gaussian 16, Revision A.03,

 -----------------------------------------------------------
 # opt freq B3LYP/6-31G(d) empiricaldispersion=gd3bj scf=xqc
 -----------------------------------------------------------

 -------------------------------
 CID_130560261_JID_4885_neutraal
 -------------------------------
 Symbolic Z-matrix:
 Charge =  0 Multiplicity = 1

 SCF Done:  E(RB3LYP) =  -598.758571272     A.U. after   14 cycles
 SCF Done:  E(RB3LYP) =  -598.761734191     A.U. after   12 cycles
 SCF Done:  E(RB3LYP) =  -598.761994474     A.U. after   11 cycles
 SCF Done:  E(RB3LYP) =  -598.762343964     A.U. after   11 cycles
 SCF Done:  E(RB3LYP) =  -598.762402180     A.U. after   10 cycles
 SCF Done:  E(RB3LYP) =  -598.762420703     A.U. after   10 cycles
 SCF Done:  E(RB3LYP) =  -598.762429072     A.U. after    9 cycles
 SCF Done:  E(RB3LYP) =  -598.762432094     A.U. after    9 cycles
 SCF Done:  E(RB3LYP) =  -598.762433036     A.U. after    9 cycles
 SCF Done:  E(RB3LYP) =  -598.762433113     A.U. after    7 cycles
 Optimization completed.
    -- Stationary point found.
 Normal termination of Gaussian 16 at Thu Dec 10 10:49:22 2020.

 --------------------------------------------------------------------
 #N Geom=AllCheck Guess=TCheck SCRF=Check GenChk RB3LYP/6-31G(d) Freq
 --------------------------------------------------------------------

 Structure from the checkpoint file:  "JID_4885.chk"
 -------------------------------
 CID_130560261_JID_4885_neutraal
 -------------------------------
 Charge =  0 Multiplicity = 1

 SCF Done:  E(RB3LYP) =  -598.762433113     A.U. after    1 cycles

  Exact polarizability: 162.626 -10.470 131.001  11.299   8.485 106.314
 Approx polarizability: 219.217 -17.333 208.153  27.006  21.935 159.348

                      1                      2                      3
                      A                      A                      A
 Frequencies --     29.2518                44.4151                54.1880
 Red. masses --      3.6030                 2.7521                 3.4037
 Frc consts  --      0.0018                 0.0032                 0.0059
 IR Inten    --      1.0217                 0.3601                 0.0302

                      4                      5                      6
                      A                      A                      A
 Frequencies --    116.3954               130.2636               159.8421
 Red. masses --      2.9594                 1.0489                 2.7615
 Frc consts  --      0.0236                 0.0105                 0.0416
 IR Inten    --      0.1363                 0.0218                 1.6729

                      7                      8                      9
                      A                      A                      A
 Frequencies --    163.9676               181.0601               209.6671
 Red. masses --      1.1463                 3.6869                 2.5794
 Frc consts  --      0.0182                 0.0712                 0.0668
 IR Inten    --      0.2417                 3.6762                 1.0913

                     10                     11                     12
                      A                      A                      A
 Frequencies --    232.0877               241.4706               281.5856
 Red. masses --      1.1328                 1.4412                 1.8626
 Frc consts  --      0.0360                 0.0495                 0.0870
 IR Inten    --      1.1013                 0.0985                 2.2835

                     13                     14                     15
                      A                      A                      A
 Frequencies --    291.3371               303.9697               336.2341
 Red. masses --      3.5125                 2.7367                 2.3561
 Frc consts  --      0.1757                 0.1490                 0.1569
 IR Inten    --      5.3328                 0.2910                15.8013

                     16                     17                     18
                      A                      A                      A
 Frequencies --    353.6435               387.9378               397.8598
 Red. masses --      1.3126                 2.1967                 3.0827
 Frc consts  --      0.0967                 0.1948                 0.2875
 IR Inten    --     95.4902                32.8888                 2.3451

                     19                     20                     21
                      A                      A                      A
 Frequencies --    431.6814               457.5913               470.0961
 Red. masses --      1.8619                 3.3610                 3.6047
 Frc consts  --      0.2044                 0.4146                 0.4693
 IR Inten    --      1.5612                 1.4095                 3.7274

                     22                     23                     24
                      A                      A                      A
 Frequencies --    527.5405               556.6293               594.9759
 Red. masses --      3.5132                 4.1832                 4.0563
 Frc consts  --      0.5761                 0.7636                 0.8460
 IR Inten    --      3.5876                 0.6980                 1.1684

                     25                     26                     27
                      A                      A                      A
 Frequencies --    679.0939               731.4311               756.9060
 Red. masses --      4.8952                 4.8156                 3.2395
 Frc consts  --      1.3301                 1.5179                 1.0935
 IR Inten    --      3.8293                 8.8762                 7.4010

                     28                     29                     30
                      A                      A                      A
 Frequencies --    766.5368               830.6819               894.1035
 Red. masses --      3.6426                 2.9764                 1.5703
 Frc consts  --      1.2610                 1.2101                 0.7396
 IR Inten    --      4.5809                 6.5962                 1.0464

                     31                     32                     33
                      A                      A                      A
 Frequencies --    915.3277               933.0722               945.8564
 Red. masses --      2.3665                 1.6112                 1.1892
 Frc consts  --      1.1682                 0.8265                 0.6268
 IR Inten    --      9.3198                 4.4620                 3.4695

                     34                     35                     36
                      A                      A                      A
 Frequencies --    954.1753               979.9782               983.1137
 Red. masses --      1.3219                 1.5094                 2.4155
 Frc consts  --      0.7091                 0.8541                 1.3755
 IR Inten    --      0.3909                 0.0714                 3.1207

                     37                     38                     39
                      A                      A                      A
 Frequencies --   1007.7362              1030.1752              1037.5565
 Red. masses --      1.7251                 1.6087                 2.1609
 Frc consts  --      1.0322                 1.0059                 1.3706
 IR Inten    --     14.3124                11.1239                 2.1106

                     40                     41                     42
                      A                      A                      A
 Frequencies --   1059.0308              1071.2837              1086.0675
 Red. masses --      1.4389                 2.5239                 1.6277
 Frc consts  --      0.9508                 1.7066                 1.1312
 IR Inten    --      6.5632                50.8861                 0.0321

                     43                     44                     45
                      A                      A                      A
 Frequencies --   1144.0291              1158.0555              1178.9293
 Red. masses --      1.8344                 2.2530                 2.3892
 Frc consts  --      1.4146                 1.7802                 1.9565
 IR Inten    --      2.1444                 3.2699                30.3004

                     46                     47                     48
                      A                      A                      A
 Frequencies --   1209.0961              1233.7994              1254.6542
 Red. masses --      1.7351                 2.1769                 1.2250
 Frc consts  --      1.4945                 1.9524                 1.1361
 IR Inten    --      8.9915                11.4801                29.6497

                     49                     50                     51
                      A                      A                      A
 Frequencies --   1277.8514              1289.9519              1308.4064
 Red. masses --      2.6995                 1.4525                 2.5281
 Frc consts  --      2.5971                 1.4241                 2.5499
 IR Inten    --      1.3250                 2.5336                 9.1662

                     52                     53                     54
                      A                      A                      A
 Frequencies --   1328.9948              1355.4470              1382.9558
 Red. masses --      2.0024                 1.2605                 1.6335
 Frc consts  --      2.0838                 1.3645                 1.8407
 IR Inten    --      0.4259                14.2633                38.7183

                     55                     56                     57
                      A                      A                      A
 Frequencies --   1397.4345              1414.8395              1424.8135
 Red. masses --      1.4550                 1.5356                 1.4376
 Frc consts  --      1.6740                 1.8111                 1.7195
 IR Inten    --     18.5175                 5.8885                22.5201

                     58                     59                     60
                      A                      A                      A
 Frequencies --   1430.3322              1431.9512              1447.4418
 Red. masses --      1.2672                 1.2974                 1.2301
 Frc consts  --      1.5275                 1.5674                 1.5185
 IR Inten    --      5.4970                 2.0801                 0.7538

                     61                     62                     63
                      A                      A                      A
 Frequencies --   1451.8396              1461.3294              1490.0281
 Red. masses --      1.2329                 2.6110                 1.7421
 Frc consts  --      1.5311                 3.2852                 2.2789
 IR Inten    --     10.6858                15.1863                15.9363

                     64                     65                     66
                      A                      A                      A
 Frequencies --   1498.4888              1507.4676              1513.6852
 Red. masses --      1.0891                 1.0454                 1.1679
 Frc consts  --      1.4409                 1.3997                 1.5767
 IR Inten    --      4.3074                 0.0267                 8.5989

                     67                     68                     69
                      A                      A                      A
 Frequencies --   1519.3985              1522.1835              1524.6975
 Red. masses --      1.0442                 1.0442                 1.0559
 Frc consts  --      1.4203                 1.4255                 1.4463
 IR Inten    --      0.3288                15.1035                 4.0861

                     70                     71                     72
                      A                      A                      A
 Frequencies --   1534.2393              1534.9582              1543.0657
 Red. masses --      1.0525                 1.3960                 1.0548
 Frc consts  --      1.4597                 1.9379                 1.4798
 IR Inten    --      2.6728                24.1516                 7.6198

                     73                     74                     75
                      A                      A                      A
 Frequencies --   1619.5588              1661.3279              2977.2401
 Red. masses --      5.8804                 5.8329                 1.0833
 Frc consts  --      9.0877                 9.4852                 5.6574
 IR Inten    --     12.3896                10.3520                49.8509

                     76                     77                     78
                      A                      A                      A
 Frequencies --   3034.0589              3035.5372              3038.2798
 Red. masses --      1.0551                 1.0630                 1.0526
 Frc consts  --      5.7227                 5.7713                 5.7247
 IR Inten    --     11.0534                 8.6927                40.6763

                     79                     80                     81
                      A                      A                      A
 Frequencies --   3040.6368              3041.5305              3045.8721
 Red. masses --      1.0402                 1.0378                 1.0478
 Frc consts  --      5.6664                 5.6564                 5.7271
 IR Inten    --      9.3003                45.2500                47.8214

                     82                     83                     84
                      A                      A                      A
 Frequencies --   3076.5237              3087.3040              3091.0997
 Red. masses --      1.1033                 1.0999                 1.1003
 Frc consts  --      6.1529                 6.1768                 6.1941
 IR Inten    --     24.3652                27.7637                 8.3453

                     85                     86                     87
                      A                      A                      A
 Frequencies --   3096.2691              3104.2483              3110.2387
 Red. masses --      1.1016                 1.1009                 1.1023
 Frc consts  --      6.2226                 6.2502                 6.2823
 IR Inten    --      6.3770                76.2577                43.6828

                     88                     89                     90
                      A                      A                      A
 Frequencies --   3127.7905              3149.0732              3158.6058
 Red. masses --      1.1008                 1.0896                 1.0965
 Frc consts  --      6.3450                 6.3663                 6.4455
 IR Inten    --     18.6650                30.5927                18.0634

                     91                     92                     93
                      A                      A                      A
 Frequencies --   3161.3622              3197.5524              3733.3396
 Red. masses --      1.0985                 1.0899                 1.0661
 Frc consts  --      6.4685                 6.5657                 8.7546
 IR Inten    --      8.4706                 6.1418                10.4805

 - Thermochemistry -
 -------------------
 Temperature   298.150 Kelvin.  Pressure   1.00000 Atm.
 Atom     1 has atomic number  6 and mass  12.00000

 Molecular mass:   193.14666 amu.
 Principal axes and moments of inertia in atomic units:
                           1         2         3
     Eigenvalues --  1662.716774669.432444795.74822
           X            0.99989  -0.00830  -0.01195
           Y            0.00882   0.99896   0.04479
           Z            0.01157  -0.04489   0.99893
 This molecule is an asymmetric top.
 Rotational symmetry number  1.
 Warning -- assumption of classical behavior for rotation
           may cause significant error
 Rotational temperatures (Kelvin)      0.05209     0.01855     0.01806
 Rotational constants (GHZ):           1.08542     0.38650     0.37632
 Zero-point vibrational energy     765452.3 (Joules/Mol)
                                  182.94749 (Kcal/Mol)
 Warning -- explicit consideration of  24 degrees of freedom as
           vibrations may cause significant error
 Vibrational temperatures:     42.09    63.90    77.96   167.47   187.42
          (Kelvin)            229.98   235.91   260.51   301.66   333.92
                              347.42   405.14   419.17   437.34   483.77
                              508.81   558.16   572.43   621.09   658.37
                              676.36   759.01   800.87   856.04   977.06
                             1052.37  1089.02  1102.88  1195.17  1286.42
                             1316.95  1342.48  1360.88  1372.85  1409.97
                             1414.48  1449.91  1482.19  1492.81  1523.71
                             1541.34  1562.61  1646.00  1666.18  1696.22
                             1739.62  1775.16  1805.17  1838.54  1855.95
                             1882.51  1912.13  1950.19  1989.76  2010.60
                             2035.64  2049.99  2057.93  2060.26  2082.55
                             2088.87  2102.53  2143.82  2155.99  2168.91
                             2177.86  2186.08  2190.08  2193.70  2207.43
                             2208.46  2220.13  2330.18  2390.28  4283.58
                             4365.33  4367.46  4371.41  4374.80  4376.08
                             4382.33  4426.43  4441.94  4447.40  4454.84
                             4466.32  4474.94  4500.19  4530.81  4544.53
                             4548.50  4600.56  5371.44

 Zero-point correction=                           0.291545 (Hartree/Particle)
 Thermal correction to Energy=                    0.306946
 Thermal correction to Enthalpy=                  0.307890
 Thermal correction to Gibbs Free Energy=         0.248815
 Sum of electronic and zero-point Energies=           -598.470888
 Sum of electronic and thermal Energies=              -598.455488
 Sum of electronic and thermal Enthalpies=            -598.454543
 Sum of electronic and thermal Free Energies=         -598.513618

                     E (Thermal)             CV                S
                      KCal/Mol        Cal/Mol-Kelvin    Cal/Mol-Kelvin
 Total                  192.611             57.805            124.333
 Electronic               0.000              0.000              0.000
 Translational            0.889              2.981             41.680
 Rotational               0.889              2.981             31.988
 Vibrational            190.834             51.844             50.666
 Vibration     1          0.593              1.984              5.880
 Vibration     2          0.595              1.980              5.052
 Vibration     3          0.596              1.976              4.658
 Vibration     4          0.608              1.936              3.159
 Vibration     5          0.612              1.923              2.942
 Vibration     6          0.622              1.892              2.552
 Vibration     7          0.623              1.887              2.504
 Vibration     8          0.630              1.865              2.317
 Vibration     9          0.642              1.826              2.047
 Vibration    10          0.653              1.792              1.863
 Vibration    11          0.658              1.777              1.792
 Vibration    12          0.681              1.708              1.524
 Vibration    13          0.687              1.690              1.466
 Vibration    14          0.695              1.666              1.395
 Vibration    15          0.717              1.603              1.230
 Vibration    16          0.730              1.568              1.150
 Vibration    17          0.756              1.496              1.008
 Vibration    18          0.764              1.475              0.971
 Vibration    19          0.793              1.401              0.853
 Vibration    20          0.816              1.344              0.773
 Vibration    21          0.827              1.316              0.737
 Vibration    22          0.882              1.189              0.593
 Vibration    23          0.912              1.125              0.531
 Vibration    24          0.953              1.042              0.458

 Optimization completed.
    -- Stationary point found.
 Normal termination of Gaussian 16 at Thu Dec 10 10:58:48 2020.

 ----------------------------------------------------------------------
 # B3LYP/6-311++G(d,p) empiricaldispersion=gd3bj scf=xqc pop=npa geom=c
 heck
 ----------------------------------------------------------------------

 ---------------------------------------
 CID_130560261_JID_4885_Energie_neutraal
 ---------------------------------------
 Structure from the checkpoint file:  "JID_4885.chk"
 Charge =  0 Multiplicity = 1

 SCF Done:  E(RB3LYP) =  -598.932445127     A.U. after   15 cycles
 Normal termination of Gaussian 16 at Thu Dec 10 11:03:28 2020.

 ----------------------------------------------------------------------
 # B3LYP/6-311++G(d,p) empiricaldispersion=gd3bj scf=xqc pop=npa geom=c
 heck
 ----------------------------------------------------------------------

 -------------------------------------
 CID_130560261_JID_4885_Energie_kation
 -------------------------------------
 Structure from the checkpoint file:  "JID_4885.chk"
 Charge =  1 Multiplicity = 2

 SCF Done:  E(UB3LYP) =  -598.619009945     A.U. after   24 cycles
 Normal termination of Gaussian 16 at Thu Dec 10 11:12:32 2020.
 Gaussian 16:  ES64L-G16RevA.03 25-Dec-2016

 ----------------------------------------------------------------------
 # B3LYP/6-311++G(d,p) empiricaldispersion=gd3bj scf=xqc pop=npa geom=c
 heck
 ----------------------------------------------------------------------

 ------------------------------------
 CID_130560261_JID_4885_Energie_anion
 ------------------------------------
 Structure from the checkpoint file:  "JID_4885.chk"
 Charge = -1 Multiplicity = 2

                         Standard orientation:
 ---------------------------------------------------------------------
 Center     Atomic      Atomic             Coordinates (Angstroms)
 Number     Number       Type             X           Y           Z
 ---------------------------------------------------------------------
      1          6           0       -2.595318    2.094010    0.589667
      2          6           0       -1.974545    0.749998    0.309641
      3          6           0       -0.692158    0.440620    0.759500
      4          6           0       -0.128577   -0.808475    0.488747
      5          6           0       -0.913091   -1.710729   -0.229878
      6          7           0       -2.144269   -1.443983   -0.676285
      7          6           0       -2.670568   -0.237869   -0.418288
      8          6           0       -4.059872    0.016294   -0.943129
      9          6           0        1.278144   -1.172280    0.922703
     10          6           0        2.325817   -0.909593   -0.172893
     11          6           0        2.397112    0.506704   -0.771493
     12          6           0        2.977565    1.540664    0.202569
     13          6           0        3.220645    0.474952   -2.066721
     14          8           0        1.674332   -0.470578    2.102286
     15          1           0       -1.914553    2.729166    1.164192
     16          1           0       -2.845971    2.622823   -0.338423
     17          1           0       -3.528468    1.997406    1.158777
     18          1           0       -0.121869    1.171828    1.325630
     19          1           0       -0.530105   -2.706138   -0.456806
     20          1           0       -4.761646    0.247466   -0.131359
     21          1           0       -4.079724    0.871089   -1.631408
     22          1           0       -4.413937   -0.870052   -1.472457
     23          1           0        1.299487   -2.256625    1.120836
     24          1           0        3.306923   -1.185542    0.236641
     25          1           0        2.109786   -1.621069   -0.980839
     26          1           0        1.376054    0.814986   -1.034124
     27          1           0        4.005791    1.272229    0.477763
     28          1           0        3.005430    2.533884   -0.261677
     29          1           0        2.398278    1.597610    1.125854
     30          1           0        2.782206   -0.206255   -2.805528
     31          1           0        3.279733    1.471486   -2.519357
     32          1           0        4.247021    0.139334   -1.869021
     33          1           0        1.009873   -0.656884    2.784460
 ---------------------------------------------------------------------

 SCF Done:  E(UB3LYP) =  -598.919836123     A.U. after   33 cycles
 SCF Done:  E(UB3LYP) =  -598.919836123     a.u. after    1 cycles

 The electronic state is 2-A.
 Alpha  occ. eigenvalues --  -19.02372 -14.20201 -10.13051 -10.10789 -10.09811
 Alpha  occ. eigenvalues --  -10.08369 -10.07973 -10.07759 -10.07539 -10.07007
 Alpha  occ. eigenvalues --  -10.06742 -10.06587 -10.06428 -10.05309  -0.92769
 Alpha  occ. eigenvalues --   -0.83983  -0.72157  -0.70853  -0.69335  -0.64023
 Alpha  occ. eigenvalues --   -0.61188  -0.58589  -0.58401  -0.53059  -0.51338
 Alpha  occ. eigenvalues --   -0.48755  -0.45630  -0.42720  -0.40056  -0.38998
 Alpha  occ. eigenvalues --   -0.37080  -0.35432  -0.34205  -0.33325  -0.32197
 Alpha  occ. eigenvalues --   -0.31405  -0.30645  -0.30322  -0.29704  -0.29558
 Alpha  occ. eigenvalues --   -0.28839  -0.27713  -0.27205  -0.26844  -0.26395
 Alpha  occ. eigenvalues --   -0.25159  -0.23381  -0.22565  -0.22126  -0.18949
 Alpha  occ. eigenvalues --   -0.17316  -0.15344  -0.14206   0.04380
 Alpha virt. eigenvalues --    0.06458   0.06906   0.07191   0.07581   0.08184
 Alpha virt. eigenvalues --    0.08922   0.09175   0.09436   0.09764   0.10185
 Alpha virt. eigenvalues --    0.11138   0.11454   0.11845   0.12405   0.12838

  Beta  occ. eigenvalues --  -19.02335 -14.20151 -10.13042 -10.10790 -10.09792
  Beta  occ. eigenvalues --  -10.08352 -10.07974 -10.07720 -10.07536 -10.06992
  Beta  occ. eigenvalues --  -10.06699 -10.06564 -10.06410 -10.05296  -0.92692
  Beta  occ. eigenvalues --   -0.83914  -0.72117  -0.70797  -0.69302  -0.63984
  Beta  occ. eigenvalues --   -0.61131  -0.58547  -0.58346  -0.53014  -0.51248
  Beta  occ. eigenvalues --   -0.48710  -0.45582  -0.42656  -0.40020  -0.38945
  Beta  occ. eigenvalues --   -0.37053  -0.35390  -0.34138  -0.33298  -0.32162
  Beta  occ. eigenvalues --   -0.31360  -0.30608  -0.30278  -0.29663  -0.29512
  Beta  occ. eigenvalues --   -0.28822  -0.27676  -0.27119  -0.26813  -0.26343
  Beta  occ. eigenvalues --   -0.25121  -0.23357  -0.22541  -0.22094  -0.18875
  Beta  occ. eigenvalues --   -0.17149  -0.15281  -0.14107
  Beta virt. eigenvalues --    0.06453   0.07115   0.07414   0.07615   0.08128
  Beta virt. eigenvalues --    0.08370   0.09165   0.09530   0.09774   0.10234
  Beta virt. eigenvalues --    0.10616   0.11379   0.11606   0.11900   0.12547

 Mulliken charges and spin densities:
               1          2
     1  C    1.823183  -2.346968
     2  C   -1.434234   1.871863
     3  C    0.329309  -0.464492
     4  C    0.736960  -0.388848
     5  C    0.376438  -0.411975
     6  N   -0.010344   0.070516
     7  C   -2.967100   2.011325
     8  C    1.136024  -1.757767
     9  C    1.166559  -1.247945
    10  C    0.138738  -0.652312
    11  C   -0.555521   0.891616
    12  C   -0.110874  -0.585845
    13  C   -0.057557  -0.474682
    14  O   -0.180478  -0.006052
    15  H   -0.621345   0.765668
    16  H   -0.157153   0.317398
    17  H   -0.273439   0.433609
    18  H   -0.054698   0.255627
    19  H   -0.122918   0.306659
    20  H   -0.100490   0.252706
    21  H   -0.065533   0.212228
    22  H    0.031034   0.129587
    23  H   -0.238468   0.456169
    24  H    0.045310   0.142547
    25  H    0.029743   0.100818
    26  H    0.281977  -0.110811
    27  H    0.011598   0.115857
    28  H   -0.054821   0.176380
    29  H    0.211576  -0.035005
    30  H   -0.077618   0.213710
    31  H   -0.054643   0.190641
    32  H   -0.002981   0.125866
    33  H   -0.178232   0.441912
 Sum of Mulliken charges =  -1.00000   1.00000

 Dipole moment (field-independent basis, Debye):
    X=              2.3644    Y=             -1.6249    Z=             -2.4107  Tot=              3.7473
 Quadrupole moment (field-independent basis, Debye-Ang):
   XX=           -153.1705   YY=           -129.2311   ZZ=           -129.5291
   XY=              5.8830   XZ=              1.3194   YZ=             -3.7451

 Summary of Natural Population Analysis:

                                       Natural Population
                Natural  -----------------------------------------------
    Atom  No    Charge         Core      Valence    Rydberg      Total
 -----------------------------------------------------------------------
      C    1   -0.29432      0.99964     2.28849    0.00619     3.29432
      C    2   -0.02686      0.99947     2.01692    0.01046     3.02686
      C    3   -0.07881      0.99946     2.06821    0.01114     3.07881
      C    4   -0.05122      0.99947     2.03986    0.01189     3.05122
      C    5    0.03107      0.99951     1.95677    0.01265     2.96893
      N    6   -0.23331      0.99968     2.72251    0.01112     3.73331
      C    7    0.10557      0.99950     1.87998    0.01495     2.89443
      C    8   -0.29954      0.99963     2.29510    0.00480     3.29954
      C    9    0.06194      0.99951     1.92305    0.01551     2.93806
      C   10   -0.18850      0.99958     2.17853    0.01038     3.18850
      C   11   -0.12091      0.99961     2.11284    0.00846     3.12091
      C   12   -0.28452      0.99964     2.27987    0.00500     3.28452
      C   13   -0.27981      0.99965     2.27545    0.00471     3.27981
      O   14   -0.37240      0.99989     3.36547    0.00704     4.37240
      H   15    0.10499      0.00000     0.39359    0.00142     0.39501
      H   16    0.10433      0.00000     0.39440    0.00127     0.39567
      H   17    0.10794      0.00000     0.38980    0.00226     0.39206
      H   18    0.10797      0.00000     0.39021    0.00182     0.39203
      H   19    0.08756      0.00000     0.41091    0.00153     0.41244
      H   20    0.10465      0.00000     0.39387    0.00148     0.39535
      H   21    0.10296      0.00000     0.39571    0.00133     0.39704
      H   22    0.10819      0.00000     0.39038    0.00144     0.39181
      H   23    0.08209      0.00000     0.41575    0.00216     0.41791
      H   24    0.10020      0.00000     0.39859    0.00120     0.39980
      H   25    0.10104      0.00000     0.39773    0.00123     0.39896
      H   26    0.09838      0.00000     0.39943    0.00219     0.40162
      H   27    0.09320      0.00000     0.40582    0.00097     0.40680
      H   28    0.09368      0.00000     0.40533    0.00099     0.40632
      H   29    0.11100      0.00000     0.38760    0.00140     0.38900
      H   30    0.09821      0.00000     0.40086    0.00094     0.40179
      H   31    0.09737      0.00000     0.40168    0.00095     0.40263
      H   32    0.09364      0.00000     0.40535    0.00101     0.40636
      H   33    0.23423      0.00000     0.26005    0.00572     0.26577
 =======================================================================
   * Total *    0.00000     13.99427    38.84012    0.16562    53.00000

 Normal termination of Gaussian 16 at Thu Dec 10 11:24:06 2020.
