 Gaussian 16, Revision A.03,

 -----------------------------------------------------------
 # opt freq B3LYP/6-31G(d) empiricaldispersion=gd3bj scf=xqc
 -----------------------------------------------------------

 ------------------------------
 CID_81574925_JID_8826_neutraal
 ------------------------------
 Symbolic Z-matrix:
 Charge =  0 Multiplicity = 1

 SCF Done:  E(RB3LYP) =  -1163.22477191     A.U. after   15 cycles
 SCF Done:  E(RB3LYP) =  -1163.22795022     A.U. after   14 cycles
 SCF Done:  E(RB3LYP) =  -1163.22631767     A.U. after   14 cycles
 SCF Done:  E(RB3LYP) =  -1163.23192004     A.U. after   13 cycles
 SCF Done:  E(RB3LYP) =  -1163.22733588     A.U. after   15 cycles
 SCF Done:  E(RB3LYP) =  -1163.22948405     A.U. after   13 cycles
 SCF Done:  E(RB3LYP) =  -1163.23326521     A.U. after   11 cycles
 SCF Done:  E(RB3LYP) =  -1163.23508259     A.U. after   13 cycles
 SCF Done:  E(RB3LYP) =  -1163.23569089     A.U. after   13 cycles
 SCF Done:  E(RB3LYP) =  -1163.23595683     A.U. after   13 cycles
 SCF Done:  E(RB3LYP) =  -1163.23840652     A.U. after   10 cycles
 SCF Done:  E(RB3LYP) =  -1163.23841169     A.U. after   10 cycles
 SCF Done:  E(RB3LYP) =  -1163.23841423     A.U. after    9 cycles
 SCF Done:  E(RB3LYP) =  -1163.23841530     A.U. after    8 cycles
 SCF Done:  E(RB3LYP) =  -1163.23841599     A.U. after    9 cycles
 SCF Done:  E(RB3LYP) =  -1163.23841611     A.U. after    7 cycles
 Optimization completed.
    -- Stationary point found.
 Normal termination of Gaussian 16 at Fri Dec 11 22:48:19 2020.

 --------------------------------------------------------------------
 #N Geom=AllCheck Guess=TCheck SCRF=Check GenChk RB3LYP/6-31G(d) Freq
 --------------------------------------------------------------------

 Structure from the checkpoint file:  "JID_8826.chk"
 ------------------------------
 CID_81574925_JID_8826_neutraal
 ------------------------------
 Charge =  0 Multiplicity = 1

 SCF Done:  E(RB3LYP) =  -1163.23841611     A.U. after    1 cycles

  Exact polarizability: 217.006  19.063 144.717  26.088 -12.744 145.102
 Approx polarizability: 319.888  39.059 227.448  63.600 -29.132 251.054

                      1                      2                      3
                      A                      A                      A
 Frequencies --     19.8020                25.5030                44.2078
 Red. masses --      4.2864                 5.9532                 5.5908
 Frc consts  --      0.0010                 0.0023                 0.0064
 IR Inten    --      1.3101                 1.4194                 4.9315

                      4                      5                      6
                      A                      A                      A
 Frequencies --     58.2892                93.4676               128.9669
 Red. masses --      6.3895                 4.3264                 3.9571
 Frc consts  --      0.0128                 0.0223                 0.0388
 IR Inten    --      2.7819                 0.0565                 3.9654

                      7                      8                      9
                      A                      A                      A
 Frequencies --    137.1788               182.8130               187.3476
 Red. masses --      4.9949                 4.4677                 5.9796
 Frc consts  --      0.0554                 0.0880                 0.1237
 IR Inten    --      2.9124                 1.6440                 3.8218

                     10                     11                     12
                      A                      A                      A
 Frequencies --    197.9675               225.7022               252.8151
 Red. masses --      2.0626                 5.5058                 1.1452
 Frc consts  --      0.0476                 0.1652                 0.0431
 IR Inten    --      0.5398                 6.8786                 1.1613

                     13                     14                     15
                      A                      A                      A
 Frequencies --    266.2156               302.4462               325.8298
 Red. masses --      5.4750                 4.9871                 2.3058
 Frc consts  --      0.2286                 0.2688                 0.1442
 IR Inten    --      5.8499                 1.5732                 0.9396

                     16                     17                     18
                      A                      A                      A
 Frequencies --    373.1912               390.6956               404.0988
 Red. masses --      2.9931                 1.5096                 3.4308
 Frc consts  --      0.2456                 0.1358                 0.3301
 IR Inten    --     47.2249               113.1597                40.7689

                     19                     20                     21
                      A                      A                      A
 Frequencies --    426.0375               450.5518               461.2062
 Red. masses --      3.0032                 2.9643                 6.0410
 Frc consts  --      0.3212                 0.3545                 0.7571
 IR Inten    --      2.3512                40.8666                 2.1593

                     22                     23                     24
                      A                      A                      A
 Frequencies --    475.4663               517.8410               544.2484
 Red. masses --      3.3048                 3.7188                 2.3652
 Frc consts  --      0.4402                 0.5875                 0.4128
 IR Inten    --      0.3643                25.8550                29.9555

                     25                     26                     27
                      A                      A                      A
 Frequencies --    565.3311               585.7119               619.9193
 Red. masses --      3.3691                 2.1701                 1.1787
 Frc consts  --      0.6344                 0.4386                 0.2669
 IR Inten    --      6.3939                17.3543                17.0924

                     28                     29                     30
                      A                      A                      A
 Frequencies --    653.3167               681.8424               699.5001
 Red. masses --      5.8274                 6.4404                 4.5536
 Frc consts  --      1.4655                 1.7641                 1.3127
 IR Inten    --      4.9926                 4.5321                 3.1893

                     31                     32                     33
                      A                      A                      A
 Frequencies --    711.5317               728.9545               749.0915
 Red. masses --      2.5201                 4.1814                 4.9762
 Frc consts  --      0.7517                 1.3091                 1.6452
 IR Inten    --     10.8104                49.5260                17.0019

                     34                     35                     36
                      A                      A                      A
 Frequencies --    809.1144               827.5251               860.2742
 Red. masses --      2.3240                 1.8978                 2.0680
 Frc consts  --      0.8964                 0.7657                 0.9017
 IR Inten    --      4.6884                 7.0159                15.4700

                     37                     38                     39
                      A                      A                      A
 Frequencies --    899.7422               913.3522               926.9602
 Red. masses --      2.8377                 2.5022                 1.5306
 Frc consts  --      1.3535                 1.2298                 0.7749
 IR Inten    --      7.0858                31.1789                13.9502

                     40                     41                     42
                      A                      A                      A
 Frequencies --    941.1375               943.4020               966.2778
 Red. masses --      2.1768                 1.5873                 1.8681
 Frc consts  --      1.1360                 0.8323                 1.0277
 IR Inten    --     14.2997                 2.3911                 2.5088

                     43                     44                     45
                      A                      A                      A
 Frequencies --    989.7797               992.9643              1001.5994
 Red. masses --      1.4141                 1.3415                 2.1895
 Frc consts  --      0.8162                 0.7793                 1.2941
 IR Inten    --      3.0609                 0.4620                 3.2725

                     46                     47                     48
                      A                      A                      A
 Frequencies --   1020.3813              1024.7441              1094.4395
 Red. masses --      1.9897                 6.1183                 3.1141
 Frc consts  --      1.2206                 3.7854                 2.1977
 IR Inten    --      9.5782                 1.5730                17.5935

                     49                     50                     51
                      A                      A                      A
 Frequencies --   1122.6448              1134.0047              1151.9616
 Red. masses --      1.6320                 3.1840                 1.8358
 Frc consts  --      1.2119                 2.4124                 1.4354
 IR Inten    --      8.3834                67.8697                 6.5855

                     52                     53                     54
                      A                      A                      A
 Frequencies --   1156.0525              1185.8657              1204.3246
 Red. masses --      1.9059                 2.2372                 1.1137
 Frc consts  --      1.5008                 1.8537                 0.9517
 IR Inten    --      5.7108                 5.4419                 2.4317

                     55                     56                     57
                      A                      A                      A
 Frequencies --   1206.2610              1253.7109              1262.6234
 Red. masses --      1.3266                 1.3453                 2.2494
 Frc consts  --      1.1373                 1.2458                 2.1128
 IR Inten    --      7.9374                 7.6507                 8.2909

                     58                     59                     60
                      A                      A                      A
 Frequencies --   1303.8463              1319.3217              1323.5587
 Red. masses --      1.3665                 2.1956                 1.4377
 Frc consts  --      1.3687                 2.2517                 1.4839
 IR Inten    --      1.6344                45.9677                23.0609

                     61                     62                     63
                      A                      A                      A
 Frequencies --   1338.7916              1344.0435              1364.1074
 Red. masses --      1.4070                 2.0688                 3.6185
 Frc consts  --      1.4858                 2.2019                 3.9671
 IR Inten    --     39.7409               184.3866                36.9361

                     64                     65                     66
                      A                      A                      A
 Frequencies --   1376.5663              1387.8479              1391.7282
 Red. masses --      1.2639                 1.7340                 4.1641
 Frc consts  --      1.4111                 1.9678                 4.7520
 IR Inten    --     14.6805               125.0056                83.8211

                     67                     68                     69
                      A                      A                      A
 Frequencies --   1406.1081              1411.9544              1444.0586
 Red. masses --      1.8449                 1.4354                 2.1508
 Frc consts  --      2.1491                 1.6861                 2.6425
 IR Inten    --     77.2968                 5.7107                33.3030

                     70                     71                     72
                      A                      A                      A
 Frequencies --   1446.8069              1493.2595              1520.6339
 Red. masses --      1.2598                 2.6333                 1.0606
 Frc consts  --      1.5537                 3.4596                 1.4449
 IR Inten    --      2.7904                73.6573                12.4690

                     73                     74                     75
                      A                      A                      A
 Frequencies --   1523.8252              1531.2264              1537.8081
 Red. masses --      1.0829                 1.0509                 2.5470
 Frc consts  --      1.4815                 1.4517                 3.5488
 IR Inten    --      2.6211                 1.9779                43.5066

                     76                     77                     78
                      A                      A                      A
 Frequencies --   1558.2850              1640.6583              1651.8877
 Red. masses --      1.0987                 4.8576                 5.1761
 Frc consts  --      1.5719                 7.7038                 8.3218
 IR Inten    --      2.6438                32.8104                24.3148

                     79                     80                     81
                      A                      A                      A
 Frequencies --   1660.0382              1772.2488              3035.6891
 Red. masses --      1.3392                 8.1227                 1.0701
 Frc consts  --      2.1744                15.0314                 5.8103
 IR Inten    --    153.0394               373.3272                52.5886

                     82                     83                     84
                      A                      A                      A
 Frequencies --   3040.3303              3056.9419              3076.6182
 Red. masses --      1.0839                 1.0367                 1.0610
 Frc consts  --      5.9031                 5.7081                 5.9172
 IR Inten    --     23.1481                17.2042                14.7355

                     85                     86                     87
                      A                      A                      A
 Frequencies --   3083.2426              3111.5888              3118.7449
 Red. masses --      1.0863                 1.0958                 1.1030
 Frc consts  --      6.0845                 6.2507                 6.3212
 IR Inten    --     37.9916                19.2057                14.8253

                     88                     89                     90
                      A                      A                      A
 Frequencies --   3127.0912              3143.0385              3200.9234
 Red. masses --      1.1052                 1.1013                 1.0901
 Frc consts  --      6.3675                 6.4102                 6.5809
 IR Inten    --     64.2415                13.4918                 6.7062

                     91                     92                     93
                      A                      A                      A
 Frequencies --   3204.4229              3231.7648              3240.5805
 Red. masses --      1.0890                 1.0922                 1.0944
 Frc consts  --      6.5881                 6.7212                 6.7711
 IR Inten    --      7.0923                 1.2888                 4.0640

                     94                     95                     96
                      A                      A                      A
 Frequencies --   3560.6976              3567.6075              3691.9295
 Red. masses --      1.0746                 1.0450                 1.1044
 Frc consts  --      8.0272                 7.8367                 8.8689
 IR Inten    --     24.5182                48.0472                36.7700

 - Thermochemistry -
 -------------------
 Temperature   298.150 Kelvin.  Pressure   1.00000 Atm.
 Atom     1 has atomic number  6 and mass  12.00000

 Molecular mass:   264.09325 amu.
 Principal axes and moments of inertia in atomic units:
                           1         2         3
     Eigenvalues --  2696.222957880.570358204.85734
           X            0.99975  -0.02071  -0.00841
           Y            0.01995   0.99644  -0.08197
           Z            0.01007   0.08178   0.99660
 This molecule is an asymmetric top.
 Rotational symmetry number  1.
 Warning -- assumption of classical behavior for rotation
           may cause significant error
 Rotational temperatures (Kelvin)      0.03212     0.01099     0.01056
 Rotational constants (GHZ):           0.66936     0.22901     0.21996
 Zero-point vibrational energy     733406.9 (Joules/Mol)
                                  175.28845 (Kcal/Mol)
 Warning -- explicit consideration of  27 degrees of freedom as
           vibrations may cause significant error
 Vibrational temperatures:     28.49    36.69    63.61    83.87   134.48
          (Kelvin)            185.55   197.37   263.03   269.55   284.83
                              324.74   363.74   383.02   435.15   468.80
                              536.94   562.12   581.41   612.97   648.24
                              663.57   684.09   745.06   783.05   813.39
                              842.71   891.93   939.98   981.02  1006.42
                             1023.74  1048.80  1077.78  1164.14  1190.62
                             1237.74  1294.53  1314.11  1333.69  1354.09
                             1357.35  1390.26  1424.07  1428.65  1441.08
                             1468.10  1474.38  1574.65  1615.24  1631.58
                             1657.42  1663.30  1706.20  1732.75  1735.54
                             1803.81  1816.63  1875.94  1898.21  1904.31
                             1926.22  1933.78  1962.65  1980.57  1996.80
                             2002.39  2023.08  2031.49  2077.68  2081.63
                             2148.47  2187.85  2192.44  2203.09  2212.56
                             2242.02  2360.54  2376.70  2388.42  2549.87
                             4367.68  4374.36  4398.26  4426.57  4436.10
                             4476.88  4487.18  4499.19  4522.13  4605.41
                             4610.45  4649.79  4662.47  5123.05  5132.99
                             5311.86

 Zero-point correction=                           0.279340 (Hartree/Particle)
 Thermal correction to Energy=                    0.296313
 Thermal correction to Enthalpy=                  0.297257
 Thermal correction to Gibbs Free Energy=         0.232800
 Sum of electronic and zero-point Energies=          -1162.959076
 Sum of electronic and thermal Energies=             -1162.942103
 Sum of electronic and thermal Enthalpies=           -1162.941159
 Sum of electronic and thermal Free Energies=        -1163.005616

                     E (Thermal)             CV                S
                      KCal/Mol        Cal/Mol-Kelvin    Cal/Mol-Kelvin
 Total                  185.939             64.905            135.662
 Electronic               0.000              0.000              0.000
 Translational            0.889              2.981             42.613
 Rotational               0.889              2.981             33.522
 Vibrational            184.162             58.944             59.527
 Vibration     1          0.593              1.986              6.654
 Vibration     2          0.593              1.985              6.152
 Vibration     3          0.595              1.980              5.061
 Vibration     4          0.596              1.974              4.514
 Vibration     5          0.602              1.954              3.586
 Vibration     6          0.611              1.924              2.961
 Vibration     7          0.614              1.916              2.843
 Vibration     8          0.630              1.863              2.299
 Vibration     9          0.632              1.857              2.254
 Vibration    10          0.637              1.843              2.152
 Vibration    11          0.650              1.802              1.913
 Vibration    12          0.664              1.758              1.711
 Vibration    13          0.672              1.735              1.621
 Vibration    14          0.694              1.669              1.403
 Vibration    15          0.710              1.624              1.281
 Vibration    16          0.745              1.527              1.067
 Vibration    17          0.758              1.490              0.997
 Vibration    18          0.769              1.461              0.948
 Vibration    19          0.788              1.414              0.872
 Vibration    20          0.809              1.360              0.794
 Vibration    21          0.819              1.336              0.763
 Vibration    22          0.832              1.304              0.722
 Vibration    23          0.873              1.210              0.615
 Vibration    24          0.899              1.152              0.556
 Vibration    25          0.921              1.106              0.513
 Vibration    26          0.943              1.062              0.475
 Vibration    27          0.980              0.990              0.417

 Optimization completed.
    -- Stationary point found.
 Normal termination of Gaussian 16 at Fri Dec 11 23:04:56 2020.

 ----------------------------------------------------------------------
 # B3LYP/6-311++G(d,p) empiricaldispersion=gd3bj scf=xqc pop=npa geom=c
 heck
 ----------------------------------------------------------------------

 --------------------------------------
 CID_81574925_JID_8826_Energie_neutraal
 --------------------------------------
 Structure from the checkpoint file:  "JID_8826.chk"
 Charge =  0 Multiplicity = 1

 SCF Done:  E(RB3LYP) =  -1163.48211215     A.U. after   18 cycles
 Normal termination of Gaussian 16 at Fri Dec 11 23:13:30 2020.

 ----------------------------------------------------------------------
 # B3LYP/6-311++G(d,p) empiricaldispersion=gd3bj scf=xqc pop=npa geom=c
 heck
 ----------------------------------------------------------------------

 ------------------------------------
 CID_81574925_JID_8826_Energie_kation
 ------------------------------------
 Structure from the checkpoint file:  "JID_8826.chk"
 Charge =  1 Multiplicity = 2

 SCF Done:  E(UB3LYP) =  -1163.19342656     A.U. after   29 cycles
 Normal termination of Gaussian 16 at Fri Dec 11 23:32:57 2020.
 Gaussian 16:  ES64L-G16RevA.03 25-Dec-2016

 ----------------------------------------------------------------------
 # B3LYP/6-311++G(d,p) empiricaldispersion=gd3bj scf=xqc pop=npa geom=c
 heck
 ----------------------------------------------------------------------

 -----------------------------------
 CID_81574925_JID_8826_Energie_anion
 -----------------------------------
 Structure from the checkpoint file:  "JID_8826.chk"
 Charge = -1 Multiplicity = 2

                         Standard orientation:
 ---------------------------------------------------------------------
 Center     Atomic      Atomic             Coordinates (Angstroms)
 Number     Number       Type             X           Y           Z
 ---------------------------------------------------------------------
      1          6           0        3.208432   -2.233027    0.490919
      2          6           0        2.833285   -1.380940   -0.717673
      3          6           0        1.395561   -1.569332   -1.222807
      4          6           0        1.167731   -0.312780   -2.058531
      5          8           0        1.976177    0.715120   -1.458783
      6          6           0        2.897376    0.162757   -0.529115
      7          6           0        2.662395    0.585730    0.924246
      8          8           0        3.603277    0.552652    1.707495
      9          7           0        1.404054    0.917549    1.378959
     10          6           0        0.162516    1.113916    0.704557
     11          6           0       -0.037283    2.206072   -0.145059
     12          6           0       -1.265653    2.369380   -0.782013
     13          6           0       -2.303524    1.464974   -0.566472
     14          6           0       -2.127049    0.388029    0.311251
     15          6           0       -0.883443    0.222846    0.943794
     16          6           0       -3.231227   -0.579619    0.545307
     17         16           0       -4.353440   -0.987915   -0.617350
     18          7           0       -3.241741   -1.146861    1.774352
     19          1           0        3.193685   -3.294601    0.221466
     20          1           0        2.500772   -2.084160    1.313824
     21          1           0        4.204173   -1.980251    0.864945
     22          1           0        3.520100   -1.613676   -1.541924
     23          1           0        1.267876   -2.489876   -1.800080
     24          1           0        0.699530   -1.600794   -0.377673
     25          1           0        0.128692    0.029136   -2.058858
     26          1           0        1.491322   -0.454174   -3.098620
     27          1           0        3.901255    0.534815   -0.757868
     28          1           0        1.410006    1.070773    2.381914
     29          1           0        0.780592    2.893982   -0.321417
     30          1           0       -1.415441    3.210422   -1.452041
     31          1           0       -3.258032    1.578386   -1.067650
     32          1           0       -0.698168   -0.636026    1.581599
     33          1           0       -2.722791   -0.738755    2.539969
     34          1           0       -3.995057   -1.783597    1.996712
 ---------------------------------------------------------------------

 SCF Done:  E(UB3LYP) =  -1163.50534525     A.U. after   27 cycles

 The electronic state is 2-A.
 Alpha  occ. eigenvalues --  -88.63159 -19.02652 -18.99301 -14.23937 -14.19372
 Alpha  occ. eigenvalues --  -10.17580 -10.13721 -10.11631 -10.09872 -10.08906
 Alpha  occ. eigenvalues --  -10.07932 -10.07775 -10.07642 -10.04394 -10.04222
 Alpha  occ. eigenvalues --  -10.03854 -10.03560 -10.03473  -7.71939  -5.68287
 Alpha  occ. eigenvalues --   -5.67847  -5.67519  -0.95371  -0.93784  -0.82372
 Alpha  occ. eigenvalues --   -0.79671  -0.72087  -0.71819  -0.66274  -0.63179
 Alpha  occ. eigenvalues --   -0.62099  -0.60486  -0.57491  -0.53304  -0.50853
 Alpha  occ. eigenvalues --   -0.49869  -0.48609  -0.46580  -0.44364  -0.41613
 Alpha  occ. eigenvalues --   -0.41107  -0.39573  -0.38256  -0.36283  -0.36132
 Alpha  occ. eigenvalues --   -0.34709  -0.34225  -0.34176  -0.33152  -0.32127
 Alpha  occ. eigenvalues --   -0.30929  -0.29643  -0.29575  -0.28847  -0.26197
 Alpha  occ. eigenvalues --   -0.25617  -0.25297  -0.24495  -0.24059  -0.22540
 Alpha  occ. eigenvalues --   -0.22136  -0.21972  -0.20384  -0.18486  -0.16957
 Alpha  occ. eigenvalues --   -0.15380  -0.13272  -0.12072  -0.08495  -0.05866
 Alpha  occ. eigenvalues --    0.03340
 Alpha virt. eigenvalues --    0.06455   0.07792   0.08392   0.08999   0.09464
 Alpha virt. eigenvalues --    0.09743   0.10457   0.10749   0.11102   0.11906
 Alpha virt. eigenvalues --    0.12023   0.12454   0.12919   0.13231   0.13864

  Beta  occ. eigenvalues --  -88.63093 -19.02645 -18.99301 -14.23931 -14.19229
  Beta  occ. eigenvalues --  -10.17577 -10.13720 -10.11630 -10.09871 -10.09000
  Beta  occ. eigenvalues --  -10.07774 -10.07635 -10.07396 -10.04427 -10.04048
  Beta  occ. eigenvalues --  -10.03724 -10.03348 -10.03251  -7.71880  -5.68266
  Beta  occ. eigenvalues --   -5.67627  -5.67480  -0.95367  -0.93780  -0.82368
  Beta  occ. eigenvalues --   -0.79129  -0.71933  -0.71675  -0.66261  -0.62601
  Beta  occ. eigenvalues --   -0.61869  -0.60459  -0.56930  -0.53257  -0.50735
  Beta  occ. eigenvalues --   -0.49697  -0.48239  -0.46426  -0.44194  -0.41576
  Beta  occ. eigenvalues --   -0.40856  -0.39557  -0.38115  -0.36210  -0.35975
  Beta  occ. eigenvalues --   -0.34686  -0.34216  -0.34008  -0.33068  -0.32036
  Beta  occ. eigenvalues --   -0.30832  -0.29525  -0.29293  -0.28825  -0.26110
  Beta  occ. eigenvalues --   -0.25573  -0.24459  -0.24141  -0.23909  -0.22358
  Beta  occ. eigenvalues --   -0.21979  -0.20745  -0.19915  -0.18444  -0.16775
  Beta  occ. eigenvalues --   -0.15319  -0.12301  -0.11095  -0.07194  -0.05601
  Beta virt. eigenvalues --    0.06397   0.07753   0.08341   0.08942   0.09230
  Beta virt. eigenvalues --    0.09464   0.09801   0.10498   0.10770   0.11062
  Beta virt. eigenvalues --    0.11916   0.12030   0.12530   0.12945   0.13245

 Mulliken charges and spin densities:
               1          2
     1  C   -0.720885  -0.011452
     2  C    0.079895   0.011066
     3  C   -0.268265  -0.001634
     4  C   -0.194369  -0.022449
     5  O   -0.023528  -0.000688
     6  C   -0.004240   0.011079
     7  C   -0.200769  -0.017137
     8  O   -0.309871   0.000173
     9  N   -0.157196   0.002985
    10  C   -0.421312  -0.004619
    11  C   -0.012847   0.197091
    12  C   -0.251611   0.015442
    13  C   -1.147574   0.103244
    14  C    1.913564  -0.037253
    15  C   -0.193232   0.159582
    16  C   -0.738009   0.252242
    17  S   -0.888807   0.206808
    18  N   -0.191126   0.084153
    19  H    0.118864   0.007629
    20  H    0.171910  -0.006982
    21  H    0.159288  -0.000063
    22  H    0.172112   0.001972
    23  H    0.146048   0.024493
    24  H    0.145452   0.001889
    25  H    0.163627   0.009417
    26  H    0.140228   0.001367
    27  H    0.221027   0.002060
    28  H    0.300898  -0.000456
    29  H    0.134934  -0.017219
    30  H    0.145640   0.001771
    31  H    0.102995   0.007280
    32  H    0.157967  -0.002665
    33  H    0.195003   0.024668
    34  H    0.254190  -0.003792
 Sum of Mulliken charges =  -1.00000   1.00000

 Dipole moment (field-independent basis, Debye):
    X=              8.6696    Y=             -0.6856    Z=              0.7104  Tot=              8.7257
 Quadrupole moment (field-independent basis, Debye-Ang):
   XX=           -198.8182   YY=           -130.1716   ZZ=           -123.6733
   XY=            -14.4869   XZ=            -19.2002   YZ=             -3.0309

 Summary of Natural Population Analysis:

                                       Natural Population
                Natural  -----------------------------------------------
    Atom  No    Charge         Core      Valence    Rydberg      Total
 -----------------------------------------------------------------------
      C    1   -0.28786      0.99965     2.28307    0.00514     3.28786
      C    2   -0.11272      0.99960     2.10530    0.00782     3.11272
      C    3   -0.20714      0.99962     2.20037    0.00715     3.20714
      C    4   -0.01156      0.99960     2.00190    0.01005     3.01156
      O    5   -0.30091      0.99989     3.29081    0.01021     4.30091
      C    6    0.03628      0.99950     1.95108    0.01315     2.96372
      C    7    0.33608      0.99964     1.64115    0.02313     2.66392
      O    8   -0.33610      0.99988     3.32917    0.00705     4.33610
      N    9   -0.31530      0.99964     2.80234    0.01332     3.81530
      C   10    0.03387      0.99945     1.95419    0.01249     2.96613
      C   11   -0.03792      0.99951     2.03048    0.00793     3.03792
      C   12   -0.12090      0.99957     2.11286    0.00846     3.12090
      C   13   -0.05385      0.99953     2.04632    0.00800     3.05385
      C   14   -0.03259      0.99946     2.02176    0.01138     3.03259
      C   15   -0.07458      0.99948     2.06535    0.00975     3.07458
      C   16    0.13877      0.99960     1.84185    0.01978     2.86123
      S   17   -0.12934      4.99956     3.11507    0.01471     8.12934
      N   18   -0.37402      0.99968     2.86351    0.01083     3.87402
      H   19    0.09635      0.00000     0.40281    0.00084     0.40365
      H   20    0.10263      0.00000     0.39651    0.00086     0.39737
      H   21    0.10649      0.00000     0.39259    0.00092     0.39351
      H   22    0.09356      0.00000     0.40507    0.00136     0.40644
      H   23    0.10167      0.00000     0.39738    0.00096     0.39833
      H   24    0.10890      0.00000     0.38919    0.00191     0.39110
      H   25    0.10442      0.00000     0.39412    0.00146     0.39558
      H   26    0.07543      0.00000     0.42336    0.00121     0.42457
      H   27    0.09766      0.00000     0.40102    0.00131     0.40234
      H   28    0.19330      0.00000     0.30516    0.00154     0.30670
      H   29    0.09556      0.00000     0.40315    0.00129     0.40444
      H   30    0.09279      0.00000     0.40578    0.00143     0.40721
      H   31    0.10865      0.00000     0.39026    0.00110     0.39135
      H   32    0.09658      0.00000     0.40212    0.00130     0.40342
      H   33    0.18522      0.00000     0.31340    0.00138     0.31478
      H   34    0.19055      0.00000     0.30789    0.00155     0.30945
 =======================================================================
   * Total *    0.00000     21.99284    47.78640    0.22076    70.00000

 Normal termination of Gaussian 16 at Fri Dec 11 23:50:29 2020.
