 Gaussian 16, Revision A.03,

 -----------------------------------------------------------
 # opt freq B3LYP/6-31G(d) empiricaldispersion=gd3bj scf=xqc
 -----------------------------------------------------------

 -------------------------------
 CID_104823812_JID_4538_neutraal
 -------------------------------
 Symbolic Z-matrix:
 Charge =  0 Multiplicity = 1

 SCF Done:  E(RB3LYP) =  -577.677734286     A.U. after   14 cycles
 SCF Done:  E(RB3LYP) =  -577.680807766     A.U. after   11 cycles
 SCF Done:  E(RB3LYP) =  -577.681154740     A.U. after   11 cycles
 SCF Done:  E(RB3LYP) =  -577.681222208     A.U. after   11 cycles
 SCF Done:  E(RB3LYP) =  -577.681269908     A.U. after   11 cycles
 SCF Done:  E(RB3LYP) =  -577.681304351     A.U. after   11 cycles
 SCF Done:  E(RB3LYP) =  -577.681366489     A.U. after   12 cycles
 SCF Done:  E(RB3LYP) =  -577.681442721     A.U. after   12 cycles
 SCF Done:  E(RB3LYP) =  -577.681483242     A.U. after   10 cycles
 SCF Done:  E(RB3LYP) =  -577.681505579     A.U. after   11 cycles
 SCF Done:  E(RB3LYP) =  -577.685125225     A.U. after   10 cycles
 SCF Done:  E(RB3LYP) =  -577.685127796     A.U. after   10 cycles
 SCF Done:  E(RB3LYP) =  -577.685128851     A.U. after    8 cycles
 SCF Done:  E(RB3LYP) =  -577.685128866     A.U. after    6 cycles
 SCF Done:  E(RB3LYP) =  -577.685128878     A.U. after    6 cycles
 Optimization completed.
    -- Stationary point found.
 Normal termination of Gaussian 16 at Thu Dec 10 10:33:31 2020.

 --------------------------------------------------------------------
 #N Geom=AllCheck Guess=TCheck SCRF=Check GenChk RB3LYP/6-31G(d) Freq
 --------------------------------------------------------------------

 Structure from the checkpoint file:  "JID_4538.chk"
 -------------------------------
 CID_104823812_JID_4538_neutraal
 -------------------------------
 Charge =  0 Multiplicity = 1

 SCF Done:  E(RB3LYP) =  -577.685128878     A.U. after    1 cycles

  Exact polarizability: 177.238   0.948 117.160  -1.350 -12.886 110.024
 Approx polarizability: 234.314   3.377 178.365  -1.219 -37.637 177.261

                      1                      2                      3
                      A                      A                      A
 Frequencies --     37.6859                45.9273                57.9975
 Red. masses --      3.1268                 2.6841                 1.2552
 Frc consts  --      0.0026                 0.0033                 0.0025
 IR Inten    --      0.1334                 0.5925                 1.1294

                      4                      5                      6
                      A                      A                      A
 Frequencies --     82.0228               154.4527               163.7144
 Red. masses --      2.8213                 2.4707                 3.6322
 Frc consts  --      0.0112                 0.0347                 0.0574
 IR Inten    --      0.0888                 1.5323                 0.6344

                      7                      8                      9
                      A                      A                      A
 Frequencies --    189.7845               230.7297               242.9620
 Red. masses --      2.8188                 1.4294                 1.0961
 Frc consts  --      0.0598                 0.0448                 0.0381
 IR Inten    --      0.3858                 0.1810                 0.2485

                     10                     11                     12
                      A                      A                      A
 Frequencies --    272.1248               295.2755               338.0712
 Red. masses --      1.7780                 3.0188                 2.8449
 Frc consts  --      0.0776                 0.1551                 0.1916
 IR Inten    --      0.5318                 0.9285                 0.2938

                     13                     14                     15
                      A                      A                      A
 Frequencies --    381.7007               404.1676               426.3115
 Red. masses --      2.8915                 2.7525                 3.4019
 Frc consts  --      0.2482                 0.2649                 0.3643
 IR Inten    --      1.6754                 0.9301                 3.8503

                     16                     17                     18
                      A                      A                      A
 Frequencies --    462.1063               468.8057               520.4209
 Red. masses --      2.2849                 2.9849                 3.5437
 Frc consts  --      0.2875                 0.3865                 0.5655
 IR Inten    --      3.0355                 4.1116                 4.8932

                     19                     20                     21
                      A                      A                      A
 Frequencies --    555.0411               605.3560               656.0924
 Red. masses --      3.2856                 3.0434                 6.3866
 Frc consts  --      0.5964                 0.6571                 1.6198
 IR Inten    --      3.4717                 8.9630                 0.1160

                     22                     23                     24
                      A                      A                      A
 Frequencies --    675.3397               730.0301               760.7738
 Red. masses --      3.4552                 2.7449                 2.9367
 Frc consts  --      0.9285                 0.8619                 1.0014
 IR Inten    --      2.9863                18.5231                12.3299

                     25                     26                     27
                      A                      A                      A
 Frequencies --    814.8075               842.5816               853.7527
 Red. masses --      2.0803                 2.1156                 2.1924
 Frc consts  --      0.8137                 0.8849                 0.9415
 IR Inten    --     21.5657                 4.2629                 6.7058

                     28                     29                     30
                      A                      A                      A
 Frequencies --    874.1308               897.1112               936.1311
 Red. masses --      2.6090                 2.8597                 1.5777
 Frc consts  --      1.1745                 1.3560                 0.8146
 IR Inten    --      9.0450                 7.2163                 2.2566

                     31                     32                     33
                      A                      A                      A
 Frequencies --    960.9879               974.0091               980.1867
 Red. masses --      1.5935                 1.4711                 1.3725
 Frc consts  --      0.8670                 0.8223                 0.7769
 IR Inten    --      3.9085                 4.5791                 0.4533

                     34                     35                     36
                      A                      A                      A
 Frequencies --    987.7457              1013.5571              1020.1606
 Red. masses --      1.6834                 2.0621                 1.4616
 Frc consts  --      0.9676                 1.2481                 0.8962
 IR Inten    --      2.2342                 6.9518                 0.3503

                     37                     38                     39
                      A                      A                      A
 Frequencies --   1051.1205              1069.6217              1075.5001
 Red. masses --      2.7658                 1.7316                 1.5773
 Frc consts  --      1.8004                 1.1672                 1.0749
 IR Inten    --      3.0813                12.1160                 5.3638

                     40                     41                     42
                      A                      A                      A
 Frequencies --   1083.0483              1124.9776              1150.3132
 Red. masses --      1.9107                 1.9992                 2.1086
 Frc consts  --      1.3205                 1.4907                 1.6439
 IR Inten    --     11.5544                 1.0368                 2.6257

                     43                     44                     45
                      A                      A                      A
 Frequencies --   1171.4482              1174.5646              1203.8892
 Red. masses --      1.2897                 2.2401                 2.0831
 Frc consts  --      1.0428                 1.8208                 1.7788
 IR Inten    --      2.9759                 9.7947                 2.2908

                     46                     47                     48
                      A                      A                      A
 Frequencies --   1223.5961              1249.9963              1263.0093
 Red. masses --      1.7375                 1.9416                 2.3470
 Frc consts  --      1.5327                 1.7874                 2.2059
 IR Inten    --     19.3074                 3.1233                 0.9671

                     49                     50                     51
                      A                      A                      A
 Frequencies --   1275.4695              1307.6903              1320.4320
 Red. masses --      1.5718                 2.5011                 1.4265
 Frc consts  --      1.5066                 2.5199                 1.4654
 IR Inten    --     17.9384                 4.8128                19.8131

                     52                     53                     54
                      A                      A                      A
 Frequencies --   1323.5699              1343.7299              1368.1314
 Red. masses --      1.4036                 1.4075                 1.8179
 Frc consts  --      1.4488                 1.4973                 2.0049
 IR Inten    --      1.5181                14.1245                15.7004

                     55                     56                     57
                      A                      A                      A
 Frequencies --   1385.7273              1406.3723              1425.3026
 Red. masses --      1.2580                 1.5192                 1.3105
 Frc consts  --      1.4233                 1.7703                 1.5685
 IR Inten    --     13.7195                11.3113                 3.6309

                     58                     59                     60
                      A                      A                      A
 Frequencies --   1438.4431              1438.6455              1446.7045
 Red. masses --      1.3123                 1.2766                 1.5109
 Frc consts  --      1.5999                 1.5567                 1.8632
 IR Inten    --     14.4060                 1.9475                 7.6509

                     61                     62                     63
                      A                      A                      A
 Frequencies --   1449.1157              1453.2988              1506.6802
 Red. masses --      1.4900                 1.7416                 1.0456
 Frc consts  --      1.8435                 2.1673                 1.3985
 IR Inten    --     10.3426                21.4169                 4.9351

                     64                     65                     66
                      A                      A                      A
 Frequencies --   1517.5284              1519.7416              1523.6437
 Red. masses --      1.1661                 1.0581                 1.0758
 Frc consts  --      1.5822                 1.4399                 1.4714
 IR Inten    --     18.6401                 8.2294                 0.7124

                     67                     68                     69
                      A                      A                      A
 Frequencies --   1525.7483              1530.0304              1532.5137
 Red. masses --      1.0769                 1.0765                 1.0635
 Frc consts  --      1.4770                 1.4847                 1.4717
 IR Inten    --      5.0336                 0.6390                 5.8055

                     70                     71                     72
                      A                      A                      A
 Frequencies --   1534.8451              1627.1623              1659.4636
 Red. masses --      2.2132                 5.0584                 5.8573
 Frc consts  --      3.0719                 7.8909                 9.5035
 IR Inten    --     54.6655                15.7347                21.4844

                     73                     74                     75
                      A                      A                      A
 Frequencies --   2902.5893              2920.6303              3046.4109
 Red. masses --      1.0821                 1.0819                 1.0355
 Frc consts  --      5.3716                 5.4374                 5.6623
 IR Inten    --     65.0996               123.8949                28.5527

                     76                     77                     78
                      A                      A                      A
 Frequencies --   3052.4324              3054.2715              3067.1963
 Red. masses --      1.0387                 1.0359                 1.0829
 Frc consts  --      5.7023                 5.6934                 6.0021
 IR Inten    --     26.9033                25.3031                24.6421

                     79                     80                     81
                      A                      A                      A
 Frequencies --   3079.1075              3110.0812              3111.8692
 Red. masses --      1.0634                 1.1017                 1.1009
 Frc consts  --      5.9403                 6.2786                 6.2814
 IR Inten    --     23.0640                29.5626                35.0413

                     82                     83                     84
                      A                      A                      A
 Frequencies --   3113.3092              3119.9555              3126.1843
 Red. masses --      1.1008                 1.1059                 1.1029
 Frc consts  --      6.2863                 6.3425                 6.3507
 IR Inten    --     14.7818                14.2178                50.0781

                     85                     86                     87
                      A                      A                      A
 Frequencies --   3134.2136              3148.0946              3173.5492
 Red. masses --      1.1031                 1.1002                 1.0883
 Frc consts  --      6.3843                 6.4244                 6.4580
 IR Inten    --     18.8056                20.2983                16.0559

                     88                     89                     90
                      A                      A                      A
 Frequencies --   3185.9881              3199.4195              3493.1378
 Red. masses --      1.0904                 1.0941                 1.0746
 Frc consts  --      6.5212                 6.5983                 7.7256
 IR Inten    --     12.4219                21.2222                 1.2714

 - Thermochemistry -
 -------------------
 Temperature   298.150 Kelvin.  Pressure   1.00000 Atm.
 Atom     1 has atomic number  6 and mass  12.00000

 Molecular mass:   190.14700 amu.
 Principal axes and moments of inertia in atomic units:
                           1         2         3
     Eigenvalues --  1340.898744495.337414849.59074
           X            0.99998  -0.00666  -0.00148
           Y            0.00669   0.99979   0.01914
           Z            0.00136  -0.01915   0.99982
 This molecule is an asymmetric top.
 Rotational symmetry number  1.
 Warning -- assumption of classical behavior for rotation
           may cause significant error
 Rotational temperatures (Kelvin)      0.06459     0.01927     0.01786
 Rotational constants (GHZ):           1.34592     0.40147     0.37214
 Zero-point vibrational energy     745582.0 (Joules/Mol)
                                  178.19837 (Kcal/Mol)
 Warning -- explicit consideration of  20 degrees of freedom as
           vibrations may cause significant error
 Vibrational temperatures:     54.22    66.08    83.45   118.01   222.22
          (Kelvin)            235.55   273.06   331.97   349.57   391.53
                              424.84   486.41   549.18   581.51   613.37
                              664.87   674.51   748.77   798.58   870.97
                              943.97   971.66  1050.35  1094.58  1172.33
                             1212.29  1228.36  1257.68  1290.74  1346.88
                             1382.65  1401.38  1410.27  1421.15  1458.28
                             1467.78  1512.33  1538.95  1547.40  1558.26
                             1618.59  1655.04  1685.45  1689.94  1732.13
                             1760.48  1798.47  1817.19  1835.12  1881.47
                             1899.81  1904.32  1933.33  1968.44  1993.75
                             2023.46  2050.69  2069.60  2069.89  2081.49
                             2084.95  2090.97  2167.78  2183.38  2186.57
                             2192.18  2195.21  2201.37  2204.95  2208.30
                             2341.12  2387.60  4176.18  4202.14  4383.11
                             4391.77  4394.42  4413.01  4430.15  4474.71
                             4477.29  4479.36  4488.92  4497.88  4509.43
                             4529.41  4566.03  4583.93  4603.25  5025.85

 Zero-point correction=                           0.283977 (Hartree/Particle)
 Thermal correction to Energy=                    0.297625
 Thermal correction to Enthalpy=                  0.298569
 Thermal correction to Gibbs Free Energy=         0.242952
 Sum of electronic and zero-point Energies=           -577.401152
 Sum of electronic and thermal Energies=              -577.387504
 Sum of electronic and thermal Enthalpies=            -577.386560
 Sum of electronic and thermal Free Energies=         -577.442177

                     E (Thermal)             CV                S
                      KCal/Mol        Cal/Mol-Kelvin    Cal/Mol-Kelvin
 Total                  186.762             52.493            117.056
 Electronic               0.000              0.000              0.000
 Translational            0.889              2.981             41.634
 Rotational               0.889              2.981             31.747
 Vibrational            184.985             46.532             43.675
 Vibration     1          0.594              1.982              5.377
 Vibration     2          0.595              1.979              4.985
 Vibration     3          0.596              1.974              4.524
 Vibration     4          0.600              1.961              3.842
 Vibration     5          0.620              1.898              2.617
 Vibration     6          0.623              1.887              2.506
 Vibration     7          0.633              1.854              2.230
 Vibration     8          0.652              1.794              1.873
 Vibration     9          0.659              1.774              1.781
 Vibration    10          0.675              1.725              1.583
 Vibration    11          0.689              1.683              1.444
 Vibration    12          0.718              1.599              1.221
 Vibration    13          0.751              1.509              1.032
 Vibration    14          0.769              1.461              0.947
 Vibration    15          0.788              1.413              0.871
 Vibration    16          0.820              1.334              0.760
 Vibration    17          0.826              1.319              0.741
 Vibration    18          0.875              1.205              0.609
 Vibration    19          0.910              1.129              0.534
 Vibration    20          0.964              1.020              0.441

 Optimization completed.
    -- Stationary point found.
 Normal termination of Gaussian 16 at Thu Dec 10 10:42:50 2020.

 ----------------------------------------------------------------------
 # B3LYP/6-311++G(d,p) empiricaldispersion=gd3bj scf=xqc pop=npa geom=c
 heck
 ----------------------------------------------------------------------

 ---------------------------------------
 CID_104823812_JID_4538_Energie_neutraal
 ---------------------------------------
 Structure from the checkpoint file:  "JID_4538.chk"
 Charge =  0 Multiplicity = 1

 SCF Done:  E(RB3LYP) =  -577.839641407     A.U. after   15 cycles
 Normal termination of Gaussian 16 at Thu Dec 10 10:46:36 2020.

 ----------------------------------------------------------------------
 # B3LYP/6-311++G(d,p) empiricaldispersion=gd3bj scf=xqc pop=npa geom=c
 heck
 ----------------------------------------------------------------------

 -------------------------------------
 CID_104823812_JID_4538_Energie_kation
 -------------------------------------
 Structure from the checkpoint file:  "JID_4538.chk"
 Charge =  1 Multiplicity = 2

 SCF Done:  E(UB3LYP) =  -577.542683704     A.U. after   28 cycles
 Normal termination of Gaussian 16 at Thu Dec 10 10:56:20 2020.
 Gaussian 16:  ES64L-G16RevA.03 25-Dec-2016

 ----------------------------------------------------------------------
 # B3LYP/6-311++G(d,p) empiricaldispersion=gd3bj scf=xqc pop=npa geom=c
 heck
 ----------------------------------------------------------------------

 ------------------------------------
 CID_104823812_JID_4538_Energie_anion
 ------------------------------------
 Structure from the checkpoint file:  "JID_4538.chk"
 Charge = -1 Multiplicity = 2

                         Standard orientation:
 ---------------------------------------------------------------------
 Center     Atomic      Atomic             Coordinates (Angstroms)
 Number     Number       Type             X           Y           Z
 ---------------------------------------------------------------------
      1          6           0        3.351700   -1.994028    0.174166
      2          6           0        2.944434   -0.582575   -0.228201
      3          6           0        1.820250   -0.519377   -1.288568
      4          6           0        0.932910    0.703275   -0.895837
      5          6           0        1.725573    1.336738    0.289309
      6          7           0        2.356351    0.160760    0.890998
      7          6           0        0.920523    2.148044    1.294728
      8          6           0       -0.487522    0.319684   -0.551236
      9          6           0       -0.784831   -0.647895    0.422975
     10          7           0       -2.019476   -1.015178    0.771655
     11          6           0       -3.060201   -0.429827    0.151403
     12          6           0       -2.874093    0.546030   -0.830923
     13          6           0       -1.577801    0.921741   -1.178623
     14          6           0       -4.433664   -0.884330    0.573801
     15          1           0        4.128402   -1.978848    0.948151
     16          1           0        3.748729   -2.544800   -0.686164
     17          1           0        2.487550   -2.538412    0.569683
     18          1           0        3.831285   -0.056074   -0.631433
     19          1           0        2.231244   -0.418577   -2.297227
     20          1           0        1.227959   -1.439074   -1.269987
     21          1           0        0.890898    1.429099   -1.714680
     22          1           0        2.483402    2.004420   -0.168042
     23          1           0        3.056055    0.418960    1.584982
     24          1           0        1.581650    2.587616    2.051102
     25          1           0        0.391816    2.967850    0.795744
     26          1           0        0.184104    1.521978    1.804425
     27          1           0        0.030403   -1.130069    0.957939
     28          1           0       -3.731978    1.003646   -1.315158
     29          1           0       -1.413711    1.681375   -1.940107
     30          1           0       -4.558257   -1.955964    0.381046
     31          1           0       -4.570279   -0.735820    1.650673
     32          1           0       -5.221070   -0.341263    0.042526
 ---------------------------------------------------------------------

 SCF Done:  E(UB3LYP) =  -577.826570374     A.U. after   33 cycles
 SCF Done:  E(UB3LYP) =  -577.826570374     a.u. after    1 cycles

 The electronic state is 2-A.
 Alpha  occ. eigenvalues --  -14.20408 -14.19165 -10.11206 -10.09733 -10.09456
 Alpha  occ. eigenvalues --  -10.09452 -10.08229 -10.08000 -10.07763 -10.07656
 Alpha  occ. eigenvalues --  -10.07553 -10.06434 -10.06213 -10.05543  -0.84171
 Alpha  occ. eigenvalues --   -0.82254  -0.71568  -0.68765  -0.67135  -0.65518
 Alpha  occ. eigenvalues --   -0.61095  -0.59754  -0.54553  -0.52709  -0.50312
 Alpha  occ. eigenvalues --   -0.47259  -0.45887  -0.41966  -0.39647  -0.38315
 Alpha  occ. eigenvalues --   -0.36290  -0.35710  -0.34409  -0.33695  -0.32271
 Alpha  occ. eigenvalues --   -0.31643  -0.30942  -0.30290  -0.28774  -0.28528
 Alpha  occ. eigenvalues --   -0.27672  -0.27259  -0.26949  -0.25538  -0.24499
 Alpha  occ. eigenvalues --   -0.23589  -0.22951  -0.21616  -0.18390  -0.15573
 Alpha  occ. eigenvalues --   -0.14755  -0.12874   0.04365
 Alpha virt. eigenvalues --    0.06049   0.06716   0.07171   0.07664   0.07910
 Alpha virt. eigenvalues --    0.08410   0.08969   0.09827   0.10246   0.10833
 Alpha virt. eigenvalues --    0.10956   0.11426   0.12053   0.12642   0.12873

  Beta  occ. eigenvalues --  -14.20379 -14.19134 -10.11198 -10.09728 -10.09437
  Beta  occ. eigenvalues --  -10.09432 -10.08186 -10.07997 -10.07752 -10.07646
  Beta  occ. eigenvalues --  -10.07543 -10.06424 -10.06198 -10.05526  -0.84129
  Beta  occ. eigenvalues --   -0.82216  -0.71518  -0.68723  -0.67097  -0.65474
  Beta  occ. eigenvalues --   -0.61058  -0.59722  -0.54513  -0.52649  -0.50253
  Beta  occ. eigenvalues --   -0.47191  -0.45849  -0.41900  -0.39597  -0.38278
  Beta  occ. eigenvalues --   -0.36235  -0.35666  -0.34361  -0.33656  -0.32240
  Beta  occ. eigenvalues --   -0.31611  -0.30906  -0.30264  -0.28739  -0.28494
  Beta  occ. eigenvalues --   -0.27604  -0.27219  -0.26918  -0.25496  -0.24469
  Beta  occ. eigenvalues --   -0.23547  -0.22909  -0.21584  -0.18257  -0.15534
  Beta  occ. eigenvalues --   -0.14689  -0.12787
  Beta virt. eigenvalues --    0.06447   0.06925   0.06990   0.07819   0.07927
  Beta virt. eigenvalues --    0.08334   0.08981   0.09325   0.10248   0.10553
  Beta virt. eigenvalues --    0.10973   0.11315   0.11693   0.12377   0.12631

 Mulliken charges and spin densities:
               1          2
     1  C    0.049501  -0.744843
     2  C    0.396936  -0.226920
     3  C   -0.397433  -0.503264
     4  C    0.976049  -0.523347
     5  C   -0.115506   0.055280
     6  N   -0.153664  -0.004312
     7  C    0.300634  -1.116652
     8  C    0.939910  -0.338022
     9  C   -1.581750   0.830320
    10  N    0.029251   0.045453
    11  C   -0.734262   0.625338
    12  C    0.397437  -0.584750
    13  C    0.422240  -0.598583
    14  C    0.494005  -1.016173
    15  H   -0.147727   0.282246
    16  H   -0.011085   0.139506
    17  H    0.069969   0.057339
    18  H   -0.404725   0.580927
    19  H   -0.254814   0.402042
    20  H    0.163857   0.020533
    21  H   -0.051918   0.302042
    22  H   -0.658777   0.841710
    23  H    0.140495   0.115499
    24  H   -0.200867   0.342230
    25  H    0.091674   0.043884
    26  H    0.142885   0.044358
    27  H    0.229442   0.024195
    28  H   -0.328610   0.505912
    29  H   -0.869945   1.029165
    30  H    0.084945   0.064986
    31  H    0.129204   0.018471
    32  H   -0.147350   0.285428
 Sum of Mulliken charges =  -1.00000   1.00000

 Dipole moment (field-independent basis, Debye):
    X=             -3.2442    Y=             -3.3947    Z=              2.2633  Tot=              5.2126
 Quadrupole moment (field-independent basis, Debye-Ang):
   XX=           -162.0840   YY=           -125.5972   ZZ=           -125.5856
   XY=             -4.6365   XZ=             -1.8294   YZ=              7.3561

 Summary of Natural Population Analysis:

                                       Natural Population
                Natural  -----------------------------------------------
    Atom  No    Charge         Core      Valence    Rydberg      Total
 -----------------------------------------------------------------------
      C    1   -0.28460      0.99964     2.27833    0.00662     3.28460
      C    2   -0.01204      0.99961     1.99960    0.01283     3.01204
      C    3   -0.18338      0.99961     2.17484    0.00893     3.18338
      C    4   -0.11909      0.99955     2.10507    0.01447     3.11909
      C    5   -0.00312      0.99960     1.98984    0.01368     3.00312
      N    6   -0.34683      0.99971     2.83488    0.01223     3.84683
      C    7   -0.28853      0.99964     2.28262    0.00628     3.28853
      C    8   -0.03091      0.99949     2.01996    0.01146     3.03091
      C    9    0.03143      0.99952     1.95640    0.01265     2.96857
      N   10   -0.23895      0.99968     2.72879    0.01048     3.73895
      C   11    0.09868      0.99955     1.88753    0.01424     2.90132
      C   12   -0.12186      0.99951     2.11301    0.00934     3.12186
      C   13   -0.07211      0.99950     2.06229    0.01031     3.07211
      C   14   -0.29594      0.99963     2.29097    0.00533     3.29594
      H   15    0.09880      0.00000     0.40034    0.00086     0.40120
      H   16    0.09825      0.00000     0.40099    0.00076     0.40175
      H   17    0.09836      0.00000     0.40062    0.00103     0.40164
      H   18    0.08153      0.00000     0.41532    0.00315     0.41847
      H   19    0.10446      0.00000     0.39445    0.00110     0.39554
      H   20    0.09811      0.00000     0.40039    0.00149     0.40189
      H   21    0.10611      0.00000     0.39109    0.00280     0.39389
      H   22    0.08377      0.00000     0.41253    0.00370     0.41623
      H   23    0.17890      0.00000     0.31832    0.00278     0.32110
      H   24    0.09948      0.00000     0.39964    0.00088     0.40052
      H   25    0.10162      0.00000     0.39746    0.00093     0.39838
      H   26    0.10335      0.00000     0.39538    0.00127     0.39665
      H   27    0.09974      0.00000     0.39818    0.00208     0.40026
      H   28    0.10289      0.00000     0.39580    0.00132     0.39711
      H   29    0.10348      0.00000     0.39476    0.00176     0.39652
      H   30    0.10472      0.00000     0.39405    0.00123     0.39528
      H   31    0.10480      0.00000     0.39404    0.00116     0.39520
      H   32    0.09889      0.00000     0.40028    0.00083     0.40111
 =======================================================================
   * Total *    0.00000     13.99423    37.82780    0.17797    52.00000

 Normal termination of Gaussian 16 at Thu Dec 10 11:08:32 2020.
