 Gaussian 16, Revision A.03,

 -----------------------------------------------------------
 # opt freq B3LYP/6-31G(d) empiricaldispersion=gd3bj scf=xqc
 -----------------------------------------------------------

 -------------------------------
 CID_112709414_JID_2003_neutraal
 -------------------------------
 Symbolic Z-matrix:
 Charge =  0 Multiplicity = 1

 SCF Done:  E(RB3LYP) =  -602.901790612     A.U. after   15 cycles
 SCF Done:  E(RB3LYP) =  -602.910066565     A.U. after   13 cycles
 SCF Done:  E(RB3LYP) =  -602.911660810     A.U. after   13 cycles
 SCF Done:  E(RB3LYP) =  -602.912009359     A.U. after   13 cycles
 SCF Done:  E(RB3LYP) =  -602.912637502     A.U. after   13 cycles
 SCF Done:  E(RB3LYP) =  -602.912838776     A.U. after   12 cycles
 SCF Done:  E(RB3LYP) =  -602.912886876     A.U. after   11 cycles
 SCF Done:  E(RB3LYP) =  -602.912915591     A.U. after   11 cycles
 SCF Done:  E(RB3LYP) =  -602.912928953     A.U. after   11 cycles
 SCF Done:  E(RB3LYP) =  -602.912921464     A.U. after   10 cycles
 SCF Done:  E(RB3LYP) =  -602.912950267     A.U. after   11 cycles
 SCF Done:  E(RB3LYP) =  -602.912979644     A.U. after   12 cycles
 SCF Done:  E(RB3LYP) =  -602.912984467     A.U. after   10 cycles
 SCF Done:  E(RB3LYP) =  -602.912987320     A.U. after   10 cycles
 SCF Done:  E(RB3LYP) =  -602.912987853     A.U. after    9 cycles
 SCF Done:  E(RB3LYP) =  -602.912988006     A.U. after    8 cycles
 Optimization completed.
    -- Stationary point found.
 Normal termination of Gaussian 16 at Wed Dec  9 16:45:19 2020.

 --------------------------------------------------------------------
 #N Geom=AllCheck Guess=TCheck SCRF=Check GenChk RB3LYP/6-31G(d) Freq
 --------------------------------------------------------------------

 Structure from the checkpoint file:  "JID_2003.chk"
 -------------------------------
 CID_112709414_JID_2003_neutraal
 -------------------------------
 Charge =  0 Multiplicity = 1

 SCF Done:  E(RB3LYP) =  -602.912988006     A.U. after    1 cycles

  Exact polarizability: 122.111  -1.031  88.301  15.812   4.569  62.386
 Approx polarizability: 174.909  -2.141 159.831  30.639  15.343 101.049

                      1                      2                      3
                      A                      A                      A
 Frequencies --     18.7397                36.4102                61.7837
 Red. masses --     10.8645                 6.5746                 6.9169
 Frc consts  --      0.0022                 0.0051                 0.0156
 IR Inten    --      1.9769                 0.8250                 3.4348

                      4                      5                      6
                      A                      A                      A
 Frequencies --    116.1902               161.1517               217.1493
 Red. masses --      3.4564                 4.3704                 4.7825
 Frc consts  --      0.0275                 0.0669                 0.1329
 IR Inten    --      2.9724                 1.1897                 4.6212

                      7                      8                      9
                      A                      A                      A
 Frequencies --    283.5968               326.2636               405.9217
 Red. masses --      2.4702                 5.1521                 7.1242
 Frc consts  --      0.1171                 0.3231                 0.6916
 IR Inten    --      3.1224                 6.4378                 6.3757

                     10                     11                     12
                      A                      A                      A
 Frequencies --    454.5115               488.9739               530.9622
 Red. masses --      2.5938                 2.3050                 1.8874
 Frc consts  --      0.3157                 0.3247                 0.3135
 IR Inten    --     16.5291                 1.8773                59.3773

                     13                     14                     15
                      A                      A                      A
 Frequencies --    550.3480               570.8561               629.4619
 Red. masses --      4.0855                 3.6292                 1.6701
 Frc consts  --      0.7291                 0.6968                 0.3899
 IR Inten    --      5.6141                74.8394               117.9421

                     16                     17                     18
                      A                      A                      A
 Frequencies --    641.5490               670.1314               724.5545
 Red. masses --      5.6517                 2.4516                 2.3460
 Frc consts  --      1.3705                 0.6487                 0.7256
 IR Inten    --     17.0435                14.2112                50.5792

                     19                     20                     21
                      A                      A                      A
 Frequencies --    776.7512               810.8562               848.4889
 Red. masses --      3.2887                 3.3149                 4.6916
 Frc consts  --      1.1691                 1.2841                 1.9901
 IR Inten    --      2.7895                14.2428                 2.5326

                     22                     23                     24
                      A                      A                      A
 Frequencies --    896.2780               913.1580               954.4368
 Red. masses --      1.5263                 2.7173                 1.4692
 Frc consts  --      0.7224                 1.3350                 0.7885
 IR Inten    --     10.2239                31.2864                 0.4743

                     25                     26                     27
                      A                      A                      A
 Frequencies --    973.6765              1050.4857              1062.7802
 Red. masses --      2.2691                 5.5636                 2.6144
 Frc consts  --      1.2674                 3.6173                 1.7398
 IR Inten    --     35.9052                11.4084                 6.3548

                     28                     29                     30
                      A                      A                      A
 Frequencies --   1111.3930              1128.7917              1186.6072
 Red. masses --      4.4679                 4.5195                 2.1597
 Frc consts  --      3.2516                 3.3929                 1.7916
 IR Inten    --     10.6541                12.2357               165.1815

                     31                     32                     33
                      A                      A                      A
 Frequencies --   1201.9510              1215.8427              1258.6193
 Red. masses --      3.3637                 1.7284                 1.6304
 Frc consts  --      2.8631                 1.5054                 1.5217
 IR Inten    --     55.0909                11.7014                11.4743

                     34                     35                     36
                      A                      A                      A
 Frequencies --   1306.3254              1344.0341              1356.8929
 Red. masses --      1.3455                 1.5957                 1.6701
 Frc consts  --      1.3528                 1.6983                 1.8117
 IR Inten    --     16.7165                36.3250                55.0293

                     37                     38                     39
                      A                      A                      A
 Frequencies --   1388.1265              1417.6192              1439.3691
 Red. masses --      1.6290                 1.4251                 1.7661
 Frc consts  --      1.8494                 1.6874                 2.1559
 IR Inten    --     20.8682                48.0816                 2.4860

                     40                     41                     42
                      A                      A                      A
 Frequencies --   1462.6757              1490.0018              1503.4593
 Red. masses --      2.0852                 1.0887                 1.1630
 Frc consts  --      2.6284                 1.4241                 1.5489
 IR Inten    --     44.1419                14.0133                12.2806

                     43                     44                     45
                      A                      A                      A
 Frequencies --   1540.0932              1587.2377              1637.5252
 Red. masses --      3.1899                 2.7069                 4.9550
 Frc consts  --      4.4578                 4.0180                 7.8284
 IR Inten    --    213.8952                27.5885               126.2013

                     46                     47                     48
                      A                      A                      A
 Frequencies --   1859.1011              3072.2918              3092.8683
 Red. masses --      9.5837                 1.0660                 1.0642
 Frc consts  --     19.5159                 5.9284                 5.9979
 IR Inten    --    323.8098                 4.3690                31.4342

                     49                     50                     51
                      A                      A                      A
 Frequencies --   3132.0777              3150.6191              3154.1039
 Red. masses --      1.0979                 1.0914                 1.1019
 Frc consts  --      6.3458                 6.3831                 6.4589
 IR Inten    --     10.0060                20.1404                 5.5214

                     52                     53                     54
                      A                      A                      A
 Frequencies --   3223.3531              3604.6643              3678.8155
 Red. masses --      1.0919                 1.0756                 1.0640
 Frc consts  --      6.6840                 8.2343                 8.4844
 IR Inten    --     13.4194                51.4793                51.1056

 - Thermochemistry -
 -------------------
 Temperature   298.150 Kelvin.  Pressure   1.00000 Atm.
 Atom     1 has atomic number  6 and mass  12.00000

 Molecular mass:   168.06473 amu.
 Principal axes and moments of inertia in atomic units:
                           1         2         3
     Eigenvalues --   808.228833771.640733978.00178
           X            0.99996  -0.00406   0.00799
           Y            0.00412   0.99996  -0.00821
           Z           -0.00796   0.00824   0.99993
 This molecule is an asymmetric top.
 Rotational symmetry number  1.
 Warning -- assumption of classical behavior for rotation
           may cause significant error
 Rotational temperatures (Kelvin)      0.10717     0.02296     0.02177
 Rotational constants (GHZ):           2.23296     0.47850     0.45368
 Zero-point vibrational energy     405055.1 (Joules/Mol)
                                   96.81050 (Kcal/Mol)
 Warning -- explicit consideration of  14 degrees of freedom as
           vibrations may cause significant error
 Vibrational temperatures:     26.96    52.39    88.89   167.17   231.86
          (Kelvin)            312.43   408.03   469.42   584.03   653.94
                              703.52   763.94   791.83   821.33   905.66
                              923.05   964.17  1042.47  1117.57  1166.64
                             1220.79  1289.54  1313.83  1373.22  1400.90
                             1511.41  1529.10  1599.05  1624.08  1707.26
                             1729.34  1749.33  1810.87  1879.51  1933.77
                             1952.27  1997.20  2039.64  2070.93  2104.46
                             2143.78  2163.14  2215.85  2283.68  2356.03
                             2674.83  4420.34  4449.95  4506.36  4533.04
                             4538.05  4637.69  5186.31  5293.00

 Zero-point correction=                           0.154277 (Hartree/Particle)
 Thermal correction to Energy=                    0.164917
 Thermal correction to Enthalpy=                  0.165861
 Thermal correction to Gibbs Free Energy=         0.115326
 Sum of electronic and zero-point Energies=           -602.758711
 Sum of electronic and thermal Energies=              -602.748071
 Sum of electronic and thermal Enthalpies=            -602.747127
 Sum of electronic and thermal Free Energies=         -602.797662

                     E (Thermal)             CV                S
                      KCal/Mol        Cal/Mol-Kelvin    Cal/Mol-Kelvin
 Total                  103.487             38.743            106.360
 Electronic               0.000              0.000              0.000
 Translational            0.889              2.981             41.266
 Rotational               0.889              2.981             30.873
 Vibrational            101.709             32.781             34.222
 Vibration     1          0.593              1.986              6.763
 Vibration     2          0.594              1.982              5.445
 Vibration     3          0.597              1.973              4.399
 Vibration     4          0.608              1.936              3.163
 Vibration     5          0.622              1.890              2.536
 Vibration     6          0.646              1.815              1.983
 Vibration     7          0.682              1.704              1.512
 Vibration     8          0.710              1.623              1.279
 Vibration     9          0.771              1.457              0.941
 Vibration    10          0.813              1.351              0.782
 Vibration    11          0.845              1.274              0.686
 Vibration    12          0.886              1.181              0.585
 Vibration    13          0.906              1.139              0.543
 Vibration    14          0.927              1.094              0.503

 Optimization completed.
    -- Stationary point found.
 Normal termination of Gaussian 16 at Wed Dec  9 16:49:00 2020.

 ----------------------------------------------------------------------
 # B3LYP/6-311++G(d,p) empiricaldispersion=gd3bj scf=xqc pop=npa geom=c
 heck
 ----------------------------------------------------------------------

 ---------------------------------------
 CID_112709414_JID_2003_Energie_neutraal
 ---------------------------------------
 Structure from the checkpoint file:  "JID_2003.chk"
 Charge =  0 Multiplicity = 1

 SCF Done:  E(RB3LYP) =  -603.092834438     A.U. after   14 cycles
 Normal termination of Gaussian 16 at Wed Dec  9 16:50:10 2020.

 ----------------------------------------------------------------------
 # B3LYP/6-311++G(d,p) empiricaldispersion=gd3bj scf=xqc pop=npa geom=c
 heck
 ----------------------------------------------------------------------

 -------------------------------------
 CID_112709414_JID_2003_Energie_kation
 -------------------------------------
 Structure from the checkpoint file:  "JID_2003.chk"
 Charge =  1 Multiplicity = 2

 SCF Done:  E(UB3LYP) =  -602.771060974     A.U. after   27 cycles
 Normal termination of Gaussian 16 at Wed Dec  9 16:53:08 2020.
 Gaussian 16:  ES64L-G16RevA.03 25-Dec-2016

 ----------------------------------------------------------------------
 # B3LYP/6-311++G(d,p) empiricaldispersion=gd3bj scf=xqc pop=npa geom=c
 heck
 ----------------------------------------------------------------------

 ------------------------------------
 CID_112709414_JID_2003_Energie_anion
 ------------------------------------
 Structure from the checkpoint file:  "JID_2003.chk"
 Charge = -1 Multiplicity = 2

                         Standard orientation:
 ---------------------------------------------------------------------
 Center     Atomic      Atomic             Coordinates (Angstroms)
 Number     Number       Type             X           Y           Z
 ---------------------------------------------------------------------
      1          6           0       -1.931661    1.263592    0.224846
      2          6           0       -1.083079    0.156874    0.489688
      3          7           0       -1.430963   -1.073653    0.084116
      4          7           0       -2.606054   -1.236962   -0.533514
      5          6           0       -3.370241   -0.173604   -0.741127
      6          7           0       -3.080070    1.100178   -0.394565
      7          7           0        0.087132    0.310831    1.184651
      8          6           0        1.060398   -0.770924    1.246897
      9          6           0        1.822948   -1.019826   -0.067314
     10          6           0        2.810081    0.054462   -0.459261
     11          8           0        3.873563   -0.128968   -1.002640
     12          8           0        2.375480    1.313370   -0.147282
     13          1           0       -1.648916    2.272076    0.528821
     14          1           0       -4.314554   -0.350656   -1.246170
     15          1           0        0.492541    1.237013    1.142691
     16          1           0        1.756731   -0.541985    2.058880
     17          1           0        0.522893   -1.683566    1.508584
     18          1           0        2.384005   -1.956648   -0.012563
     19          1           0        1.092851   -1.133939   -0.878270
     20          1           0        3.081110    1.916291   -0.449793
 ---------------------------------------------------------------------

 SCF Done:  E(UB3LYP) =  -603.104484236     A.U. after   29 cycles

 The electronic state is 2-A.
 Alpha  occ. eigenvalues --  -19.07268 -19.02108 -14.19998 -14.16853 -14.16624
 Alpha  occ. eigenvalues --  -14.15012 -10.21134 -10.09993 -10.09577 -10.08198
 Alpha  occ. eigenvalues --  -10.07006 -10.04497  -1.01325  -0.92570  -0.87198
 Alpha  occ. eigenvalues --   -0.81273  -0.76045  -0.68530  -0.64727  -0.57023
 Alpha  occ. eigenvalues --   -0.52365  -0.51398  -0.48592  -0.41677  -0.39865
 Alpha  occ. eigenvalues --   -0.39255  -0.37510  -0.36305  -0.35927  -0.33488
 Alpha  occ. eigenvalues --   -0.31981  -0.31426  -0.28712  -0.27549  -0.26612
 Alpha  occ. eigenvalues --   -0.26509  -0.23191  -0.20180  -0.18615  -0.18326
 Alpha  occ. eigenvalues --   -0.16941  -0.15054  -0.09266  -0.07175   0.04408
 Alpha virt. eigenvalues --    0.06295   0.08830   0.09207   0.10235   0.10754
 Alpha virt. eigenvalues --    0.11525   0.12341   0.13189   0.13671   0.14422
 Alpha virt. eigenvalues --    0.15083   0.16830   0.16969   0.17214   0.17452

  Beta  occ. eigenvalues --  -19.07222 -19.02094 -14.19996 -14.16453 -14.16160
  Beta  occ. eigenvalues --  -14.14582 -10.21133 -10.09991 -10.09669 -10.08191
  Beta  occ. eigenvalues --  -10.07112 -10.04155  -1.01272  -0.92517  -0.86589
  Beta  occ. eigenvalues --   -0.81140  -0.75148  -0.68415  -0.64326  -0.56846
  Beta  occ. eigenvalues --   -0.51685  -0.51308  -0.48356  -0.41566  -0.39825
  Beta  occ. eigenvalues --   -0.39099  -0.37438  -0.36127  -0.35751  -0.33376
  Beta  occ. eigenvalues --   -0.31898  -0.31337  -0.27631  -0.27266  -0.26525
  Beta  occ. eigenvalues --   -0.26358  -0.23159  -0.19682  -0.18429  -0.16458
  Beta  occ. eigenvalues --   -0.15615  -0.14420  -0.08189  -0.06617
  Beta virt. eigenvalues --    0.07282   0.09095   0.09217   0.10147   0.10719
  Beta virt. eigenvalues --    0.11257   0.11539   0.12412   0.13458   0.13579
  Beta virt. eigenvalues --    0.14376   0.15090   0.16796   0.17088   0.17281

 Mulliken charges and spin densities:
               1          2
     1  C   -0.157692   0.313674
     2  C   -0.366097  -0.091325
     3  N   -0.242649   0.190904
     4  N   -0.113238   0.202554
     5  C   -0.177983  -0.077092
     6  N   -0.194095   0.187957
     7  N    0.031970   0.006342
     8  C   -0.258553  -0.159051
     9  C    0.243382  -0.264733
    10  C   -0.040862  -0.036262
    11  O   -0.316571   0.011016
    12  O   -0.198492  -0.013298
    13  H    0.035023   0.054944
    14  H    0.126284   0.001630
    15  H    0.261798  -0.007285
    16  H    0.105616   0.054189
    17  H    0.187106   0.012213
    18  H    0.153845   0.012768
    19  H    0.196467   0.010459
    20  H   -0.275260   0.590396
 Sum of Mulliken charges =  -1.00000   1.00000

 Dipole moment (field-independent basis, Debye):
    X=              3.5791    Y=             -1.1517    Z=              2.3540  Tot=              4.4359
 Quadrupole moment (field-independent basis, Debye-Ang):
   XX=           -126.0034   YY=            -93.7941   ZZ=            -80.6292
   XY=             -5.9428   XZ=              3.8047   YZ=              0.3006

 Summary of Natural Population Analysis:

                                       Natural Population
                Natural  -----------------------------------------------
    Atom  No    Charge         Core      Valence    Rydberg      Total
 -----------------------------------------------------------------------
      C    1    0.06112      0.99958     1.92052    0.01877     2.93888
      C    2    0.14642      0.99956     1.83531    0.01871     2.85358
      N    3   -0.10768      0.99968     2.59424    0.01376     3.60768
      N    4   -0.09478      0.99973     2.57909    0.01596     3.59478
      C    5    0.06806      0.99968     1.91256    0.01970     2.93194
      N    6   -0.18110      0.99971     2.67095    0.01043     3.68110
      N    7   -0.31951      0.99967     2.80869    0.01114     3.81951
      C    8   -0.09042      0.99963     2.07711    0.01368     3.09042
      C    9   -0.25249      0.99957     2.24436    0.00857     3.25249
      C   10    0.40808      0.99972     1.56708    0.02512     2.59192
      O   11   -0.30985      0.99987     3.30365    0.00634     4.30985
      O   12   -0.35268      0.99988     3.34518    0.00762     4.35268
      H   13    0.07582      0.00000     0.42168    0.00251     0.42418
      H   14    0.07514      0.00000     0.42346    0.00140     0.42486
      H   15    0.19225      0.00000     0.30478    0.00297     0.30775
      H   16    0.09053      0.00000     0.40855    0.00092     0.40947
      H   17    0.11169      0.00000     0.38683    0.00148     0.38831
      H   18    0.10768      0.00000     0.39144    0.00088     0.39232
      H   19    0.12893      0.00000     0.36958    0.00149     0.37107
      H   20    0.24278      0.00000     0.24402    0.01320     0.25722
 =======================================================================
   * Total *    0.00000     11.99627    31.80907    0.19465    44.00000

 Normal termination of Gaussian 16 at Wed Dec  9 16:56:21 2020.
