 Gaussian 16, Revision A.03,

 -----------------------------------------------------------
 # opt freq B3LYP/6-31G(d) empiricaldispersion=gd3bj scf=xqc
 -----------------------------------------------------------

 -----------------------------
 CID_62483732_JID_724_neutraal
 -----------------------------
 Symbolic Z-matrix:
 Charge =  0 Multiplicity = 1

 SCF Done:  E(RB3LYP) =  -505.542076099     A.U. after   14 cycles
 SCF Done:  E(RB3LYP) =  -505.548156292     A.U. after   13 cycles
 SCF Done:  E(RB3LYP) =  -505.549389664     A.U. after   13 cycles
 SCF Done:  E(RB3LYP) =  -505.550289280     A.U. after   13 cycles
 SCF Done:  E(RB3LYP) =  -505.550859944     A.U. after   13 cycles
 SCF Done:  E(RB3LYP) =  -505.551209893     A.U. after   12 cycles
 SCF Done:  E(RB3LYP) =  -505.551288679     A.U. after   12 cycles
 SCF Done:  E(RB3LYP) =  -505.551334467     A.U. after   12 cycles
 SCF Done:  E(RB3LYP) =  -505.551359131     A.U. after   10 cycles
 SCF Done:  E(RB3LYP) =  -505.551370958     A.U. after   10 cycles
 SCF Done:  E(RB3LYP) =  -505.551373921     A.U. after    9 cycles
 SCF Done:  E(RB3LYP) =  -505.551375137     A.U. after    8 cycles
 SCF Done:  E(RB3LYP) =  -505.551375289     A.U. after    8 cycles
 Optimization completed.
    -- Stationary point found.
 Normal termination of Gaussian 16 at Tue Dec  8 12:32:59 2020.

 --------------------------------------------------------------------
 #N Geom=AllCheck Guess=TCheck SCRF=Check GenChk RB3LYP/6-31G(d) Freq
 --------------------------------------------------------------------

 Structure from the checkpoint file:  "JID_724.chk"
 -----------------------------
 CID_62483732_JID_724_neutraal
 -----------------------------
 Charge =  0 Multiplicity = 1

 SCF Done:  E(RB3LYP) =  -505.551375289     A.U. after    1 cycles

  Exact polarizability: 114.538   7.394  78.618   1.319   5.383  40.416
 Approx polarizability: 167.661  12.651 134.402   0.407  12.587  62.794

                      1                      2                      3
                      A                      A                      A
 Frequencies --     57.6522               103.1258               139.3032
 Red. masses --      4.2698                 6.7195                 6.0392
 Frc consts  --      0.0084                 0.0421                 0.0690
 IR Inten    --      6.9049                 0.7071                 3.3344

                      4                      5                      6
                      A                      A                      A
 Frequencies --    188.9406               260.8278               341.1039
 Red. masses --      3.9880                 6.0517                 4.3521
 Frc consts  --      0.0839                 0.2426                 0.2983
 IR Inten    --     13.4033                 7.4348                 7.1127

                      7                      8                      9
                      A                      A                      A
 Frequencies --    393.8045               415.8669               444.2044
 Red. masses --      3.5759                 1.1922                 1.1570
 Frc consts  --      0.3267                 0.1215                 0.1345
 IR Inten    --     15.1795                55.3013                67.7443

                     10                     11                     12
                      A                      A                      A
 Frequencies --    493.3708               512.6396               552.2485
 Red. masses --      1.6075                 3.6503                 3.3835
 Frc consts  --      0.2305                 0.5652                 0.6080
 IR Inten    --     66.4672                 6.4256                89.1269

                     13                     14                     15
                      A                      A                      A
 Frequencies --    618.5492               662.2888               693.6891
 Red. masses --      2.5486                 2.2829                 2.7754
 Frc consts  --      0.5745                 0.5900                 0.7869
 IR Inten    --     21.6478                 1.7322                65.9686

                     16                     17                     18
                      A                      A                      A
 Frequencies --    727.0363               767.2329               783.6631
 Red. masses --      1.7000                 2.1682                 2.4484
 Frc consts  --      0.5294                 0.7520                 0.8859
 IR Inten    --    233.0588                42.9643               153.0873

                     19                     20                     21
                      A                      A                      A
 Frequencies --    824.9559               868.7983               946.9711
 Red. masses --      3.2691                 1.2886                 5.7074
 Frc consts  --      1.3108                 0.5731                 3.0155
 IR Inten    --     86.0393                26.8276                15.6943

                     22                     23                     24
                      A                      A                      A
 Frequencies --    989.4326              1037.7389              1071.3581
 Red. masses --      3.4739                 1.7711                 2.5210
 Frc consts  --      2.0038                 1.1237                 1.7049
 IR Inten    --     15.1146                43.7390                15.4604

                     25                     26                     27
                      A                      A                      A
 Frequencies --   1105.0965              1152.8346              1176.6781
 Red. masses --      4.3445                 1.7933                 2.2309
 Frc consts  --      3.1260                 1.4042                 1.8199
 IR Inten    --     23.4426                 0.6833                 8.4439

                     28                     29                     30
                      A                      A                      A
 Frequencies --   1258.9119              1340.8981              1379.2588
 Red. masses --      1.6824                 2.5657                 1.5501
 Frc consts  --      1.5710                 2.7179                 1.7374
 IR Inten    --      3.3102                17.2288                10.5612

                     31                     32                     33
                      A                      A                      A
 Frequencies --   1386.0463              1416.3504              1457.4238
 Red. masses --      4.9640                 4.7884                 2.1828
 Frc consts  --      5.6187                 5.6596                 2.7317
 IR Inten    --      6.4650                42.2816               236.6257

                     34                     35                     36
                      A                      A                      A
 Frequencies --   1514.1655              1577.7768              1619.8066
 Red. masses --      2.2577                 1.2294                 4.0317
 Frc consts  --      3.0497                 1.8031                 6.2325
 IR Inten    --      1.3240                45.2583                 1.0925

                     37                     38                     39
                      A                      A                      A
 Frequencies --   1664.7885              1752.6435              3257.4420
 Red. masses --      1.2317                 5.4381                 1.0957
 Frc consts  --      2.0113                 9.8420                 6.8498
 IR Inten    --    105.3740               452.5948                 1.9897

                     40                     41                     42
                      A                      A                      A
 Frequencies --   3291.4614              3420.3111              3481.3218
 Red. masses --      1.0982                 1.0645                 1.0762
 Frc consts  --      7.0101                 7.3374                 7.6848
 IR Inten    --      0.1515               140.7916                12.3806

                     43                     44                     45
                      A                      A                      A
 Frequencies --   3529.2781              3630.4254              3669.1078
 Red. masses --      1.0475                 1.0987                 1.0817
 Frc consts  --      7.6876                 8.5318                 8.5795
 IR Inten    --     19.4158                37.4453                88.6810

 - Thermochemistry -
 -------------------
 Temperature   298.150 Kelvin.  Pressure   1.00000 Atm.
 Atom     1 has atomic number  6 and mass  12.00000

 Molecular mass:   141.06506 amu.
 Principal axes and moments of inertia in atomic units:
                           1         2         3
     Eigenvalues --   522.854372398.749572802.92381
           X            0.99986   0.01611   0.00416
           Y           -0.01612   0.99987   0.00218
           Z           -0.00413  -0.00225   0.99999
 This molecule is an asymmetric top.
 Rotational symmetry number  1.
 Warning -- assumption of classical behavior for rotation
           may cause significant error
 Rotational temperatures (Kelvin)      0.16566     0.03611     0.03090
 Rotational constants (GHZ):           3.45171     0.75237     0.64388
 Zero-point vibrational energy     346778.5 (Joules/Mol)
                                   82.88204 (Kcal/Mol)
 Warning -- explicit consideration of  13 degrees of freedom as
           vibrations may cause significant error
 Vibrational temperatures:     82.95   148.38   200.43   271.84   375.27
          (Kelvin)            490.77   566.60   598.34   639.11   709.85
                              737.57   794.56   889.95   952.89   998.06
                             1046.04  1103.88  1127.52  1186.93  1250.01
                             1362.48  1423.57  1493.07  1541.45  1589.99
                             1658.67  1692.98  1811.29  1929.25  1984.45
                             1994.21  2037.81  2096.91  2178.55  2270.07
                             2330.54  2395.26  2521.66  4686.73  4735.68
                             4921.06  5008.85  5077.84  5223.37  5279.03

 Zero-point correction=                           0.132081 (Hartree/Particle)
 Thermal correction to Energy=                    0.141128
 Thermal correction to Enthalpy=                  0.142072
 Thermal correction to Gibbs Free Energy=         0.097588
 Sum of electronic and zero-point Energies=           -505.419294
 Sum of electronic and thermal Energies=              -505.410247
 Sum of electronic and thermal Enthalpies=            -505.409303
 Sum of electronic and thermal Free Energies=         -505.453787

                     E (Thermal)             CV                S
                      KCal/Mol        Cal/Mol-Kelvin    Cal/Mol-Kelvin
 Total                   88.559             34.123             93.625
 Electronic               0.000              0.000              0.000
 Translational            0.889              2.981             40.744
 Rotational               0.889              2.981             29.643
 Vibrational             86.782             28.161             23.239
 Vibration     1          0.596              1.974              4.536
 Vibration     2          0.605              1.947              3.394
 Vibration     3          0.615              1.914              2.813
 Vibration     4          0.633              1.855              2.238
 Vibration     5          0.669              1.744              1.656
 Vibration     6          0.721              1.593              1.207
 Vibration     7          0.761              1.483              0.986
 Vibration     8          0.779              1.436              0.906
 Vibration     9          0.804              1.374              0.813
 Vibration    10          0.849              1.265              0.675
 Vibration    11          0.868              1.222              0.627
 Vibration    12          0.908              1.135              0.540
 Vibration    13          0.978              0.993              0.419

 Optimization completed.
    -- Stationary point found.
 Normal termination of Gaussian 16 at Tue Dec  8 12:42:43 2020.

 ----------------------------------------------------------------------
 # B3LYP/6-311++G(d,p) empiricaldispersion=gd3bj scf=xqc pop=npa geom=c
 heck
 ----------------------------------------------------------------------

 -------------------------------------
 CID_62483732_JID_724_Energie_neutraal
 -------------------------------------
 Structure from the checkpoint file:  "JID_724.chk"
 Charge =  0 Multiplicity = 1

 SCF Done:  E(RB3LYP) =  -505.716483116     A.U. after   14 cycles
 Normal termination of Gaussian 16 at Tue Dec  8 12:50:24 2020.

 ----------------------------------------------------------------------
 # B3LYP/6-311++G(d,p) empiricaldispersion=gd3bj scf=xqc pop=npa geom=c
 heck
 ----------------------------------------------------------------------

 -----------------------------------
 CID_62483732_JID_724_Energie_kation
 -----------------------------------
 Structure from the checkpoint file:  "JID_724.chk"
 Charge =  1 Multiplicity = 2

 SCF Done:  E(UB3LYP) =  -505.420457847     A.U. after   21 cycles
 Normal termination of Gaussian 16 at Tue Dec  8 13:04:43 2020.
 Gaussian 16:  ES64L-G16RevA.03 25-Dec-2016

 ----------------------------------------------------------------------
 # B3LYP/6-311++G(d,p) empiricaldispersion=gd3bj scf=xqc pop=npa geom=c
 heck
 ----------------------------------------------------------------------

 ----------------------------------
 CID_62483732_JID_724_Energie_anion
 ----------------------------------
 Structure from the checkpoint file:  "JID_724.chk"
 Charge = -1 Multiplicity = 2

                         Standard orientation:
 ---------------------------------------------------------------------
 Center     Atomic      Atomic             Coordinates (Angstroms)
 Number     Number       Type             X           Y           Z
 ---------------------------------------------------------------------
      1          6           0       -1.753294   -1.160210   -0.428555
      2          6           0       -0.799633   -0.278491    0.064953
      3          6           0       -1.566689    0.821608    0.552279
      4          7           0       -2.875309    0.639027    0.367724
      5          7           0       -2.958612   -0.565161   -0.231300
      6          7           0        0.572373   -0.522923    0.102235
      7          6           0        1.431143    0.408369   -0.121810
      8          7           0        1.209528    1.751414   -0.376908
      9          7           0        2.789309    0.062040   -0.124359
     10          8           0        3.014939   -1.271118    0.298652
     11          1           0       -1.646161   -2.130318   -0.889824
     12          1           0       -1.216651    1.707059    1.066378
     13          1           0       -3.869606   -0.923372   -0.473745
     14          1           0        1.899259    2.167511   -0.993289
     15          1           0        0.258832    1.956088   -0.666197
     16          1           0        3.328296    0.666113    0.495669
     17          1           0        2.096332   -1.572582    0.508845
 ---------------------------------------------------------------------

 SCF Done:  E(UB3LYP) =  -505.705878078     A.U. after   29 cycles

 The electronic state is 2-A.
 Alpha  occ. eigenvalues --  -19.05012 -14.28177 -14.27584 -14.22998 -14.22995
 Alpha  occ. eigenvalues --  -14.20022 -10.18066 -10.10058 -10.10002 -10.08624
 Alpha  occ. eigenvalues --   -0.98495  -0.94534  -0.86956  -0.78844  -0.73108
 Alpha  occ. eigenvalues --   -0.71508  -0.66834  -0.54627  -0.50792  -0.48058
 Alpha  occ. eigenvalues --   -0.45985  -0.44877  -0.41784  -0.40154  -0.36542
 Alpha  occ. eigenvalues --   -0.34785  -0.34159  -0.32403  -0.30834  -0.28177
 Alpha  occ. eigenvalues --   -0.25587  -0.21950  -0.20257  -0.16981  -0.15962
 Alpha  occ. eigenvalues --   -0.14565  -0.11376   0.04435
 Alpha virt. eigenvalues --    0.05984   0.08494   0.09041   0.09883   0.10218
 Alpha virt. eigenvalues --    0.11007   0.11860   0.12992   0.14366   0.14544
 Alpha virt. eigenvalues --    0.15198   0.16815   0.17285   0.17904   0.18804

  Beta  occ. eigenvalues --  -19.05003 -14.28122 -14.27550 -14.22990 -14.22913
  Beta  occ. eigenvalues --  -14.20020 -10.18062 -10.10050 -10.09992 -10.08613
  Beta  occ. eigenvalues --   -0.98469  -0.94489  -0.86908  -0.78778  -0.73035
  Beta  occ. eigenvalues --   -0.71446  -0.66788  -0.54565  -0.50717  -0.48000
  Beta  occ. eigenvalues --   -0.45921  -0.44779  -0.41713  -0.40088  -0.36484
  Beta  occ. eigenvalues --   -0.34742  -0.34109  -0.32361  -0.30811  -0.28146
  Beta  occ. eigenvalues --   -0.25558  -0.21930  -0.20219  -0.16958  -0.15936
  Beta  occ. eigenvalues --   -0.14530  -0.11350
  Beta virt. eigenvalues --    0.07480   0.07965   0.09349   0.09501   0.10370
  Beta virt. eigenvalues --    0.10499   0.11222   0.12190   0.13643   0.14363
  Beta virt. eigenvalues --    0.14814   0.15446   0.17103   0.17442   0.18235

 Mulliken charges and spin densities:
               1          2
     1  C    0.672098  -0.417993
     2  C   -0.463297  -0.094158
     3  C    0.355186  -0.623298
     4  N   -0.285794   0.160078
     5  N    0.321170  -0.431769
     6  N   -0.153888  -0.055202
     7  C    0.699476  -0.750866
     8  N   -0.162105  -0.198968
     9  N   -0.264644   0.053691
    10  O   -0.194125   0.001351
    11  H   -0.529962   0.695428
    12  H    0.102550   0.071429
    13  H   -0.490023   0.834232
    14  H   -0.586891   0.871532
    15  H   -0.211609   0.489694
    16  H   -0.131360   0.418796
    17  H    0.323220  -0.023977
 Sum of Mulliken charges =  -1.00000   1.00000

 Dipole moment (field-independent basis, Debye):
    X=              1.5671    Y=             -1.7852    Z=              2.7095  Tot=              3.6034
 Quadrupole moment (field-independent basis, Debye-Ang):
   XX=           -128.4588   YY=            -96.9688   ZZ=            -81.3482
   XY=            -10.9255   XZ=              0.7386   YZ=              2.0689

 Summary of Natural Population Analysis:

                                       Natural Population
                Natural  -----------------------------------------------
    Atom  No    Charge         Core      Valence    Rydberg      Total
 -----------------------------------------------------------------------
      C    1   -0.01429      0.99953     2.00196    0.01280     3.01429
      C    2    0.01469      0.99948     1.97158    0.01426     2.98531
      C    3   -0.03680      0.99958     2.02390    0.01331     3.03680
      N    4   -0.15392      0.99974     2.63912    0.01506     3.65392
      N    5   -0.16183      0.99971     2.64812    0.01401     3.66183
      N    6   -0.31845      0.99958     2.80662    0.01225     3.81845
      C    7    0.30417      0.99961     1.68073    0.01549     2.69583
      N    8   -0.40759      0.99971     2.89727    0.01061     3.90759
      N    9   -0.16627      0.99966     2.65144    0.01518     3.66627
      O   10   -0.29453      0.99991     3.28633    0.00829     4.29453
      H   11    0.10747      0.00000     0.39089    0.00164     0.39253
      H   12    0.10109      0.00000     0.39749    0.00142     0.39891
      H   13    0.20546      0.00000     0.27701    0.01753     0.29454
      H   14    0.19977      0.00000     0.28203    0.01819     0.30023
      H   15    0.19863      0.00000     0.29760    0.00377     0.30137
      H   16    0.18177      0.00000     0.31515    0.00308     0.31823
      H   17    0.24062      0.00000     0.25573    0.00364     0.25938
 =======================================================================
   * Total *    0.00000      9.99649    26.82298    0.18052    37.00000

 Normal termination of Gaussian 16 at Tue Dec  8 13:10:46 2020.
