 Gaussian 16, Revision A.03,

 -----------------------------------------------------------
 # opt freq B3LYP/6-31G(d) empiricaldispersion=gd3bj scf=xqc
 -----------------------------------------------------------

 -------------------------------
 CID_131456673_JID_4510_neutraal
 -------------------------------
 Symbolic Z-matrix:
 Charge =  0 Multiplicity = 1

 SCF Done:  E(RB3LYP) =  -684.170954736     A.U. after   15 cycles
 SCF Done:  E(RB3LYP) =  -684.177711482     A.U. after   12 cycles
 SCF Done:  E(RB3LYP) =  -684.178340745     A.U. after   11 cycles
 SCF Done:  E(RB3LYP) =  -684.178412029     A.U. after   11 cycles
 SCF Done:  E(RB3LYP) =  -684.178409156     A.U. after   10 cycles
 SCF Done:  E(RB3LYP) =  -684.178419628     A.U. after    9 cycles
 SCF Done:  E(RB3LYP) =  -684.178424661     A.U. after    9 cycles
 SCF Done:  E(RB3LYP) =  -684.178428242     A.U. after   10 cycles
 SCF Done:  E(RB3LYP) =  -684.178431880     A.U. after   10 cycles
 SCF Done:  E(RB3LYP) =  -684.178434713     A.U. after   10 cycles
 SCF Done:  E(RB3LYP) =  -684.178435693     A.U. after    9 cycles
 SCF Done:  E(RB3LYP) =  -684.178436129     A.U. after    8 cycles
 SCF Done:  E(RB3LYP) =  -684.178436192     A.U. after    7 cycles
 SCF Done:  E(RB3LYP) =  -684.178436247     A.U. after    7 cycles
 SCF Done:  E(RB3LYP) =  -684.178436269     A.U. after    7 cycles
 Optimization completed.
    -- Stationary point found.
 Normal termination of Gaussian 16 at Thu Dec 10 09:56:23 2020.

 --------------------------------------------------------------------
 #N Geom=AllCheck Guess=TCheck SCRF=Check GenChk RB3LYP/6-31G(d) Freq
 --------------------------------------------------------------------

 Structure from the checkpoint file:  "JID_4510.chk"
 -------------------------------
 CID_131456673_JID_4510_neutraal
 -------------------------------
 Charge =  0 Multiplicity = 1

 SCF Done:  E(RB3LYP) =  -684.178436269     A.U. after    1 cycles

  Exact polarizability: 153.376  -3.543 125.498   0.004   0.001  63.132
 Approx polarizability: 199.969  -3.767 227.581   0.008   0.003  96.722

                      1                      2                      3
                      A                      A                      A
 Frequencies --     27.6392                61.9780                83.1696
 Red. masses --      6.0804                 3.4674                 2.1584
 Frc consts  --      0.0027                 0.0078                 0.0088
 IR Inten    --      0.8103                 3.6143                 0.3229

                      4                      5                      6
                      A                      A                      A
 Frequencies --    119.7953               120.3060               140.0372
 Red. masses --      2.6345                 5.1823                 1.2682
 Frc consts  --      0.0223                 0.0442                 0.0147
 IR Inten    --      1.0825                 1.2930                 0.1515

                      7                      8                      9
                      A                      A                      A
 Frequencies --    146.2560               181.3706               236.4077
 Red. masses --      1.1205                 2.6813                 5.8864
 Frc consts  --      0.0141                 0.0520                 0.1938
 IR Inten    --      0.0151                 0.0592                 0.1624

                     10                     11                     12
                      A                      A                      A
 Frequencies --    237.0264               314.5790               320.5648
 Red. masses --      5.7765                 3.6670                 4.6013
 Frc consts  --      0.1912                 0.2138                 0.2786
 IR Inten    --     12.4739                 9.1671                 2.8709

                     13                     14                     15
                      A                      A                      A
 Frequencies --    350.1989               364.4172               483.1500
 Red. masses --      8.2649                 4.2025                 5.4136
 Frc consts  --      0.5972                 0.3288                 0.7446
 IR Inten    --      9.8415                14.5049                 0.0339

                     16                     17                     18
                      A                      A                      A
 Frequencies --    537.9032               557.0458               599.9614
 Red. masses --      2.8832                 5.5668                 5.6472
 Frc consts  --      0.4915                 1.0177                 1.1976
 IR Inten    --      0.0002                10.1048                 1.7852

                     19                     20                     21
                      A                      A                      A
 Frequencies --    641.1669               651.0054               680.0720
 Red. masses --      8.7399                 6.6487                 3.1818
 Frc consts  --      2.1169                 1.6602                 0.8670
 IR Inten    --      2.6139                 0.0294                 1.9322

                     22                     23                     24
                      A                      A                      A
 Frequencies --    734.9951               761.1504               816.3128
 Red. masses --      6.1436                 8.0659                 5.6959
 Frc consts  --      1.9554                 2.7532                 2.2363
 IR Inten    --     24.4130                 9.6005                19.9373

                     25                     26                     27
                      A                      A                      A
 Frequencies --    848.3029               859.8668               983.7722
 Red. masses --      1.8077                 6.3971                 2.7119
 Frc consts  --      0.7664                 2.7867                 1.5464
 IR Inten    --      5.2689                 0.9304                 0.1293

                     28                     29                     30
                      A                      A                      A
 Frequencies --   1006.1056              1023.2108              1025.0537
 Red. masses --      5.7935                 2.0788                 3.4691
 Frc consts  --      3.4553                 1.2823                 2.1476
 IR Inten    --      1.2352                 0.8708               107.3319

                     31                     32                     33
                      A                      A                      A
 Frequencies --   1079.3119              1127.5415              1158.5168
 Red. masses --      5.0863                 3.5550                 1.3003
 Frc consts  --      3.4910                 2.6629                 1.0283
 IR Inten    --     33.5296               111.1629                 0.0087

                     34                     35                     36
                      A                      A                      A
 Frequencies --   1171.9189              1179.5198              1185.8775
 Red. masses --      1.2094                 5.4552                 1.2721
 Frc consts  --      0.9786                 4.4717                 1.0540
 IR Inten    --      0.6312                97.9408                 1.0305

                     37                     38                     39
                      A                      A                      A
 Frequencies --   1223.6326              1245.9448              1275.3108
 Red. masses --      1.6254                 1.1105                 1.5866
 Frc consts  --      1.4338                 1.0157                 1.5204
 IR Inten    --     65.9718                 0.0064                 5.0836

                     40                     41                     42
                      A                      A                      A
 Frequencies --   1289.0593              1315.3221              1355.1262
 Red. masses --      3.5001                 1.5987                 6.6735
 Frc consts  --      3.4267                 1.6296                 7.2204
 IR Inten    --    166.1187                 1.7798               283.5618

                     43                     44                     45
                      A                      A                      A
 Frequencies --   1419.6456              1477.2759              1481.3649
 Red. masses --      4.1838                 1.7501                 1.4264
 Frc consts  --      4.9679                 2.2503                 1.8442
 IR Inten    --    115.3141                 4.6971                 3.0963

                     46                     47                     48
                      A                      A                      A
 Frequencies --   1484.9905              1491.7418              1509.9763
 Red. masses --      1.8240                 1.3902                 4.0151
 Frc consts  --      2.3698                 1.8227                 5.3937
 IR Inten    --      6.0178                 7.2756                74.8942

                     49                     50                     51
                      A                      A                      A
 Frequencies --   1510.5976              1510.9635              1521.7850
 Red. masses --      1.0435                 1.0473                 1.1434
 Frc consts  --      1.4029                 1.4088                 1.5601
 IR Inten    --     14.3624                 1.4231                 7.5310

                     52                     53                     54
                      A                      A                      A
 Frequencies --   1524.2241              1526.3660              1611.0891
 Red. masses --      1.1265                 1.0560                10.3290
 Frc consts  --      1.5419                 1.4496                15.7961
 IR Inten    --      4.6385                20.4052                60.4148

                     55                     56                     57
                      A                      A                      A
 Frequencies --   1812.3769              1830.9738              3068.2962
 Red. masses --     12.2154                12.6230                 1.0597
 Frc consts  --     23.6404                24.9331                 5.8781
 IR Inten    --      6.2844               453.2611                26.0299

                     58                     59                     60
                      A                      A                      A
 Frequencies --   3080.2250              3082.8136              3094.4116
 Red. masses --      1.0291                 1.0612                 1.0319
 Frc consts  --      5.7525                 5.9419                 5.8216
 IR Inten    --     33.8436                14.1256                25.0079

                     61                     62                     63
                      A                      A                      A
 Frequencies --   3099.8421              3124.4944              3157.6049
 Red. masses --      1.1059                 1.1037                 1.1078
 Frc consts  --      6.2610                 6.3486                 6.5077
 IR Inten    --      5.5195                13.6079                15.7821

                     64                     65                     66
                      A                      A                      A
 Frequencies --   3166.4824              3186.5920              3201.6857
 Red. masses --      1.1060                 1.1078                 1.1058
 Frc consts  --      6.5339                 6.6276                 6.6783
 IR Inten    --      9.6764                15.2568                 2.9210

 - Thermochemistry -
 -------------------
 Temperature   298.150 Kelvin.  Pressure   1.00000 Atm.
 Atom     1 has atomic number  6 and mass  12.00000

 Molecular mass:   194.06914 amu.
 Principal axes and moments of inertia in atomic units:
                           1         2         3
     Eigenvalues --  1540.512563290.481654786.01669
           X            1.00000   0.00091   0.00000
           Y           -0.00091   1.00000  -0.00001
           Z           -0.00000   0.00001   1.00000
 This molecule is an asymmetric top.
 Rotational symmetry number  1.
 Warning -- assumption of classical behavior for rotation
           may cause significant error
 Rotational temperatures (Kelvin)      0.05622     0.02632     0.01810
 Rotational constants (GHZ):           1.17152     0.54847     0.37709
 Zero-point vibrational energy     493434.0 (Joules/Mol)
                                  117.93356 (Kcal/Mol)
 Warning -- explicit consideration of  18 degrees of freedom as
           vibrations may cause significant error
 Vibrational temperatures:     39.77    89.17   119.66   172.36   173.09
          (Kelvin)            201.48   210.43   260.95   340.14   341.03
                              452.61   461.22   503.86   524.32   695.15
                              773.92   801.46   863.21   922.50   936.65
                              978.47  1057.49  1095.13  1174.49  1220.52
                             1237.16  1415.43  1447.56  1472.17  1474.82
                             1552.89  1622.28  1666.85  1686.13  1697.07
                             1706.21  1760.53  1792.64  1834.89  1854.67
                             1892.46  1949.72  2042.55  2125.47  2131.35
                             2136.57  2146.28  2172.52  2173.41  2173.94
                             2189.51  2193.02  2196.10  2318.00  2607.61
                             2634.36  4414.59  4431.76  4435.48  4452.17
                             4459.98  4495.45  4543.09  4555.86  4584.80
                             4606.51

 Zero-point correction=                           0.187939 (Hartree/Particle)
 Thermal correction to Energy=                    0.201006
 Thermal correction to Enthalpy=                  0.201951
 Thermal correction to Gibbs Free Energy=         0.147107
 Sum of electronic and zero-point Energies=           -683.990497
 Sum of electronic and thermal Energies=              -683.977430
 Sum of electronic and thermal Enthalpies=            -683.976486
 Sum of electronic and thermal Free Energies=         -684.031329

                     E (Thermal)             CV                S
                      KCal/Mol        Cal/Mol-Kelvin    Cal/Mol-Kelvin
 Total                  126.133             46.781            115.428
 Electronic               0.000              0.000              0.000
 Translational            0.889              2.981             41.694
 Rotational               0.889              2.981             31.562
 Vibrational            124.356             40.820             42.172
 Vibration     1          0.593              1.984              5.992
 Vibration     2          0.597              1.972              4.393
 Vibration     3          0.600              1.961              3.815
 Vibration     4          0.609              1.933              3.104
 Vibration     5          0.609              1.932              3.095
 Vibration     6          0.615              1.913              2.803
 Vibration     7          0.617              1.907              2.720
 Vibration     8          0.630              1.865              2.314
 Vibration     9          0.655              1.785              1.830
 Vibration    10          0.656              1.784              1.825
 Vibration    11          0.702              1.646              1.338
 Vibration    12          0.706              1.634              1.307
 Vibration    13          0.727              1.575              1.165
 Vibration    14          0.738              1.546              1.103
 Vibration    15          0.839              1.287              0.702
 Vibration    16          0.893              1.166              0.570
 Vibration    17          0.913              1.124              0.530
 Vibration    18          0.958              1.032              0.450

 Optimization completed.
    -- Stationary point found.
 Normal termination of Gaussian 16 at Thu Dec 10 10:02:02 2020.

 ----------------------------------------------------------------------
 # B3LYP/6-311++G(d,p) empiricaldispersion=gd3bj scf=xqc pop=npa geom=c
 heck
 ----------------------------------------------------------------------

 ---------------------------------------
 CID_131456673_JID_4510_Energie_neutraal
 ---------------------------------------
 Structure from the checkpoint file:  "JID_4510.chk"
 Charge =  0 Multiplicity = 1

 SCF Done:  E(RB3LYP) =  -684.368175252     A.U. after   15 cycles
 Normal termination of Gaussian 16 at Thu Dec 10 10:04:00 2020.

 ----------------------------------------------------------------------
 # B3LYP/6-311++G(d,p) empiricaldispersion=gd3bj scf=xqc pop=npa geom=c
 heck
 ----------------------------------------------------------------------

 -------------------------------------
 CID_131456673_JID_4510_Energie_kation
 -------------------------------------
 Structure from the checkpoint file:  "JID_4510.chk"
 Charge =  1 Multiplicity = 2

 SCF Done:  E(UB3LYP) =  -684.043445598     A.U. after   32 cycles
 Normal termination of Gaussian 16 at Thu Dec 10 10:09:33 2020.
 Gaussian 16:  ES64L-G16RevA.03 25-Dec-2016

 ----------------------------------------------------------------------
 # B3LYP/6-311++G(d,p) empiricaldispersion=gd3bj scf=xqc pop=npa geom=c
 heck
 ----------------------------------------------------------------------

 ------------------------------------
 CID_131456673_JID_4510_Energie_anion
 ------------------------------------
 Structure from the checkpoint file:  "JID_4510.chk"
 Charge = -1 Multiplicity = 2

                         Standard orientation:
 ---------------------------------------------------------------------
 Center     Atomic      Atomic             Coordinates (Angstroms)
 Number     Number       Type             X           Y           Z
 ---------------------------------------------------------------------
      1          6           0       -1.544386    2.470326   -0.000354
      2          7           0       -0.415586    1.547691   -0.000062
      3          6           0       -0.404806    0.175529   -0.000041
      4          6           0        0.945629   -0.182146    0.000199
      5          6           0        1.643973    1.032861    0.000228
      6          7           0        0.834147    2.087978    0.000084
      7          6           0        3.137567    0.876740    0.000280
      8          6           0        3.305832   -0.670690   -0.000158
      9          6           0        1.889668   -1.313635   -0.000053
     10          8           0        1.676134   -2.507105   -0.000267
     11          6           0       -1.576699   -0.717580    0.000022
     12          8           0       -1.495575   -1.924814    0.000048
     13          8           0       -2.751525   -0.039733    0.000057
     14          6           0       -3.923614   -0.872564    0.000162
     15          1           0       -2.161255    2.318522   -0.887783
     16          1           0       -1.116439    3.471624   -0.000511
     17          1           0       -2.161438    2.318873    0.887006
     18          1           0        3.593014    1.343097    0.880580
     19          1           0        3.593166    1.343672   -0.879631
     20          1           0        3.849561   -1.033309   -0.878525
     21          1           0        3.849973   -1.033812    0.877742
     22          1           0       -3.939690   -1.506872   -0.889374
     23          1           0       -3.939362   -1.507117    0.889526
     24          1           0       -4.768709   -0.184192    0.000406
 ---------------------------------------------------------------------

 SCF Done:  E(UB3LYP) =  -684.387540739     A.U. after   23 cycles

 The electronic state is 2-A.
 Alpha  occ. eigenvalues --  -19.02105 -18.93494 -18.92671 -14.22810 -14.17709
 Alpha  occ. eigenvalues --  -10.12774 -10.10749 -10.08178 -10.07753 -10.05217
 Alpha  occ. eigenvalues --  -10.04829 -10.04563 -10.03805 -10.00422  -0.95800
 Alpha  occ. eigenvalues --   -0.89651  -0.86570  -0.86034  -0.71381  -0.66528
 Alpha  occ. eigenvalues --   -0.63814  -0.60059  -0.55238  -0.53244  -0.47978
 Alpha  occ. eigenvalues --   -0.44698  -0.42070  -0.39829  -0.35773  -0.35019
 Alpha  occ. eigenvalues --   -0.34340  -0.33700  -0.32973  -0.31826  -0.29451
 Alpha  occ. eigenvalues --   -0.29168  -0.27134  -0.26891  -0.25691  -0.24760
 Alpha  occ. eigenvalues --   -0.24510  -0.23954  -0.22954  -0.21944  -0.20015
 Alpha  occ. eigenvalues --   -0.16914  -0.15529  -0.12005  -0.10991  -0.10600
 Alpha  occ. eigenvalues --   -0.08080   0.04269
 Alpha virt. eigenvalues --    0.07932   0.09311   0.09682   0.11478   0.11637
 Alpha virt. eigenvalues --    0.11908   0.12094   0.13094   0.13428   0.14063
 Alpha virt. eigenvalues --    0.14968   0.15692   0.16139   0.16897   0.17855

  Beta  occ. eigenvalues --  -19.01997 -18.93099 -18.92347 -14.22307 -14.17584
  Beta  occ. eigenvalues --  -10.12576 -10.10755 -10.08008 -10.07781 -10.05211
  Beta  occ. eigenvalues --  -10.04629 -10.04566 -10.03828 -10.00367  -0.95476
  Beta  occ. eigenvalues --   -0.89089  -0.85988  -0.85426  -0.71086  -0.66152
  Beta  occ. eigenvalues --   -0.63475  -0.59939  -0.55107  -0.52958  -0.47391
  Beta  occ. eigenvalues --   -0.44359  -0.41880  -0.39619  -0.35244  -0.34702
  Beta  occ. eigenvalues --   -0.33986  -0.33524  -0.32447  -0.31579  -0.29115
  Beta  occ. eigenvalues --   -0.29042  -0.26978  -0.25957  -0.25166  -0.24491
  Beta  occ. eigenvalues --   -0.23855  -0.23605  -0.22865  -0.21706  -0.18738
  Beta  occ. eigenvalues --   -0.15574  -0.15313  -0.11630  -0.09393  -0.08994
  Beta  occ. eigenvalues --   -0.07789
  Beta virt. eigenvalues --    0.07885   0.09262   0.09642   0.10354   0.11597
  Beta virt. eigenvalues --    0.11827   0.11973   0.12043   0.13063   0.13628
  Beta virt. eigenvalues --    0.14503   0.14916   0.16097   0.16747   0.16848

 Mulliken charges and spin densities:
               1          2
     1  C   -0.347580  -0.024239
     2  N   -0.030906   0.122391
     3  C    0.536139   0.292280
     4  C    1.367100   0.070648
     5  C   -0.716147  -0.060912
     6  N   -0.106124   0.099781
     7  C   -0.404794  -0.000687
     8  C   -0.236203  -0.019276
     9  C   -0.775871   0.083776
    10  O   -0.365332   0.118168
    11  C   -0.557990   0.077586
    12  O   -0.315700   0.131506
    13  O   -0.201942   0.010250
    14  C   -0.200203  -0.002154
    15  H    0.147722   0.024213
    16  H    0.135721  -0.000404
    17  H    0.147763   0.024164
    18  H    0.126104  -0.000787
    19  H    0.126084  -0.000769
    20  H    0.116142   0.023619
    21  H    0.116203   0.023570
    22  H    0.164899   0.003803
    23  H    0.164940   0.003781
    24  H    0.109976  -0.000307
 Sum of Mulliken charges =  -1.00000   1.00000

 Dipole moment (field-independent basis, Debye):
    X=             -2.8217    Y=              4.6601    Z=              0.0004  Tot=              5.4478
 Quadrupole moment (field-independent basis, Debye-Ang):
   XX=            -92.7790   YY=           -117.2880   ZZ=            -85.5839
   XY=              1.5986   XZ=              0.0004   YZ=             -0.0023

 Summary of Natural Population Analysis:

                                       Natural Population
                Natural  -----------------------------------------------
    Atom  No    Charge         Core      Valence    Rydberg      Total
 -----------------------------------------------------------------------
      C    1   -0.17539      0.99966     2.16958    0.00615     3.17539
      N    2   -0.03022      0.99964     2.51879    0.01179     3.53022
      C    3    0.09280      0.99943     1.89659    0.01118     2.90720
      C    4   -0.09491      0.99933     2.08546    0.01011     3.09491
      C    5    0.07145      0.99951     1.91561    0.01342     2.92855
      N    6   -0.16042      0.99968     2.64713    0.01361     3.66042
      C    7   -0.20159      0.99961     2.19568    0.00630     3.20159
      C    8   -0.22840      0.99963     2.22117    0.00761     3.22840
      C    9    0.29404      0.99963     1.68435    0.02198     2.70596
      O   10   -0.26257      0.99987     3.25463    0.00807     4.26257
      C   11    0.40594      0.99965     1.57141    0.02300     2.59406
      O   12   -0.26339      0.99987     3.25682    0.00670     4.26339
      O   13   -0.28472      0.99987     3.27628    0.00858     4.28472
      C   14   -0.10584      0.99961     2.09750    0.00873     3.10584
      H   15    0.09737      0.00000     0.40143    0.00119     0.40263
      H   16    0.09958      0.00000     0.39955    0.00087     0.40042
      H   17    0.09737      0.00000     0.40143    0.00119     0.40263
      H   18    0.09548      0.00000     0.40322    0.00130     0.40452
      H   19    0.09548      0.00000     0.40322    0.00130     0.40452
      H   20    0.10086      0.00000     0.39793    0.00122     0.39914
      H   21    0.10085      0.00000     0.39793    0.00122     0.39915
      H   22    0.08792      0.00000     0.41075    0.00133     0.41208
      H   23    0.08793      0.00000     0.41074    0.00133     0.41207
      H   24    0.08037      0.00000     0.41876    0.00086     0.41963
 =======================================================================
   * Total *   -0.00000     13.99499    36.83598    0.16903    51.00000

 Normal termination of Gaussian 16 at Thu Dec 10 10:14:43 2020.
