 Gaussian 16, Revision A.03,

 -----------------------------------------------------------
 # opt freq B3LYP/6-31G(d) empiricaldispersion=gd3bj scf=xqc
 -----------------------------------------------------------

 ------------------------------
 CID_62651862_JID_4569_neutraal
 ------------------------------
 Symbolic Z-matrix:
 Charge =  0 Multiplicity = 1

 SCF Done:  E(RB3LYP) =  -1040.31136585     A.U. after   16 cycles
 SCF Done:  E(RB3LYP) =  -1040.34168052     A.U. after   14 cycles
 SCF Done:  E(RB3LYP) =  -1040.34498185     A.U. after   13 cycles
 SCF Done:  E(RB3LYP) =  -1040.34542720     A.U. after   13 cycles
 SCF Done:  E(RB3LYP) =  -1040.34536131     A.U. after   13 cycles
 SCF Done:  E(RB3LYP) =  -1040.34580700     A.U. after   12 cycles
 SCF Done:  E(RB3LYP) =  -1040.34595329     A.U. after   12 cycles
 SCF Done:  E(RB3LYP) =  -1040.34598024     A.U. after   11 cycles
 SCF Done:  E(RB3LYP) =  -1040.34598513     A.U. after   10 cycles
 SCF Done:  E(RB3LYP) =  -1040.34598743     A.U. after    8 cycles
 SCF Done:  E(RB3LYP) =  -1040.34598864     A.U. after    9 cycles
 SCF Done:  E(RB3LYP) =  -1040.34598949     A.U. after   10 cycles
 SCF Done:  E(RB3LYP) =  -1040.34599033     A.U. after   10 cycles
 SCF Done:  E(RB3LYP) =  -1040.34599095     A.U. after   10 cycles
 SCF Done:  E(RB3LYP) =  -1040.34599103     A.U. after    7 cycles
 Optimization completed.
    -- Stationary point found.
 Normal termination of Gaussian 16 at Thu Dec 10 10:04:54 2020.

 --------------------------------------------------------------------
 #N Geom=AllCheck Guess=TCheck SCRF=Check GenChk RB3LYP/6-31G(d) Freq
 --------------------------------------------------------------------

 Structure from the checkpoint file:  "JID_4569.chk"
 ------------------------------
 CID_62651862_JID_4569_neutraal
 ------------------------------
 Charge =  0 Multiplicity = 1

 SCF Done:  E(RB3LYP) =  -1040.34599103     A.U. after    1 cycles

  Exact polarizability: 116.796 -10.926 120.552   7.346   7.320  89.742
 Approx polarizability: 157.543 -20.370 196.200  15.717  19.378 160.383

                      1                      2                      3
                      A                      A                      A
 Frequencies --     27.5477                35.2384                80.0437
 Red. masses --      6.2164                 5.4155                 4.9435
 Frc consts  --      0.0028                 0.0040                 0.0187
 IR Inten    --      1.3288                 5.6146                 1.8420

                      4                      5                      6
                      A                      A                      A
 Frequencies --    104.0588               115.5797               150.8770
 Red. masses --      4.0587                 5.7278                 7.8274
 Frc consts  --      0.0259                 0.0451                 0.1050
 IR Inten    --      6.4210                 5.1431                 1.4215

                      7                      8                      9
                      A                      A                      A
 Frequencies --    169.9503               193.3681               211.3489
 Red. masses --      5.6884                 4.6209                 4.0005
 Frc consts  --      0.0968                 0.1018                 0.1053
 IR Inten    --      0.5864                 0.2221                 4.4321

                     10                     11                     12
                      A                      A                      A
 Frequencies --    248.3327               295.0612               335.2101
 Red. masses --      1.2031                 2.8885                 7.4558
 Frc consts  --      0.0437                 0.1482                 0.4936
 IR Inten    --      2.9354                 4.1107                 2.9337

                     13                     14                     15
                      A                      A                      A
 Frequencies --    340.5804               376.8491               391.0005
 Red. masses --      5.3036                 3.5610                 4.6440
 Frc consts  --      0.3625                 0.2980                 0.4183
 IR Inten    --      4.0219                 6.9289                 2.7410

                     16                     17                     18
                      A                      A                      A
 Frequencies --    464.5010               512.1579               566.2632
 Red. masses --      7.4562                 6.9359                 2.1069
 Frc consts  --      0.9478                 1.0719                 0.3981
 IR Inten    --      3.8157                 4.7274                47.7722

                     19                     20                     21
                      A                      A                      A
 Frequencies --    570.4564               575.7986               606.1067
 Red. masses --      3.4293                 4.1005                 3.5940
 Frc consts  --      0.6575                 0.8010                 0.7779
 IR Inten    --     45.3764                94.2955                92.1714

                     22                     23                     24
                      A                      A                      A
 Frequencies --    655.1635               687.0626               689.6519
 Red. masses --      2.7263                 2.7121                 2.4921
 Frc consts  --      0.6895                 0.7543                 0.6984
 IR Inten    --     22.4310                53.8952                48.8961

                     25                     26                     27
                      A                      A                      A
 Frequencies --    776.0995               826.6793               836.6090
 Red. masses --      2.6809                 1.3888                 2.6275
 Frc consts  --      0.9514                 0.5592                 1.0835
 IR Inten    --     10.3893                 4.3300               129.5933

                     28                     29                     30
                      A                      A                      A
 Frequencies --    889.3133               937.3760               951.8975
 Red. masses --      1.2970                 2.3981                 5.8037
 Frc consts  --      0.6043                 1.2415                 3.0984
 IR Inten    --     18.6180                 5.2914                15.9963

                     31                     32                     33
                      A                      A                      A
 Frequencies --    961.2023              1000.2137              1026.2024
 Red. masses --      1.8354                 4.6977                 1.7029
 Frc consts  --      0.9991                 2.7690                 1.0566
 IR Inten    --     13.1053                10.3596                47.8593

                     34                     35                     36
                      A                      A                      A
 Frequencies --   1052.2032              1093.7554              1122.4766
 Red. masses --      2.1169                 2.2798                 7.7481
 Frc consts  --      1.3808                 1.6069                 5.7517
 IR Inten    --     38.6077                35.4182               150.8420

                     37                     38                     39
                      A                      A                      A
 Frequencies --   1138.2217              1164.8768              1172.9519
 Red. masses --      2.4249                 1.9230                 1.6850
 Frc consts  --      1.8509                 1.5374                 1.3658
 IR Inten    --     16.2381                10.7940                 7.5158

                     40                     41                     42
                      A                      A                      A
 Frequencies --   1207.7819              1279.0611              1317.0072
 Red. masses --      1.9239                 1.1643                 2.2542
 Frc consts  --      1.6535                 1.1223                 2.3037
 IR Inten    --     37.6243                24.5270                18.8110

                     43                     44                     45
                      A                      A                      A
 Frequencies --   1320.2127              1328.0155              1366.4756
 Red. masses --      1.8904                 3.6164                 1.4855
 Frc consts  --      1.9413                 3.7578                 1.6343
 IR Inten    --     27.8778               122.1850                18.6486

                     46                     47                     48
                      A                      A                      A
 Frequencies --   1382.2613              1401.8571              1433.6779
 Red. masses --      5.0548                 1.3045                 4.3345
 Frc consts  --      5.6903                 1.5104                 5.2492
 IR Inten    --     11.2084                 0.2929                16.3203

                     49                     50                     51
                      A                      A                      A
 Frequencies --   1440.4219              1452.9355              1500.0643
 Red. masses --      1.2633                 1.2804                 2.7012
 Frc consts  --      1.5443                 1.5925                 3.5811
 IR Inten    --      4.3947                46.3469                27.1938

                     52                     53                     54
                      A                      A                      A
 Frequencies --   1518.5239              1525.9455              1539.5335
 Red. masses --      1.0697                 1.0596                 1.0504
 Frc consts  --      1.4533                 1.4536                 1.4668
 IR Inten    --     11.8554                 3.4127                 7.4180

                     55                     56                     57
                      A                      A                      A
 Frequencies --   1579.8037              2366.9489              3050.8260
 Red. masses --      3.1630                12.6565                 1.0760
 Frc consts  --      4.6511                41.7774                 5.9005
 IR Inten    --     29.5658                 8.6941                 5.1582

                     58                     59                     60
                      A                      A                      A
 Frequencies --   3059.7681              3066.2778              3133.6859
 Red. masses --      1.0745                 1.0358                 1.0978
 Frc consts  --      5.9270                 5.7380                 6.3517
 IR Inten    --     28.4709                16.7378                 4.6880

                     61                     62                     63
                      A                      A                      A
 Frequencies --   3140.1587              3149.5533              3289.2930
 Red. masses --      1.1030                 1.1034                 1.0973
 Frc consts  --      6.4079                 6.4489                 6.9949
 IR Inten    --     15.0509                15.1629                 1.0005

                     64                     65                     66
                      A                      A                      A
 Frequencies --   3321.7724              3536.4348              3659.9328
 Red. masses --      1.0994                 1.0751                 1.0821
 Frc consts  --      7.1472                 7.9218                 8.5404
 IR Inten    --      5.9176                25.0955                98.0741

 - Thermochemistry -
 -------------------
 Temperature   298.150 Kelvin.  Pressure   1.00000 Atm.
 Atom     1 has atomic number  6 and mass  12.00000

 Molecular mass:   214.05245 amu.
 Principal axes and moments of inertia in atomic units:
                           1         2         3
     Eigenvalues --  2224.176093354.264244769.86647
           X            0.99927  -0.03805  -0.00122
           Y            0.03807   0.99922   0.01045
           Z            0.00083  -0.01049   0.99994
 This molecule is an asymmetric top.
 Rotational symmetry number  1.
 Warning -- assumption of classical behavior for rotation
           may cause significant error
 Rotational temperatures (Kelvin)      0.03894     0.02582     0.01816
 Rotational constants (GHZ):           0.81142     0.53804     0.37836
 Zero-point vibrational energy     482815.9 (Joules/Mol)
                                  115.39577 (Kcal/Mol)
 Warning -- explicit consideration of  21 degrees of freedom as
           vibrations may cause significant error
 Vibrational temperatures:     39.64    50.70   115.17   149.72   166.29
          (Kelvin)            217.08   244.52   278.21   304.08   357.30
                              424.53   482.29   490.02   542.20   562.56
                              668.31   736.88   814.73   820.76   828.45
                              872.05   942.63   988.53   992.26  1116.63
                             1189.41  1203.69  1279.52  1348.67  1369.57
                             1382.96  1439.08  1476.48  1513.89  1573.67
                             1614.99  1637.65  1676.00  1687.62  1737.73
                             1840.28  1894.88  1899.49  1910.72  1966.05
                             1988.77  2016.96  2062.74  2072.45  2090.45
                             2158.26  2184.82  2195.50  2215.05  2272.99
                             3405.51  4389.46  4402.32  4411.69  4508.68
                             4517.99  4531.50  4732.56  4779.29  5088.14
                             5265.83

 Zero-point correction=                           0.183895 (Hartree/Particle)
 Thermal correction to Energy=                    0.197631
 Thermal correction to Enthalpy=                  0.198575
 Thermal correction to Gibbs Free Energy=         0.141978
 Sum of electronic and zero-point Energies=          -1040.162096
 Sum of electronic and thermal Energies=             -1040.148360
 Sum of electronic and thermal Enthalpies=           -1040.147416
 Sum of electronic and thermal Free Energies=        -1040.204013

                     E (Thermal)             CV                S
                      KCal/Mol        Cal/Mol-Kelvin    Cal/Mol-Kelvin
 Total                  124.015             50.089            119.118
 Electronic               0.000              0.000              0.000
 Translational            0.889              2.981             41.987
 Rotational               0.889              2.981             31.943
 Vibrational            122.238             44.127             45.189
 Vibration     1          0.593              1.984              5.999
 Vibration     2          0.594              1.982              5.510
 Vibration     3          0.600              1.963              3.890
 Vibration     4          0.605              1.946              3.377
 Vibration     5          0.608              1.936              3.173
 Vibration     6          0.618              1.902              2.661
 Vibration     7          0.625              1.879              2.436
 Vibration     8          0.635              1.849              2.195
 Vibration     9          0.643              1.824              2.032
 Vibration    10          0.662              1.766              1.742
 Vibration    11          0.689              1.683              1.445
 Vibration    12          0.716              1.605              1.235
 Vibration    13          0.720              1.594              1.209
 Vibration    14          0.747              1.519              1.052
 Vibration    15          0.759              1.489              0.996
 Vibration    16          0.822              1.329              0.753
 Vibration    17          0.867              1.223              0.628
 Vibration    18          0.922              1.104              0.511
 Vibration    19          0.927              1.095              0.503
 Vibration    20          0.932              1.084              0.493
 Vibration    21          0.965              1.019              0.439

 Optimization completed.
    -- Stationary point found.
 Normal termination of Gaussian 16 at Thu Dec 10 10:11:15 2020.

 ----------------------------------------------------------------------
 # B3LYP/6-311++G(d,p) empiricaldispersion=gd3bj scf=xqc pop=npa geom=c
 heck
 ----------------------------------------------------------------------

 --------------------------------------
 CID_62651862_JID_4569_Energie_neutraal
 --------------------------------------
 Structure from the checkpoint file:  "JID_4569.chk"
 Charge =  0 Multiplicity = 1

 SCF Done:  E(RB3LYP) =  -1040.55912511     A.U. after   15 cycles
 Normal termination of Gaussian 16 at Thu Dec 10 10:13:48 2020.

 ----------------------------------------------------------------------
 # B3LYP/6-311++G(d,p) empiricaldispersion=gd3bj scf=xqc pop=npa geom=c
 heck
 ----------------------------------------------------------------------

 ------------------------------------
 CID_62651862_JID_4569_Energie_kation
 ------------------------------------
 Structure from the checkpoint file:  "JID_4569.chk"
 Charge =  1 Multiplicity = 2

 SCF Done:  E(UB3LYP) =  -1040.21310495     A.U. after   27 cycles
 Normal termination of Gaussian 16 at Thu Dec 10 10:19:57 2020.
 Gaussian 16:  ES64L-G16RevA.03 25-Dec-2016

 ----------------------------------------------------------------------
 # B3LYP/6-311++G(d,p) empiricaldispersion=gd3bj scf=xqc pop=npa geom=c
 heck
 ----------------------------------------------------------------------

 -----------------------------------
 CID_62651862_JID_4569_Energie_anion
 -----------------------------------
 Structure from the checkpoint file:  "JID_4569.chk"
 Charge = -1 Multiplicity = 2

                         Standard orientation:
 ---------------------------------------------------------------------
 Center     Atomic      Atomic             Coordinates (Angstroms)
 Number     Number       Type             X           Y           Z
 ---------------------------------------------------------------------
      1          6           0        3.813865   -0.091063    0.239296
      2          6           0        2.692146    0.467449   -0.655055
      3          6           0        1.583478   -0.569462   -0.936392
      4          7           0        0.932254   -0.978408    0.308085
      5         16           0       -0.687211   -1.479169    0.207826
      6          8           0       -0.955381   -2.195617   -1.044260
      7          8           0       -0.934547   -2.124952    1.497879
      8          6           0       -1.486675    0.071055    0.068945
      9          6           0       -1.241699    1.220340    0.805335
     10          7           0       -2.121649    2.128744    0.341148
     11          7           0       -2.929101    1.661113   -0.645951
     12          6           0       -2.545559    0.401419   -0.814012
     13          6           0        2.107642    1.676611   -0.057505
     14          7           0        1.634984    2.621177    0.423422
     15          1           0        3.426920   -0.353199    1.228279
     16          1           0        4.610787    0.645055    0.373251
     17          1           0        4.242848   -0.986191   -0.223243
     18          1           0        3.120960    0.755306   -1.624102
     19          1           0        0.823524   -0.123662   -1.582657
     20          1           0        2.017821   -1.418482   -1.479105
     21          1           0        1.434104   -1.684414    0.842497
     22          1           0       -0.503111    1.445653    1.557227
     23          1           0       -2.197511    3.098287    0.613588
     24          1           0       -3.016160   -0.233558   -1.550493
 ---------------------------------------------------------------------

 SCF Done:  E(UB3LYP) =  -1040.55582617     A.U. after   33 cycles
 SCF Done:  E(UB3LYP) =  -1040.55582617     a.u. after    1 cycles

 The electronic state is 2-A.
 Alpha  occ. eigenvalues --  -88.97991 -19.02901 -19.02795 -14.31803 -14.26312
 Alpha  occ. eigenvalues --  -14.25447 -14.21853 -10.14480 -10.13155 -10.12960
 Alpha  occ. eigenvalues --  -10.12767 -10.11818 -10.11737 -10.07955  -8.04098
 Alpha  occ. eigenvalues --   -6.00381  -6.00321  -6.00233  -1.03256  -0.97989
 Alpha  occ. eigenvalues --   -0.92100  -0.84536  -0.81586  -0.75583  -0.73268
 Alpha  occ. eigenvalues --   -0.71940  -0.62291  -0.59922  -0.55401  -0.53932
 Alpha  occ. eigenvalues --   -0.50880  -0.47540  -0.44859  -0.43949  -0.40243
 Alpha  occ. eigenvalues --   -0.38273  -0.37990  -0.37637  -0.37157  -0.36042
 Alpha  occ. eigenvalues --   -0.35370  -0.33962  -0.31154  -0.29044  -0.28348
 Alpha  occ. eigenvalues --   -0.27378  -0.26125  -0.25082  -0.24596  -0.23829
 Alpha  occ. eigenvalues --   -0.23574  -0.22374  -0.21949  -0.20018  -0.19535
 Alpha  occ. eigenvalues --   -0.17677   0.03804
 Alpha virt. eigenvalues --    0.05633   0.06763   0.07507   0.08366   0.08944
 Alpha virt. eigenvalues --    0.09113   0.09686   0.10748   0.11298   0.11460
 Alpha virt. eigenvalues --    0.11805   0.12435   0.12991   0.13401   0.13527

  Beta  occ. eigenvalues --  -88.97983 -19.02894 -19.02775 -14.31748 -14.26308
  Beta  occ. eigenvalues --  -14.25415 -14.21830 -10.14439 -10.13126 -10.12932
  Beta  occ. eigenvalues --  -10.12767 -10.11811 -10.11733 -10.07877  -8.04089
  Beta  occ. eigenvalues --   -6.00370  -6.00311  -6.00227  -1.03224  -0.97939
  Beta  occ. eigenvalues --   -0.92069  -0.84483  -0.81547  -0.75519  -0.73208
  Beta  occ. eigenvalues --   -0.71868  -0.62211  -0.59824  -0.55279  -0.53870
  Beta  occ. eigenvalues --   -0.50828  -0.47475  -0.44799  -0.43898  -0.40203
  Beta  occ. eigenvalues --   -0.38224  -0.37936  -0.37552  -0.37078  -0.35979
  Beta  occ. eigenvalues --   -0.35305  -0.33936  -0.31066  -0.28962  -0.28289
  Beta  occ. eigenvalues --   -0.27327  -0.26077  -0.25049  -0.24564  -0.23791
  Beta  occ. eigenvalues --   -0.23481  -0.22347  -0.21920  -0.19957  -0.19446
  Beta  occ. eigenvalues --   -0.17591
  Beta virt. eigenvalues --    0.06320   0.07057   0.07118   0.08270   0.08835
  Beta virt. eigenvalues --    0.09159   0.09540   0.09976   0.11275   0.11530
  Beta virt. eigenvalues --    0.11776   0.12094   0.12691   0.12989   0.13663

 Mulliken charges and spin densities:
               1          2
     1  C    1.829495  -2.482195
     2  C   -1.921059   2.619227
     3  C    0.626601  -1.105130
     4  N   -0.316696  -0.049577
     5  S    1.226890  -0.676938
     6  O   -0.234314   0.011480
     7  O   -0.190693   0.001237
     8  C   -0.401898  -0.197299
     9  C   -0.050910  -0.209293
    10  N    0.090480  -0.022882
    11  N   -0.190868   0.001100
    12  C   -0.338226   0.383898
    13  C    1.377342  -1.731886
    14  N   -0.388135   0.079732
    15  H   -0.067376   0.206267
    16  H   -0.376767   0.547175
    17  H   -0.742118   0.926390
    18  H   -0.847602   1.112610
    19  H    0.110028   0.060391
    20  H   -0.418648   0.677964
    21  H    0.173302   0.145237
    22  H   -0.043039   0.266279
    23  H   -0.026174   0.359604
    24  H    0.120386   0.076608
 Sum of Mulliken charges =  -1.00000   1.00000

 Dipole moment (field-independent basis, Debye):
    X=             -6.5746    Y=              0.4378    Z=              1.9951  Tot=              6.8846
 Quadrupole moment (field-independent basis, Debye-Ang):
   XX=           -164.9788   YY=           -139.1958   ZZ=           -120.3772
   XY=              1.0495   XZ=              9.9702   YZ=              0.6182

 Summary of Natural Population Analysis:

                                       Natural Population
                Natural  -----------------------------------------------
    Atom  No    Charge         Core      Valence    Rydberg      Total
 -----------------------------------------------------------------------
      C    1   -0.27958      0.99965     2.27274    0.00719     3.27958
      C    2   -0.16888      0.99952     2.15550    0.01386     3.16888
      C    3   -0.08608      0.99960     2.07247    0.01401     3.08608
      N    4   -0.43803      0.99975     2.92558    0.01270     3.93803
      S    5    1.11325      4.99917     1.78605    0.10154     6.88675
      O    6   -0.46137      0.99991     3.45632    0.00514     4.46137
      O    7   -0.45953      0.99991     3.45428    0.00534     4.45953
      C    8   -0.22030      0.99936     2.20619    0.01475     3.22030
      C    9    0.02666      0.99952     1.96123    0.01259     2.97334
      N   10   -0.15721      0.99969     2.64486    0.01266     3.65721
      N   11   -0.15116      0.99974     2.63795    0.01347     3.65116
      C   12    0.00264      0.99957     1.98361    0.01417     2.99736
      C   13    0.17465      0.99964     1.80741    0.01830     2.82535
      N   14   -0.19280      0.99978     2.68152    0.01149     3.69280
      H   15    0.10037      0.00000     0.39786    0.00177     0.39963
      H   16    0.10871      0.00000     0.38927    0.00202     0.39129
      H   17    0.11012      0.00000     0.38470    0.00518     0.38988
      H   18    0.12828      0.00000     0.36603    0.00569     0.37172
      H   19    0.10774      0.00000     0.39052    0.00174     0.39226
      H   20    0.10374      0.00000     0.39426    0.00200     0.39626
      H   21    0.20073      0.00000     0.29714    0.00213     0.29927
      H   22    0.12305      0.00000     0.37547    0.00149     0.37695
      H   23    0.20594      0.00000     0.29041    0.00365     0.29406
      H   24    0.10907      0.00000     0.38994    0.00099     0.39093
 =======================================================================
   * Total *   -0.00000     17.99481    37.72131    0.28389    56.00000

 Normal termination of Gaussian 16 at Thu Dec 10 10:27:32 2020.
