 Gaussian 16, Revision A.03,

 -----------------------------------------------------------
 # opt freq B3LYP/6-31G(d) empiricaldispersion=gd3bj scf=xqc
 -----------------------------------------------------------

 ------------------------------
 CID_62496081_JID_5258_neutraal
 ------------------------------
 Symbolic Z-matrix:
 Charge =  0 Multiplicity = 1

 SCF Done:  E(RB3LYP) =  -687.621830925     A.U. after   15 cycles
 SCF Done:  E(RB3LYP) =  -687.626858954     A.U. after   12 cycles
 SCF Done:  E(RB3LYP) =  -687.627605330     A.U. after   12 cycles
 SCF Done:  E(RB3LYP) =  -687.627745016     A.U. after   12 cycles
 SCF Done:  E(RB3LYP) =  -687.627790639     A.U. after   10 cycles
 SCF Done:  E(RB3LYP) =  -687.627843062     A.U. after   11 cycles
 SCF Done:  E(RB3LYP) =  -687.627879613     A.U. after   11 cycles
 SCF Done:  E(RB3LYP) =  -687.627939327     A.U. after   11 cycles
 SCF Done:  E(RB3LYP) =  -687.628025388     A.U. after   12 cycles
 SCF Done:  E(RB3LYP) =  -687.628023838     A.U. after   11 cycles
 SCF Done:  E(RB3LYP) =  -687.628162614     A.U. after   11 cycles
 SCF Done:  E(RB3LYP) =  -687.628167252     A.U. after   10 cycles
 SCF Done:  E(RB3LYP) =  -687.628167030     A.U. after    8 cycles
 SCF Done:  E(RB3LYP) =  -687.628167415     A.U. after    8 cycles
 SCF Done:  E(RB3LYP) =  -687.628167450     A.U. after    7 cycles
 Optimization completed.
    -- Stationary point found.
 Normal termination of Gaussian 16 at Thu Dec 10 15:17:14 2020.

 --------------------------------------------------------------------
 #N Geom=AllCheck Guess=TCheck SCRF=Check GenChk RB3LYP/6-31G(d) Freq
 --------------------------------------------------------------------

 Structure from the checkpoint file:  "JID_5258.chk"
 ------------------------------
 CID_62496081_JID_5258_neutraal
 ------------------------------
 Charge =  0 Multiplicity = 1

 SCF Done:  E(RB3LYP) =  -687.628167450     A.U. after    1 cycles

  Exact polarizability: 124.723  -6.430 140.207  23.184   3.880 102.317
 Approx polarizability: 181.333  -9.584 227.692  54.010  12.165 171.517

                      1                      2                      3
                      A                      A                      A
 Frequencies --     25.2162                49.9744                64.4703
 Red. masses --      6.6604                 4.6397                 4.5473
 Frc consts  --      0.0025                 0.0068                 0.0111
 IR Inten    --      2.8557                 1.2451                 5.4578

                      4                      5                      6
                      A                      A                      A
 Frequencies --     92.4459               111.1513               132.3941
 Red. masses --      3.4676                 3.5272                 2.7564
 Frc consts  --      0.0175                 0.0257                 0.0285
 IR Inten    --      0.8630                 2.1747                 0.5091

                      7                      8                      9
                      A                      A                      A
 Frequencies --    182.4461               211.1579               284.7872
 Red. masses --      4.4533                 4.2493                 2.9489
 Frc consts  --      0.0873                 0.1116                 0.1409
 IR Inten    --      0.2170                 4.6042                 8.3220

                     10                     11                     12
                      A                      A                      A
 Frequencies --    311.5189               321.6245               363.3463
 Red. masses --      3.0198                 1.1812                 2.3327
 Frc consts  --      0.1727                 0.0720                 0.1814
 IR Inten    --      8.9886                18.6511                 4.8800

                     13                     14                     15
                      A                      A                      A
 Frequencies --    411.5195               437.6119               490.5045
 Red. masses --      3.9443                 2.7046                 3.1170
 Frc consts  --      0.3936                 0.3052                 0.4419
 IR Inten    --      2.7790                 0.0461                23.3910

                     16                     17                     18
                      A                      A                      A
 Frequencies --    511.8296               533.5264               576.3652
 Red. masses --      4.4624                 3.5351                 4.4697
 Frc consts  --      0.6888                 0.5929                 0.8748
 IR Inten    --      2.2704                10.4400                 2.4997

                     19                     20                     21
                      A                      A                      A
 Frequencies --    599.6348               658.2302               690.2709
 Red. masses --      4.5516                 4.1308                 1.4283
 Frc consts  --      0.9642                 1.0545                 0.4010
 IR Inten    --      3.3580                 8.9810               202.7470

                     22                     23                     24
                      A                      A                      A
 Frequencies --    709.5666               746.3335               751.4960
 Red. masses --      5.4434                 3.1680                 2.6711
 Frc consts  --      1.6147                 1.0397                 0.8888
 IR Inten    --      3.6320                 1.3463                 3.2784

                     25                     26                     27
                      A                      A                      A
 Frequencies --    754.7215               772.2000               793.4824
 Red. masses --      9.4996                 1.5145                 3.7858
 Frc consts  --      3.1881                 0.5321                 1.4044
 IR Inten    --     41.5236                87.9360                 0.8954

                     28                     29                     30
                      A                      A                      A
 Frequencies --    854.8879               863.8084               890.6188
 Red. masses --      2.0774                 1.9749                 1.4485
 Frc consts  --      0.8945                 0.8682                 0.6769
 IR Inten    --      0.3823                 5.1027                 0.4483

                     31                     32                     33
                      A                      A                      A
 Frequencies --    921.6947               948.2395               955.6514
 Red. masses --      1.8693                 1.9639                 1.8971
 Frc consts  --      0.9356                 1.0404                 1.0208
 IR Inten    --      7.4991                 9.0597                 1.8122

                     34                     35                     36
                      A                      A                      A
 Frequencies --    973.2280               984.4698              1024.3807
 Red. masses --      1.2696                 2.5146                 2.4495
 Frc consts  --      0.7085                 1.4359                 1.5144
 IR Inten    --      0.5022                15.3817                12.7391

                     37                     38                     39
                      A                      A                      A
 Frequencies --   1068.0397              1073.1849              1087.3511
 Red. masses --      2.2526                 2.9582                 4.0094
 Frc consts  --      1.5139                 2.0074                 2.7930
 IR Inten    --      9.4641                28.9233                77.9407

                     40                     41                     42
                      A                      A                      A
 Frequencies --   1113.3017              1151.2137              1178.4721
 Red. masses --      1.8752                 1.6024                 1.3630
 Frc consts  --      1.3693                 1.2513                 1.1153
 IR Inten    --     16.9675                 3.0495                 2.6724

                     43                     44                     45
                      A                      A                      A
 Frequencies --   1195.3223              1206.5099              1229.0432
 Red. masses --      1.0936                 1.7062                 2.0601
 Frc consts  --      0.9207                 1.4633                 1.8335
 IR Inten    --      3.4493                33.0229                 8.0824

                     46                     47                     48
                      A                      A                      A
 Frequencies --   1236.2016              1251.3470              1261.2348
 Red. masses --      1.4700                 1.4294                 1.1556
 Frc consts  --      1.3235                 1.3188                 1.0830
 IR Inten    --     28.0321                16.1293                24.7653

                     49                     50                     51
                      A                      A                      A
 Frequencies --   1302.9150              1312.4918              1339.7451
 Red. masses --      1.8420                 2.6194                 1.9023
 Frc consts  --      1.8424                 2.6585                 2.0117
 IR Inten    --     90.7249                17.4132                10.4863

                     52                     53                     54
                      A                      A                      A
 Frequencies --   1359.0354              1375.7201              1388.0498
 Red. masses --      1.5384                 3.5338                 1.4410
 Frc consts  --      1.6741                 3.9405                 1.6358
 IR Inten    --      9.5666                 3.7829                18.1230

                     55                     56                     57
                      A                      A                      A
 Frequencies --   1409.3537              1420.7946              1466.1743
 Red. masses --      1.4375                 1.4252                 1.9242
 Frc consts  --      1.6823                 1.6951                 2.4371
 IR Inten    --     29.4161                13.4160                83.2134

                     58                     59                     60
                      A                      A                      A
 Frequencies --   1504.0286              1516.5610              1533.8427
 Red. masses --      2.1027                 1.1439                 1.2532
 Frc consts  --      2.8025                 1.5501                 1.7371
 IR Inten    --     22.5775                12.7295                 9.9898

                     61                     62                     63
                      A                      A                      A
 Frequencies --   1549.4935              1551.6773              1563.5293
 Red. masses --      1.2492                 1.8616                 1.1284
 Frc consts  --      1.7672                 2.6409                 1.6252
 IR Inten    --      4.6589                56.8077                 9.9257

                     64                     65                     66
                      A                      A                      A
 Frequencies --   1644.8028              1665.8479              1697.6319
 Red. masses --      5.8008                 3.8455                 1.2628
 Frc consts  --      9.2462                 6.2875                 2.1442
 IR Inten    --      8.2717                 5.8593               100.1825

                     67                     68                     69
                      A                      A                      A
 Frequencies --   1861.7186              3026.4126              3028.9352
 Red. masses --     11.7383                 1.0714                 1.0709
 Frc consts  --     23.9709                 5.7817                 5.7887
 IR Inten    --    448.0103                54.0182                51.3606

                     70                     71                     72
                      A                      A                      A
 Frequencies --   3080.8658              3082.0042              3112.8542
 Red. masses --      1.0628                 1.0602                 1.0934
 Frc consts  --      5.9435                 5.9336                 6.2421
 IR Inten    --     23.7270                42.8220                 9.0849

                     73                     74                     75
                      A                      A                      A
 Frequencies --   3116.0135              3138.9099              3142.1246
 Red. masses --      1.0941                 1.1043                 1.1081
 Frc consts  --      6.2591                 6.4103                 6.4459
 IR Inten    --      3.2524                12.6866                34.9793

                     76                     77                     78
                      A                      A                      A
 Frequencies --   3169.8461              3183.8516              3194.5327
 Red. masses --      1.0875                 1.0879                 1.0916
 Frc consts  --      6.4381                 6.4977                 6.5632
 IR Inten    --     15.6032                 1.0960                23.2730

                     79                     80                     81
                      A                      A                      A
 Frequencies --   3211.7910              3537.5249              3633.3360
 Red. masses --      1.0969                 1.0481                 1.0971
 Frc consts  --      6.6666                 7.7277                 8.5331
 IR Inten    --     18.5254                 6.0743                 6.9830

 - Thermochemistry -
 -------------------
 Temperature   298.150 Kelvin.  Pressure   1.00000 Atm.
 Atom     1 has atomic number  6 and mass  12.00000

 Molecular mass:   206.10553 amu.
 Principal axes and moments of inertia in atomic units:
                           1         2         3
     Eigenvalues --  1829.132503650.041174246.40922
           X            0.99999   0.00354  -0.00239
           Y           -0.00356   0.99997  -0.00732
           Z            0.00236   0.00733   0.99997
 This molecule is an asymmetric top.
 Rotational symmetry number  1.
 Warning -- assumption of classical behavior for rotation
           may cause significant error
 Rotational temperatures (Kelvin)      0.04735     0.02373     0.02040
 Rotational constants (GHZ):           0.98667     0.49444     0.42500
 Zero-point vibrational energy     641069.5 (Joules/Mol)
                                  153.21928 (Kcal/Mol)
 Warning -- explicit consideration of  19 degrees of freedom as
           vibrations may cause significant error
 Vibrational temperatures:     36.28    71.90    92.76   133.01   159.92
          (Kelvin)            190.49   262.50   303.81   409.75   448.21
                              462.75   522.77   592.08   629.63   705.73
                              736.41   767.63   829.26   862.74   947.05
                              993.15  1020.91  1073.81  1081.24  1085.88
                             1111.02  1141.64  1229.99  1242.83  1281.40
                             1326.11  1364.31  1374.97  1400.26  1416.43
                             1473.86  1536.67  1544.07  1564.46  1601.79
                             1656.34  1695.56  1719.80  1735.90  1768.32
                             1778.62  1800.41  1814.64  1874.60  1888.38
                             1927.59  1955.35  1979.35  1997.09  2027.75
                             2044.21  2109.50  2163.96  2181.99  2206.86
                             2229.38  2232.52  2249.57  2366.50  2396.78
                             2442.51  2678.60  4354.33  4357.96  4432.68
                             4434.32  4478.70  4483.25  4516.19  4520.82
                             4560.70  4580.85  4596.22  4621.05  5089.71
                             5227.56

 Zero-point correction=                           0.244170 (Hartree/Particle)
 Thermal correction to Energy=                    0.257522
 Thermal correction to Enthalpy=                  0.258466
 Thermal correction to Gibbs Free Energy=         0.202879
 Sum of electronic and zero-point Energies=           -687.383997
 Sum of electronic and thermal Energies=              -687.370646
 Sum of electronic and thermal Enthalpies=            -687.369702
 Sum of electronic and thermal Free Energies=         -687.425288

                     E (Thermal)             CV                S
                      KCal/Mol        Cal/Mol-Kelvin    Cal/Mol-Kelvin
 Total                  161.597             51.146            116.992
 Electronic               0.000              0.000              0.000
 Translational            0.889              2.981             41.874
 Rotational               0.889              2.981             31.717
 Vibrational            159.820             45.185             43.401
 Vibration     1          0.593              1.985              6.174
 Vibration     2          0.595              1.978              4.818
 Vibration     3          0.597              1.971              4.315
 Vibration     4          0.602              1.955              3.608
 Vibration     5          0.607              1.940              3.249
 Vibration     6          0.613              1.921              2.911
 Vibration     7          0.630              1.864              2.303
 Vibration     8          0.643              1.824              2.034
 Vibration     9          0.683              1.702              1.505
 Vibration    10          0.700              1.652              1.354
 Vibration    11          0.707              1.632              1.302
 Vibration    12          0.737              1.548              1.108
 Vibration    13          0.775              1.445              0.921
 Vibration    14          0.798              1.388              0.834
 Vibration    15          0.846              1.271              0.682
 Vibration    16          0.867              1.224              0.629
 Vibration    17          0.889              1.176              0.579
 Vibration    18          0.933              1.082              0.492
 Vibration    19          0.958              1.033              0.450

 Optimization completed.
    -- Stationary point found.
 Normal termination of Gaussian 16 at Thu Dec 10 15:27:38 2020.

 ----------------------------------------------------------------------
 # B3LYP/6-311++G(d,p) empiricaldispersion=gd3bj scf=xqc pop=npa geom=c
 heck
 ----------------------------------------------------------------------

 --------------------------------------
 CID_62496081_JID_5258_Energie_neutraal
 --------------------------------------
 Structure from the checkpoint file:  "JID_5258.chk"
 Charge =  0 Multiplicity = 1

 SCF Done:  E(RB3LYP) =  -687.825188039     A.U. after   14 cycles
 Normal termination of Gaussian 16 at Thu Dec 10 15:31:25 2020.

 ----------------------------------------------------------------------
 # B3LYP/6-311++G(d,p) empiricaldispersion=gd3bj scf=xqc pop=npa geom=c
 heck
 ----------------------------------------------------------------------

 ------------------------------------
 CID_62496081_JID_5258_Energie_kation
 ------------------------------------
 Structure from the checkpoint file:  "JID_5258.chk"
 Charge =  1 Multiplicity = 2

 SCF Done:  E(UB3LYP) =  -687.537233953     A.U. after   23 cycles
 Normal termination of Gaussian 16 at Thu Dec 10 15:42:17 2020.
 Gaussian 16:  ES64L-G16RevA.03 25-Dec-2016

 ----------------------------------------------------------------------
 # B3LYP/6-311++G(d,p) empiricaldispersion=gd3bj scf=xqc pop=npa geom=c
 heck
 ----------------------------------------------------------------------

 -----------------------------------
 CID_62496081_JID_5258_Energie_anion
 -----------------------------------
 Structure from the checkpoint file:  "JID_5258.chk"
 Charge = -1 Multiplicity = 2

                         Standard orientation:
 ---------------------------------------------------------------------
 Center     Atomic      Atomic             Coordinates (Angstroms)
 Number     Number       Type             X           Y           Z
 ---------------------------------------------------------------------
      1          6           0        1.105916    0.309389   -1.612298
      2          6           0        1.797559    1.605056   -1.138255
      3          8           0        2.729916    1.197018   -0.121743
      4          6           0        2.422039   -0.073327    0.292065
      5          8           0        2.909464   -0.595049    1.271094
      6          7           0        1.507462   -0.616442   -0.568708
      7          6           0        0.808202   -1.846521   -0.245481
      8          6           0       -0.160428   -1.659464    0.945029
      9          6           0       -1.088524   -0.490674    0.726285
     10          6           0       -0.805817    0.741233    1.322819
     11          6           0       -1.555008    1.884846    1.042960
     12          6           0       -2.619072    1.793647    0.145562
     13          6           0       -2.930120    0.574068   -0.451036
     14          6           0       -2.172759   -0.573906   -0.175007
     15          7           0       -2.438907   -1.772261   -0.857061
     16          1           0        1.463465   -0.024293   -2.596135
     17          1           0        0.019448    0.423804   -1.654755
     18          1           0        2.352054    2.113836   -1.929138
     19          1           0        1.079048    2.297984   -0.689517
     20          1           0        0.263145   -2.160432   -1.139151
     21          1           0        1.546197   -2.616414   -0.000075
     22          1           0       -0.701764   -2.602366    1.109893
     23          1           0        0.441465   -1.486330    1.841142
     24          1           0        0.033086    0.798826    2.011983
     25          1           0       -1.312125    2.829043    1.520541
     26          1           0       -3.218061    2.669868   -0.086726
     27          1           0       -3.762875    0.504762   -1.147740
     28          1           0       -2.235889   -2.610718   -0.325433
     29          1           0       -3.374031   -1.818495   -1.245173
 ---------------------------------------------------------------------

 SCF Done:  E(UB3LYP) =  -687.816548489     A.U. after   33 cycles
 SCF Done:  E(UB3LYP) =  -687.816548489     a.u. after    1 cycles

 The electronic state is 2-A.
 Alpha  occ. eigenvalues --  -19.06971 -19.00201 -14.25120 -14.21232 -10.22063
 Alpha  occ. eigenvalues --  -10.14662 -10.12448 -10.11510 -10.11480 -10.07949
 Alpha  occ. eigenvalues --  -10.07898 -10.07808 -10.07613 -10.07139 -10.06985
 Alpha  occ. eigenvalues --   -1.01991  -0.92982  -0.85356  -0.81908  -0.74478
 Alpha  occ. eigenvalues --   -0.69811  -0.67078  -0.63900  -0.62744  -0.56937
 Alpha  occ. eigenvalues --   -0.55849  -0.51302  -0.49540  -0.46685  -0.43541
 Alpha  occ. eigenvalues --   -0.42278  -0.41677  -0.40468  -0.39696  -0.37353
 Alpha  occ. eigenvalues --   -0.35861  -0.35410  -0.33995  -0.33216  -0.33042
 Alpha  occ. eigenvalues --   -0.32403  -0.31945  -0.30538  -0.29458  -0.28275
 Alpha  occ. eigenvalues --   -0.27298  -0.26382  -0.25463  -0.24106  -0.21695
 Alpha  occ. eigenvalues --   -0.20597  -0.19099  -0.15765  -0.15318  -0.11284
 Alpha  occ. eigenvalues --    0.04172
 Alpha virt. eigenvalues --    0.06146   0.06823   0.07619   0.08249   0.08488
 Alpha virt. eigenvalues --    0.09383   0.09617   0.09926   0.10360   0.10822
 Alpha virt. eigenvalues --    0.12260   0.12557   0.12649   0.13070   0.13772

  Beta  occ. eigenvalues --  -19.06970 -19.00199 -14.25121 -14.21152 -10.22061
  Beta  occ. eigenvalues --  -10.14650 -10.12428 -10.11509 -10.11466 -10.07942
  Beta  occ. eigenvalues --  -10.07879 -10.07796 -10.07601 -10.07139 -10.06952
  Beta  occ. eigenvalues --   -1.01987  -0.92979  -0.85350  -0.81821  -0.74425
  Beta  occ. eigenvalues --   -0.69780  -0.67051  -0.63858  -0.62693  -0.56901
  Beta  occ. eigenvalues --   -0.55815  -0.51243  -0.49502  -0.46657  -0.43517
  Beta  occ. eigenvalues --   -0.42234  -0.41618  -0.40416  -0.39659  -0.37291
  Beta  occ. eigenvalues --   -0.35828  -0.35383  -0.33971  -0.33171  -0.33016
  Beta  occ. eigenvalues --   -0.32379  -0.31913  -0.30502  -0.29431  -0.28254
  Beta  occ. eigenvalues --   -0.27255  -0.26361  -0.25434  -0.24077  -0.21647
  Beta  occ. eigenvalues --   -0.20585  -0.19095  -0.15735  -0.15272  -0.11232
  Beta virt. eigenvalues --    0.06436   0.07278   0.07459   0.08131   0.08641
  Beta virt. eigenvalues --    0.08813   0.09845   0.09934   0.10287   0.10569
  Beta virt. eigenvalues --    0.11131   0.12446   0.12929   0.13146   0.13251

 Mulliken charges and spin densities:
               1          2
     1  C    0.336232  -0.426263
     2  C   -0.061968  -0.381621
     3  O   -0.115341   0.011858
     4  C    0.152209  -0.044457
     5  O   -0.363720   0.005140
     6  N   -0.004372   0.062545
     7  C   -0.107661  -0.287422
     8  C    1.253216  -1.753977
     9  C    0.094529   0.847451
    10  C   -0.382052   0.340782
    11  C   -0.467498   0.022820
    12  C    1.169951  -1.485442
    13  C    0.609764  -0.812616
    14  C   -0.980970   0.382969
    15  N   -0.292146   0.000621
    16  H   -0.280696   0.472507
    17  H    0.158461   0.011111
    18  H   -0.096650   0.273936
    19  H    0.109651   0.104131
    20  H    0.044967   0.130194
    21  H    0.009507   0.183566
    22  H   -0.476368   0.637972
    23  H    0.226770  -0.029943
    24  H    0.136788   0.050105
    25  H    0.048798   0.102367
    26  H   -0.053625   0.201333
    27  H   -0.897028   1.077320
    28  H   -0.309740   0.568226
    29  H   -0.461008   0.734789
 Sum of Mulliken charges =  -1.00000   1.00000

 Dipole moment (field-independent basis, Debye):
    X=              4.9455    Y=              4.8228    Z=              1.8738  Tot=              7.1575
 Quadrupole moment (field-independent basis, Debye-Ang):
   XX=           -167.0868   YY=           -132.0673   ZZ=           -125.4543
   XY=            -13.4041   XZ=            -14.2761   YZ=             -1.7678

 Summary of Natural Population Analysis:

                                       Natural Population
                Natural  -----------------------------------------------
    Atom  No    Charge         Core      Valence    Rydberg      Total
 -----------------------------------------------------------------------
      C    1   -0.09065      0.99963     2.08160    0.00943     3.09065
      C    2   -0.01474      0.99960     2.00394    0.01121     3.01474
      O    3   -0.28176      0.99987     3.27486    0.00703     4.28176
      C    4    0.46364      0.99966     1.51061    0.02609     2.53636
      O    5   -0.32289      0.99987     3.31794    0.00508     4.32289
      N    6   -0.26553      0.99963     2.75540    0.01050     3.76553
      C    7   -0.08077      0.99961     2.06955    0.01161     3.08077
      C    8   -0.20513      0.99960     2.19535    0.01018     3.20513
      C    9   -0.04325      0.99946     2.03153    0.01225     3.04325
      C   10   -0.09602      0.99951     2.08716    0.00934     3.09602
      C   11   -0.12824      0.99956     2.11807    0.01061     3.12824
      C   12   -0.09566      0.99956     2.08600    0.01009     3.09566
      C   13   -0.11960      0.99951     2.10920    0.01089     3.11960
      C   14    0.08595      0.99943     1.90112    0.01349     2.91405
      N   15   -0.39761      0.99972     2.88690    0.01099     3.89761
      H   16    0.09223      0.00000     0.40648    0.00129     0.40777
      H   17    0.10856      0.00000     0.38989    0.00155     0.39144
      H   18    0.09031      0.00000     0.40838    0.00131     0.40969
      H   19    0.09175      0.00000     0.40679    0.00147     0.40825
      H   20    0.10616      0.00000     0.39223    0.00161     0.39384
      H   21    0.10384      0.00000     0.39514    0.00102     0.39616
      H   22    0.10436      0.00000     0.39413    0.00151     0.39564
      H   23    0.10995      0.00000     0.38884    0.00120     0.39005
      H   24    0.10114      0.00000     0.39738    0.00148     0.39886
      H   25    0.09850      0.00000     0.40072    0.00078     0.40150
      H   26    0.09923      0.00000     0.39992    0.00086     0.40077
      H   27    0.10394      0.00000     0.39426    0.00180     0.39606
      H   28    0.18980      0.00000     0.30256    0.00764     0.31020
      H   29    0.19248      0.00000     0.29524    0.01228     0.30752
 =======================================================================
   * Total *   -0.00000     14.99422    39.80119    0.20459    55.00000

 Normal termination of Gaussian 16 at Thu Dec 10 16:01:09 2020.
