 Gaussian 16, Revision A.03,

 -----------------------------------------------------------
 # opt freq B3LYP/6-31G(d) empiricaldispersion=gd3bj scf=xqc
 -----------------------------------------------------------

 -------------------------------
 CID_113382797_JID_8905_neutraal
 -------------------------------
 Symbolic Z-matrix:
 Charge =  0 Multiplicity = 1

 SCF Done:  E(RB3LYP) =  -862.430834937     A.U. after   14 cycles
 SCF Done:  E(RB3LYP) =  -862.436221987     A.U. after   12 cycles
 SCF Done:  E(RB3LYP) =  -862.436763701     A.U. after   12 cycles
 SCF Done:  E(RB3LYP) =  -862.437133610     A.U. after   12 cycles
 SCF Done:  E(RB3LYP) =  -862.437271658     A.U. after   11 cycles
 SCF Done:  E(RB3LYP) =  -862.437367676     A.U. after   12 cycles
 SCF Done:  E(RB3LYP) =  -862.437446780     A.U. after   10 cycles
 SCF Done:  E(RB3LYP) =  -862.437514887     A.U. after   11 cycles
 SCF Done:  E(RB3LYP) =  -862.437674595     A.U. after   12 cycles
 SCF Done:  E(RB3LYP) =  -862.437821100     A.U. after   12 cycles
 SCF Done:  E(RB3LYP) =  -862.438582089     A.U. after    9 cycles
 SCF Done:  E(RB3LYP) =  -862.438582414     A.U. after    9 cycles
 SCF Done:  E(RB3LYP) =  -862.438582522     A.U. after    8 cycles
 SCF Done:  E(RB3LYP) =  -862.438582565     A.U. after    7 cycles
 SCF Done:  E(RB3LYP) =  -862.438582574     A.U. after    7 cycles
 Optimization completed.
    -- Stationary point found.
 Normal termination of Gaussian 16 at Fri Dec 11 23:44:01 2020.

 --------------------------------------------------------------------
 #N Geom=AllCheck Guess=TCheck SCRF=Check GenChk RB3LYP/6-31G(d) Freq
 --------------------------------------------------------------------

 Structure from the checkpoint file:  "JID_8905.chk"
 -------------------------------
 CID_113382797_JID_8905_neutraal
 -------------------------------
 Charge =  0 Multiplicity = 1

 SCF Done:  E(RB3LYP) =  -862.438582574     A.U. after    1 cycles

  Exact polarizability: 238.283  -6.131 158.484   3.553  -7.247 100.007
 Approx polarizability: 310.034 -19.242 257.578   8.817 -25.992 152.676

                      1                      2                      3
                      A                      A                      A
 Frequencies --     18.3595                32.7229                45.4139
 Red. masses --      3.7357                 4.6439                 3.5582
 Frc consts  --      0.0007                 0.0029                 0.0043
 IR Inten    --      0.0209                 0.0743                 0.8275

                      4                      5                      6
                      A                      A                      A
 Frequencies --     60.4237                95.4525               121.0343
 Red. masses --      3.6339                 3.0698                 1.8812
 Frc consts  --      0.0078                 0.0165                 0.0162
 IR Inten    --      0.3870                 3.4036                 6.2170

                      7                      8                      9
                      A                      A                      A
 Frequencies --    122.5819               140.1803               144.6172
 Red. masses --      2.1126                 1.5145                 3.3246
 Frc consts  --      0.0187                 0.0175                 0.0410
 IR Inten    --      1.8424                 1.2412                 1.3456

                     10                     11                     12
                      A                      A                      A
 Frequencies --    154.7215               159.3894               178.3646
 Red. masses --      2.8325                 2.8736                 2.1030
 Frc consts  --      0.0400                 0.0430                 0.0394
 IR Inten    --      1.8522                 2.1612                 0.6694

                     13                     14                     15
                      A                      A                      A
 Frequencies --    202.7535               204.1369               253.1506
 Red. masses --      1.6704                 1.9016                 4.4145
 Frc consts  --      0.0405                 0.0467                 0.1667
 IR Inten    --      7.8580                 0.4135                 4.3270

                     16                     17                     18
                      A                      A                      A
 Frequencies --    275.6326               292.4397               316.5761
 Red. masses --      1.2464                 4.1069                 3.4131
 Frc consts  --      0.0558                 0.2069                 0.2015
 IR Inten    --      3.0357                 4.3498                 1.2713

                     19                     20                     21
                      A                      A                      A
 Frequencies --    325.6750               354.9290               370.5220
 Red. masses --      2.7655                 5.1002                 2.7404
 Frc consts  --      0.1728                 0.3785                 0.2217
 IR Inten    --      2.4953                 5.7787                17.1264

                     22                     23                     24
                      A                      A                      A
 Frequencies --    382.3739               386.1279               396.7594
 Red. masses --      2.4350                 4.4109                 2.3957
 Frc consts  --      0.2098                 0.3875                 0.2222
 IR Inten    --     27.0142                 3.9511                21.9602

                     25                     26                     27
                      A                      A                      A
 Frequencies --    432.6214               471.2956               491.4907
 Red. masses --      2.0156                 3.4004                 4.3049
 Frc consts  --      0.2223                 0.4450                 0.6127
 IR Inten    --     45.7897                 6.3926                 9.3133

                     28                     29                     30
                      A                      A                      A
 Frequencies --    517.2494               534.5717               599.8277
 Red. masses --      3.7301                 3.0255                 5.2268
 Frc consts  --      0.5880                 0.5094                 1.1080
 IR Inten    --      2.6961                12.7126                 5.1826

                     31                     32                     33
                      A                      A                      A
 Frequencies --    628.7559               672.5554               679.6303
 Red. masses --      4.0814                 3.8202                 3.6947
 Frc consts  --      0.9507                 1.0181                 1.0055
 IR Inten    --     11.2896                 4.9428                21.9788

                     34                     35                     36
                      A                      A                      A
 Frequencies --    746.1796               753.0387               793.9373
 Red. masses --      4.4542                 4.3670                 3.0310
 Frc consts  --      1.4612                 1.4590                 1.1257
 IR Inten    --      0.2901                27.4947                10.4862

                     37                     38                     39
                      A                      A                      A
 Frequencies --    807.0605               843.5229               895.4096
 Red. masses --      3.3772                 1.7094                 4.7078
 Frc consts  --      1.2960                 0.7166                 2.2239
 IR Inten    --     19.2812                21.3887                 7.3731

                     40                     41                     42
                      A                      A                      A
 Frequencies --    923.2643               930.2291               942.4360
 Red. masses --      2.6521                 1.3858                 1.4638
 Frc consts  --      1.3320                 0.7065                 0.7660
 IR Inten    --     16.4308                13.1290                 1.6305

                     43                     44                     45
                      A                      A                      A
 Frequencies --    948.6570               972.4971               996.2065
 Red. masses --      1.4936                 4.0128                 2.3247
 Frc consts  --      0.7919                 2.2360                 1.3593
 IR Inten    --      4.5606               118.1306                88.6714

                     46                     47                     48
                      A                      A                      A
 Frequencies --   1033.2019              1055.2578              1065.9397
 Red. masses --      2.6006                 3.9543                 2.4443
 Frc consts  --      1.6356                 2.5944                 1.6363
 IR Inten    --    154.9086                82.4509                52.2842

                     49                     50                     51
                      A                      A                      A
 Frequencies --   1073.9195              1106.6029              1117.0649
 Red. masses --      1.5963                 2.1129                 2.6320
 Frc consts  --      1.0847                 1.5244                 1.9350
 IR Inten    --      0.2622                15.9124                11.5588

                     52                     53                     54
                      A                      A                      A
 Frequencies --   1156.7451              1165.0613              1188.2985
 Red. masses --      1.8628                 1.8688                 1.2812
 Frc consts  --      1.4686                 1.4945                 1.0659
 IR Inten    --     24.0119                 3.6345                 4.6602

                     55                     56                     57
                      A                      A                      A
 Frequencies --   1198.9086              1204.6414              1214.1125
 Red. masses --      1.2426                 1.4895                 2.5938
 Frc consts  --      1.0524                 1.2735                 2.2527
 IR Inten    --      2.5492                 3.6076               110.1690

                     58                     59                     60
                      A                      A                      A
 Frequencies --   1237.4186              1253.5105              1274.7452
 Red. masses --      1.4898                 2.4851                 1.8618
 Frc consts  --      1.3440                 2.3007                 1.7825
 IR Inten    --      9.1437                65.9429                 8.6258

                     61                     62                     63
                      A                      A                      A
 Frequencies --   1290.0143              1306.5874              1328.3457
 Red. masses --      1.1608                 1.9145                 2.9293
 Frc consts  --      1.1382                 1.9257                 3.0454
 IR Inten    --     67.8321                67.2510               271.8531

                     64                     65                     66
                      A                      A                      A
 Frequencies --   1350.8649              1384.4844              1402.8067
 Red. masses --      7.8442                 1.5116                 1.2469
 Frc consts  --      8.4337                 1.7072                 1.4457
 IR Inten    --     85.4488                11.2992                 9.0361

                     67                     68                     69
                      A                      A                      A
 Frequencies --   1416.7511              1423.7062              1427.0535
 Red. masses --      1.4744                 1.3535                 1.3327
 Frc consts  --      1.7436                 1.6164                 1.5991
 IR Inten    --      8.5508                 7.6668                 0.3721

                     70                     71                     72
                      A                      A                      A
 Frequencies --   1441.3439              1460.4166              1498.1219
 Red. masses --      1.3486                 2.7317                 1.1404
 Frc consts  --      1.6507                 3.4328                 1.5081
 IR Inten    --     28.8111                97.3156                 5.2576

                     73                     74                     75
                      A                      A                      A
 Frequencies --   1507.6692              1516.6159              1516.9138
 Red. masses --      1.2296                 1.0598                 1.0601
 Frc consts  --      1.6467                 1.4363                 1.4373
 IR Inten    --      3.1904                 9.4277                 5.0977

                     76                     77                     78
                      A                      A                      A
 Frequencies --   1523.0816              1523.3246              1527.8734
 Red. masses --      1.0472                 1.0633                 1.1025
 Frc consts  --      1.4313                 1.4537                 1.5164
 IR Inten    --      7.7011                 8.6429                 4.5689

                     79                     80                     81
                      A                      A                      A
 Frequencies --   1537.4983              1540.3315              1545.2163
 Red. masses --      1.0705                 1.0577                 1.4942
 Frc consts  --      1.4910                 1.4786                 2.1020
 IR Inten    --      1.5127                 4.8231               114.7045

                     82                     83                     84
                      A                      A                      A
 Frequencies --   1552.5451              1557.1910              1621.6269
 Red. masses --      1.0939                 1.6223                 6.1568
 Frc consts  --      1.5536                 2.3178                 9.5390
 IR Inten    --     15.0349                62.0826                 9.3423

                     85                     86                     87
                      A                      A                      A
 Frequencies --   1662.2562              1712.3176              3025.5780
 Red. masses --      6.1680                 6.7879                 1.0678
 Frc consts  --     10.0414                11.7260                 5.7593
 IR Inten    --      8.1209                 3.1935                24.6373

                     88                     89                     90
                      A                      A                      A
 Frequencies --   3031.2867              3048.2531              3053.6818
 Red. masses --      1.0391                 1.0834                 1.0315
 Frc consts  --      5.6253                 5.9311                 5.6669
 IR Inten    --     65.6124                42.9996                52.4268

                     91                     92                     93
                      A                      A                      A
 Frequencies --   3059.2552              3065.3217              3102.1680
 Red. masses --      1.0417                 1.0376                 1.0951
 Frc consts  --      5.7443                 5.7443                 6.2091
 IR Inten    --     10.1206                19.2308                42.8545

                     94                     95                     96
                      A                      A                      A
 Frequencies --   3110.4650              3112.6920              3129.3150
 Red. masses --      1.1002                 1.0962                 1.1018
 Frc consts  --      6.2717                 6.2577                 6.3572
 IR Inten    --     12.5198                17.0041                31.7865

                     97                     98                     99
                      A                      A                      A
 Frequencies --   3135.3319              3138.1697              3148.1844
 Red. masses --      1.1041                 1.1055                 1.1075
 Frc consts  --      6.3947                 6.4145                 6.4674
 IR Inten    --     22.6156                27.7799                12.7004

                    100                    101                    102
                      A                      A                      A
 Frequencies --   3151.0589              3193.6067              3205.8769
 Red. masses --      1.1022                 1.0964                 1.0885
 Frc consts  --      6.4480                 6.5883                 6.5912
 IR Inten    --     24.8921                 5.3620                 8.2048

                    103                    104                    105
                      A                      A                      A
 Frequencies --   3226.7237              3242.5828              3762.1747
 Red. masses --      1.0927                 1.0904                 1.0676
 Frc consts  --      6.7030                 6.7550                 8.9031
 IR Inten    --     10.5185                 1.0204                93.2257

 - Thermochemistry -
 -------------------
 Temperature   298.150 Kelvin.  Pressure   1.00000 Atm.
 Atom     1 has atomic number  6 and mass  12.00000

 Molecular mass:   253.13141 amu.
 Principal axes and moments of inertia in atomic units:
                           1         2         3
     Eigenvalues --  1674.73097********************
           X            1.00000   0.00196   0.00102
           Y           -0.00198   0.99988   0.01515
           Z           -0.00099  -0.01515   0.99988
 This molecule is an asymmetric top.
 Rotational symmetry number  1.
 Warning -- assumption of classical behavior for rotation
           may cause significant error
 Rotational temperatures (Kelvin)      0.05172     0.00839     0.00762
 Rotational constants (GHZ):           1.07763     0.17488     0.15883
 Zero-point vibrational energy     816313.1 (Joules/Mol)
                                  195.10351 (Kcal/Mol)
 Warning -- explicit consideration of  30 degrees of freedom as
           vibrations may cause significant error
 Vibrational temperatures:     26.42    47.08    65.34    86.94   137.33
          (Kelvin)            174.14   176.37   201.69   208.07   222.61
                              229.33   256.63   291.72   293.71   364.23
                              396.57   420.76   455.48   468.57   510.66
                              533.10   550.15   555.55   570.85   622.45
                              678.09   707.15   744.21   769.13   863.02
                              904.64   967.66   977.84  1073.59  1083.45
                             1142.30  1161.18  1213.64  1288.29  1328.37
                             1338.39  1355.96  1364.91  1399.21  1433.32
                             1486.55  1518.28  1533.65  1545.13  1592.15
                             1607.21  1664.30  1676.26  1709.70  1724.96
                             1733.21  1746.84  1780.37  1803.52  1834.07
                             1856.04  1879.89  1911.19  1943.59  1991.96
                             2018.33  2038.39  2048.40  2053.21  2073.77
                             2101.21  2155.46  2169.20  2182.07  2182.50
                             2191.37  2191.72  2198.27  2212.12  2216.19
                             2223.22  2233.77  2240.45  2333.16  2391.62
                             2463.64  4353.13  4361.35  4385.76  4393.57
                             4401.59  4410.31  4463.33  4475.27  4478.47
                             4502.39  4511.04  4515.13  4529.54  4533.67
                             4594.89  4612.54  4642.54  4665.35  5412.93

 Zero-point correction=                           0.310917 (Hartree/Particle)
 Thermal correction to Energy=                    0.330316
 Thermal correction to Enthalpy=                  0.331260
 Thermal correction to Gibbs Free Energy=         0.262079
 Sum of electronic and zero-point Energies=           -862.127665
 Sum of electronic and thermal Energies=              -862.108266
 Sum of electronic and thermal Enthalpies=            -862.107322
 Sum of electronic and thermal Free Energies=         -862.176504

                     E (Thermal)             CV                S
                      KCal/Mol        Cal/Mol-Kelvin    Cal/Mol-Kelvin
 Total                  207.277             71.243            145.606
 Electronic               0.000              0.000              0.000
 Translational            0.889              2.981             42.486
 Rotational               0.889              2.981             33.640
 Vibrational            205.499             65.282             69.479
 Vibration     1          0.593              1.986              6.804
 Vibration     2          0.594              1.983              5.657
 Vibration     3          0.595              1.979              5.008
 Vibration     4          0.597              1.973              4.443
 Vibration     5          0.603              1.952              3.545
 Vibration     6          0.609              1.932              3.084
 Vibration     7          0.610              1.930              3.059
 Vibration     8          0.615              1.913              2.801
 Vibration     9          0.616              1.908              2.742
 Vibration    10          0.620              1.897              2.613
 Vibration    11          0.621              1.892              2.557
 Vibration    12          0.629              1.869              2.345
 Vibration    13          0.639              1.836              2.108
 Vibration    14          0.640              1.834              2.095
 Vibration    15          0.664              1.757              1.709
 Vibration    16          0.677              1.718              1.561
 Vibration    17          0.688              1.688              1.460
 Vibration    18          0.703              1.642              1.328
 Vibration    19          0.710              1.624              1.281
 Vibration    20          0.731              1.565              1.144
 Vibration    21          0.743              1.533              1.078
 Vibration    22          0.752              1.508              1.030
 Vibration    23          0.755              1.500              1.015
 Vibration    24          0.763              1.477              0.975
 Vibration    25          0.794              1.399              0.850
 Vibration    26          0.828              1.314              0.734
 Vibration    27          0.847              1.269              0.680
 Vibration    28          0.872              1.212              0.616
 Vibration    29          0.890              1.174              0.577
 Vibration    30          0.958              1.032              0.450

 Optimization completed.
    -- Stationary point found.
 Normal termination of Gaussian 16 at Fri Dec 11 23:59:16 2020.

 ----------------------------------------------------------------------
 # B3LYP/6-311++G(d,p) empiricaldispersion=gd3bj scf=xqc pop=npa geom=c
 heck
 ----------------------------------------------------------------------

 ---------------------------------------
 CID_113382797_JID_8905_Energie_neutraal
 ---------------------------------------
 Structure from the checkpoint file:  "JID_8905.chk"
 Charge =  0 Multiplicity = 1

 SCF Done:  E(RB3LYP) =  -862.688261776     A.U. after   15 cycles
 Normal termination of Gaussian 16 at Sat Dec 12 00:06:04 2020.

 ----------------------------------------------------------------------
 # B3LYP/6-311++G(d,p) empiricaldispersion=gd3bj scf=xqc pop=npa geom=c
 heck
 ----------------------------------------------------------------------

 -------------------------------------
 CID_113382797_JID_8905_Energie_kation
 -------------------------------------
 Structure from the checkpoint file:  "JID_8905.chk"
 Charge =  1 Multiplicity = 2

 SCF Done:  E(UB3LYP) =  -862.400940854     A.U. after   27 cycles
 Normal termination of Gaussian 16 at Sat Dec 12 00:23:30 2020.
 Gaussian 16:  ES64L-G16RevA.03 25-Dec-2016

 ----------------------------------------------------------------------
 # B3LYP/6-311++G(d,p) empiricaldispersion=gd3bj scf=xqc pop=npa geom=c
 heck
 ----------------------------------------------------------------------

 ------------------------------------
 CID_113382797_JID_8905_Energie_anion
 ------------------------------------
 Structure from the checkpoint file:  "JID_8905.chk"
 Charge = -1 Multiplicity = 2

                         Standard orientation:
 ---------------------------------------------------------------------
 Center     Atomic      Atomic             Coordinates (Angstroms)
 Number     Number       Type             X           Y           Z
 ---------------------------------------------------------------------
      1          6           0        4.338053   -1.817548   -0.408853
      2          6           0        3.922991   -0.424084   -0.882356
      3          6           0        2.416016   -0.294999   -1.079993
      4          8           0        1.756886   -0.525571    0.175432
      5          6           0        0.384984   -0.439497    0.137590
      6          6           0       -0.281462    0.772009   -0.140399
      7          6           0       -1.670354    0.797422   -0.172601
      8          6           0       -2.431556   -0.354582    0.086559
      9          6           0       -1.755445   -1.543349    0.396979
     10          6           0       -0.362770   -1.580391    0.415417
     11          6           0       -3.913617   -0.309230    0.048892
     12          7           0       -4.439118    0.816544   -0.289994
     13          8           0       -5.842801    0.785031   -0.303910
     14          6           0       -4.705461   -1.543087    0.395361
     15          8           0        0.384257    1.937540   -0.425739
     16          6           0        1.329228    2.403176    0.547877
     17          8           0        4.436959    0.646864   -0.086553
     18          6           0        4.439907    0.466224    1.323287
     19          1           0        3.840261   -2.092362    0.524434
     20          1           0        5.421670   -1.868959   -0.264405
     21          1           0        4.059967   -2.557568   -1.166984
     22          1           0        4.365189   -0.248629   -1.871978
     23          1           0        2.171453    0.702968   -1.455812
     24          1           0        2.069229   -1.038432   -1.812441
     25          1           0       -2.164317    1.735424   -0.394460
     26          1           0       -2.307014   -2.451365    0.611656
     27          1           0        0.170975   -2.499650    0.635471
     28          1           0       -6.056098    1.691574   -0.572749
     29          1           0       -4.477284   -2.354568   -0.305437
     30          1           0       -4.445678   -1.895671    1.399752
     31          1           0       -5.774164   -1.339667    0.358310
     32          1           0        1.026082    2.105773    1.557585
     33          1           0        2.334801    2.028390    0.339199
     34          1           0        1.325529    3.493844    0.475254
     35          1           0        3.442708    0.244659    1.716933
     36          1           0        5.132352   -0.327882    1.633905
     37          1           0        4.792676    1.413011    1.741321
 ---------------------------------------------------------------------

 SCF Done:  E(UB3LYP) =  -862.682823655     A.U. after   33 cycles
 SCF Done:  E(UB3LYP) =  -862.682823655     a.u. after    1 cycles

 The electronic state is 2-A.
 Alpha  occ. eigenvalues --  -19.04449 -19.03202 -19.03108 -19.02657 -14.21270
 Alpha  occ. eigenvalues --  -10.12900 -10.11566 -10.11177 -10.10892 -10.10711
 Alpha  occ. eigenvalues --  -10.09638 -10.07613 -10.06664 -10.05903 -10.05186
 Alpha  occ. eigenvalues --  -10.04987 -10.04919 -10.03951  -0.96203  -0.95738
 Alpha  occ. eigenvalues --   -0.93994  -0.92916  -0.75554  -0.72204  -0.68704
 Alpha  occ. eigenvalues --   -0.64046  -0.62757  -0.60956  -0.60065  -0.58336
 Alpha  occ. eigenvalues --   -0.56946  -0.50408  -0.49094  -0.47443  -0.44265
 Alpha  occ. eigenvalues --   -0.42667  -0.39985  -0.38957  -0.38324  -0.37792
 Alpha  occ. eigenvalues --   -0.37176  -0.36473  -0.35522  -0.35376  -0.33238
 Alpha  occ. eigenvalues --   -0.32542  -0.32347  -0.32115  -0.31129  -0.30716
 Alpha  occ. eigenvalues --   -0.29848  -0.29055  -0.27895  -0.27695  -0.26907
 Alpha  occ. eigenvalues --   -0.26595  -0.25585  -0.24702  -0.23744  -0.22987
 Alpha  occ. eigenvalues --   -0.21488  -0.19683  -0.16772  -0.16189  -0.15786
 Alpha  occ. eigenvalues --   -0.15225  -0.12184  -0.10314   0.04493
 Alpha virt. eigenvalues --    0.05929   0.07282   0.07515   0.07962   0.08577
 Alpha virt. eigenvalues --    0.09182   0.09777   0.10414   0.10827   0.10970
 Alpha virt. eigenvalues --    0.11064   0.11555   0.12100   0.12741   0.13038

  Beta  occ. eigenvalues --  -19.04387 -19.03207 -19.03108 -19.02657 -14.20836
  Beta  occ. eigenvalues --  -10.12890 -10.11537 -10.11169 -10.10867 -10.10763
  Beta  occ. eigenvalues --  -10.09401 -10.07529 -10.06637 -10.05914 -10.05203
  Beta  occ. eigenvalues --  -10.04895 -10.04819 -10.03842  -0.95909  -0.95686
  Beta  occ. eigenvalues --   -0.93988  -0.92887  -0.75181  -0.71967  -0.68645
  Beta  occ. eigenvalues --   -0.63923  -0.62462  -0.60831  -0.60009  -0.58230
  Beta  occ. eigenvalues --   -0.56855  -0.50082  -0.49020  -0.47348  -0.44153
  Beta  occ. eigenvalues --   -0.42605  -0.39904  -0.38871  -0.38211  -0.37607
  Beta  occ. eigenvalues --   -0.37101  -0.36386  -0.35434  -0.35331  -0.33142
  Beta  occ. eigenvalues --   -0.32302  -0.32095  -0.32069  -0.31040  -0.30629
  Beta  occ. eigenvalues --   -0.29801  -0.28967  -0.27842  -0.26960  -0.26754
  Beta  occ. eigenvalues --   -0.26486  -0.25529  -0.24524  -0.23609  -0.22761
  Beta  occ. eigenvalues --   -0.21436  -0.19485  -0.16685  -0.16035  -0.15092
  Beta  occ. eigenvalues --   -0.14765  -0.11731  -0.09056
  Beta virt. eigenvalues --    0.06535   0.07473   0.07653   0.08146   0.08591
  Beta virt. eigenvalues --    0.09027   0.09274   0.10013   0.10611   0.10897
  Beta virt. eigenvalues --    0.11017   0.11159   0.11588   0.12193   0.12789

 Mulliken charges and spin densities:
               1          2
     1  C    0.864169  -1.400816
     2  C   -1.220680   1.061722
     3  C    0.022627  -0.427773
     4  O   -0.062284  -0.005031
     5  C    0.467217   0.087406
     6  C   -0.276940   0.080719
     7  C   -0.665052   0.165206
     8  C    1.088482  -0.000137
     9  C   -0.663973  -0.014861
    10  C   -0.209182  -0.031919
    11  C   -0.158143  -0.027248
    12  N   -0.458237   0.205461
    13  O   -0.010693   0.012072
    14  C   -0.604683  -0.046048
    15  O   -0.165434   0.007337
    16  C   -0.172910  -0.098153
    17  O   -0.093724  -0.001229
    18  C    0.397868  -0.712922
    19  H    0.025944   0.153199
    20  H   -0.248345   0.411468
    21  H   -0.066914   0.196482
    22  H   -0.201134   0.395238
    23  H    0.232300  -0.004857
    24  H    0.077078   0.063265
    25  H    0.219491  -0.004396
    26  H    0.114478   0.015056
    27  H    0.047161   0.075947
    28  H    0.265472   0.000342
    29  H    0.136078  -0.000538
    30  H    0.091147   0.042933
    31  H    0.168099  -0.002086
    32  H    0.064105   0.063641
    33  H    0.156172  -0.029335
    34  H    0.060408   0.083670
    35  H    0.094469   0.104635
    36  H   -0.230534   0.356543
    37  H   -0.083902   0.225008
 Sum of Mulliken charges =  -1.00000   1.00000

 Dipole moment (field-independent basis, Debye):
    X=             -2.2503    Y=              0.6962    Z=             -0.2330  Tot=              2.3670
 Quadrupole moment (field-independent basis, Debye-Ang):
   XX=           -206.1103   YY=           -129.1902   ZZ=           -128.0909
   XY=              5.8968   XZ=             -1.0507   YZ=              0.3037

 Summary of Natural Population Analysis:

                                       Natural Population
                Natural  -----------------------------------------------
    Atom  No    Charge         Core      Valence    Rydberg      Total
 -----------------------------------------------------------------------
      C    1   -0.30523      0.99964     2.29998    0.00561     3.30523
      C    2    0.05836      0.99954     1.92611    0.01598     2.94164
      C    3   -0.01912      0.99952     2.00825    0.01135     3.01912
      O    4   -0.30113      0.99986     3.29073    0.01054     4.30113
      C    5    0.16060      0.99932     1.82704    0.01304     2.83940
      C    6    0.12185      0.99933     1.86519    0.01363     2.87815
      C    7   -0.07851      0.99949     2.06961    0.00941     3.07851
      C    8   -0.02125      0.99948     2.01003    0.01174     3.02125
      C    9   -0.09722      0.99954     2.08847    0.00921     3.09722
      C   10   -0.12419      0.99953     2.11568    0.00898     3.12419
      C   11    0.10539      0.99959     1.87861    0.01642     2.89461
      N   12   -0.03203      0.99958     2.51896    0.01349     3.53203
      O   13   -0.29592      0.99989     3.28887    0.00715     4.29592
      C   14   -0.31697      0.99964     2.31282    0.00451     3.31697
      O   15   -0.29234      0.99986     3.28299    0.00949     4.29234
      C   16   -0.10026      0.99959     2.09241    0.00827     3.10026
      O   17   -0.30675      0.99989     3.29648    0.01038     4.30675
      C   18   -0.10661      0.99960     2.09661    0.01040     3.10661
      H   19    0.10601      0.00000     0.39261    0.00137     0.39399
      H   20    0.10265      0.00000     0.39624    0.00111     0.39735
      H   21    0.10367      0.00000     0.39528    0.00105     0.39633
      H   22    0.09009      0.00000     0.40865    0.00126     0.40991
      H   23    0.09328      0.00000     0.40511    0.00161     0.40672
      H   24    0.08509      0.00000     0.41373    0.00118     0.41491
      H   25    0.11090      0.00000     0.38681    0.00228     0.38910
      H   26    0.09593      0.00000     0.40313    0.00094     0.40407
      H   27    0.10047      0.00000     0.39847    0.00106     0.39953
      H   28    0.22863      0.00000     0.26897    0.00240     0.27137
      H   29    0.10291      0.00000     0.39604    0.00105     0.39709
      H   30    0.10328      0.00000     0.39542    0.00130     0.39672
      H   31    0.11218      0.00000     0.38694    0.00087     0.38782
      H   32    0.08463      0.00000     0.41393    0.00144     0.41537
      H   33    0.08974      0.00000     0.40816    0.00210     0.41026
      H   34    0.08333      0.00000     0.41556    0.00111     0.41667
      H   35    0.09131      0.00000     0.40725    0.00144     0.40869
      H   36    0.07985      0.00000     0.41885    0.00130     0.42015
      H   37    0.08736      0.00000     0.41164    0.00100     0.41264
 =======================================================================
   * Total *    0.00000     17.99290    49.79162    0.21547    68.00000

 Normal termination of Gaussian 16 at Sat Dec 12 00:44:15 2020.
