 Gaussian 16, Revision A.03,

 -----------------------------------------------------------
 # opt freq B3LYP/6-31G(d) empiricaldispersion=gd3bj scf=xqc
 -----------------------------------------------------------

 ------------------------------
 CID_54046547_JID_4468_neutraal
 ------------------------------
 Symbolic Z-matrix:
 Charge =  0 Multiplicity = 1

 SCF Done:  E(RB3LYP) =  -763.450646443     A.U. after   14 cycles
 SCF Done:  E(RB3LYP) =  -763.456467097     A.U. after   13 cycles
 SCF Done:  E(RB3LYP) =  -763.457133280     A.U. after   13 cycles
 SCF Done:  E(RB3LYP) =  -763.457813488     A.U. after   13 cycles
 SCF Done:  E(RB3LYP) =  -763.458373787     A.U. after   12 cycles
 SCF Done:  E(RB3LYP) =  -763.458463436     A.U. after   12 cycles
 SCF Done:  E(RB3LYP) =  -763.458416947     A.U. after   12 cycles
 SCF Done:  E(RB3LYP) =  -763.458601594     A.U. after   12 cycles
 SCF Done:  E(RB3LYP) =  -763.458613423     A.U. after   11 cycles
 SCF Done:  E(RB3LYP) =  -763.458615773     A.U. after    9 cycles
 SCF Done:  E(RB3LYP) =  -763.458616456     A.U. after    8 cycles
 SCF Done:  E(RB3LYP) =  -763.458616670     A.U. after    8 cycles
 SCF Done:  E(RB3LYP) =  -763.458616777     A.U. after    8 cycles
 Optimization completed.
    -- Stationary point found.

 1\1\GINC-NODE226\FOpt\RB3LYP\6-31G(d)\C8H12O6\VSC10255\10-Dec-2020\0\\
 # opt freq B3LYP/6-31G(d) empiricaldispersion=gd3bj scf=xqc\\CID_54046
 547_JID_4468_neutraal\\0,1\C,1.262538067,0.054408006,-0.1173670307\C,0
 .4465665608,1.0701339286,0.7096213597\C,0.6419515095,2.5233521805,0.30
 1895865\O,0.2198650401,2.6608355826,-1.0423957165\O,-0.0517290552,3.41
 52588094,1.1469018731\C,0.7768891105,-0.0968031903,-1.5311511267\C,-0.
 2123398155,-0.8882374438,-1.9861479846\C,-0.5721375022,-0.9260566192,-
 3.4528336494\C,-0.3036414527,-2.2452852329,-4.1590898739\O,-0.89565928

 Normal termination of Gaussian 16 at Thu Dec 10 09:51:26 2020.

 --------------------------------------------------------------------
 #N Geom=AllCheck Guess=TCheck SCRF=Check GenChk RB3LYP/6-31G(d) Freq
 --------------------------------------------------------------------

 Structure from the checkpoint file:  "JID_4468.chk"
 ------------------------------
 CID_54046547_JID_4468_neutraal
 ------------------------------
 Charge =  0 Multiplicity = 1

 SCF Done:  E(RB3LYP) =  -763.458616777     A.U. after    1 cycles

  Exact polarizability: 128.970  -1.618  93.334  14.332  -1.152  84.566
 Approx polarizability: 168.066  -0.604 140.453  31.950  -2.881 132.171

                      1                      2                      3
                      A                      A                      A
 Frequencies --     30.1753                43.5130                47.8305
 Red. masses --      6.0008                 5.7506                 8.6939
 Frc consts  --      0.0032                 0.0064                 0.0117
 IR Inten    --      0.2551                 0.4535                 1.2166

                      4                      5                      6
                      A                      A                      A
 Frequencies --     52.0260                64.2763                75.6991
 Red. masses --      6.3746                 5.6171                10.9941
 Frc consts  --      0.0102                 0.0137                 0.0371
 IR Inten    --      0.0802                 0.0546                 2.6987

                      7                      8                      9
                      A                      A                      A
 Frequencies --    118.9094               166.8567               196.4347
 Red. masses --      6.4908                 3.2904                 5.9762
 Frc consts  --      0.0541                 0.0540                 0.1359
 IR Inten    --      0.2213                 0.2807                 0.6837

                     10                     11                     12
                      A                      A                      A
 Frequencies --    280.2189               306.7829               319.9212
 Red. masses --      3.0361                 3.2539                 3.4952
 Frc consts  --      0.1405                 0.1804                 0.2108
 IR Inten    --      4.0011                 1.1210                 4.8859

                     13                     14                     15
                      A                      A                      A
 Frequencies --    361.9967               385.1910               391.8705
 Red. masses --      1.3729                 2.4163                 1.5736
 Frc consts  --      0.1060                 0.2112                 0.1424
 IR Inten    --     83.2246                19.2920                41.5209

                     16                     17                     18
                      A                      A                      A
 Frequencies --    408.8130               443.0113               488.0707
 Red. masses --      4.0831                 3.2373                 1.9212
 Frc consts  --      0.4021                 0.3743                 0.2696
 IR Inten    --      2.1307                 7.8342                50.8547

                     19                     20                     21
                      A                      A                      A
 Frequencies --    505.8323               526.2996               545.2034
 Red. masses --      2.4949                 2.1227                 3.4560
 Frc consts  --      0.3761                 0.3464                 0.6053
 IR Inten    --      5.2468                12.8227                34.5179

                     22                     23                     24
                      A                      A                      A
 Frequencies --    595.8950               613.8932               630.7708
 Red. masses --      3.0390                 3.1859                 1.3215
 Frc consts  --      0.6358                 0.7074                 0.3098
 IR Inten    --    112.6294                19.9260                52.4936

                     25                     26                     27
                      A                      A                      A
 Frequencies --    678.3164               714.8039               768.2427
 Red. masses --      1.9272                 2.2001                 4.0444
 Frc consts  --      0.5224                 0.6623                 1.4064
 IR Inten    --    102.3124                13.9376                34.3789

                     28                     29                     30
                      A                      A                      A
 Frequencies --    811.0389               852.9685               863.3350
 Red. masses --      5.4122                 2.7105                 2.4047
 Frc consts  --      2.0975                 1.1619                 1.0560
 IR Inten    --     34.2619                18.4189                 3.4753

                     31                     32                     33
                      A                      A                      A
 Frequencies --    885.9283               914.2792               976.5842
 Red. masses --      2.3677                 1.8649                 2.0549
 Frc consts  --      1.0949                 0.9185                 1.1547
 IR Inten    --      6.5988                12.2539                36.0226

                     34                     35                     36
                      A                      A                      A
 Frequencies --    992.8576              1039.2670              1068.5725
 Red. masses --      2.6100                 1.8137                 4.2281
 Frc consts  --      1.5159                 1.1542                 2.8445
 IR Inten    --     13.4250                22.0245               193.9760

                     37                     38                     39
                      A                      A                      A
 Frequencies --   1106.3260              1119.7891              1146.0653
 Red. masses --      2.8834                 3.3751                 1.8452
 Frc consts  --      2.0793                 2.4935                 1.4279
 IR Inten    --     69.3070                60.3266                32.6856

                     40                     41                     42
                      A                      A                      A
 Frequencies --   1175.2342              1193.3032              1218.7270
 Red. masses --      2.0261                 1.9124                 1.6598
 Frc consts  --      1.6488                 1.6045                 1.4525
 IR Inten    --    310.1175               220.2447                16.5097

                     43                     44                     45
                      A                      A                      A
 Frequencies --   1250.9728              1274.6641              1307.8789
 Red. masses --      1.1966                 1.2571                 1.2139
 Frc consts  --      1.1033                 1.2034                 1.2234
 IR Inten    --     24.4657                10.8930                14.2348

                     46                     47                     48
                      A                      A                      A
 Frequencies --   1327.3988              1343.9081              1355.3422
 Red. masses --      1.3297                 1.5248                 1.6518
 Frc consts  --      1.3804                 1.6226                 1.7877
 IR Inten    --     23.0187                15.9208                 4.0720

                     49                     50                     51
                      A                      A                      A
 Frequencies --   1377.5995              1381.7009              1386.8212
 Red. masses --      1.5634                 2.0189                 1.3870
 Frc consts  --      1.7481                 2.2708                 1.5717
 IR Inten    --     21.2392                44.0548                 3.1052

                     52                     53                     54
                      A                      A                      A
 Frequencies --   1436.0972              1442.3624              1482.5279
 Red. masses --      1.7130                 1.2438                 1.5162
 Frc consts  --      2.0815                 1.5246                 1.9634
 IR Inten    --     64.6078                22.3801                72.8855

                     55                     56                     57
                      A                      A                      A
 Frequencies --   1486.6130              1508.7580              1512.4552
 Red. masses --      1.1078                 1.0958                 1.1306
 Frc consts  --      1.4424                 1.4697                 1.5237
 IR Inten    --     15.4351                 4.0417                14.8939

                     58                     59                     60
                      A                      A                      A
 Frequencies --   1711.7521              1807.9726              1854.8149
 Red. masses --      7.1705                 9.0496                 9.8562
 Frc consts  --     12.3789                17.4287                19.9783
 IR Inten    --     52.3592               206.1190               352.4989

                     61                     62                     63
                      A                      A                      A
 Frequencies --   3034.6960              3050.9607              3067.4008
 Red. masses --      1.0855                 1.0694                 1.0653
 Frc consts  --      5.8897                 5.8652                 5.9057
 IR Inten    --     45.8711                35.8863                10.1835

                     64                     65                     66
                      A                      A                      A
 Frequencies --   3068.8570              3116.2778              3125.2604
 Red. masses --      1.0599                 1.1044                 1.0973
 Frc consts  --      5.8810                 6.3188                 6.3149
 IR Inten    --     20.9904                33.1197                 4.0766

                     67                     68                     69
                      A                      A                      A
 Frequencies --   3137.6576              3189.0730              3687.3423
 Red. masses --      1.0933                 1.0895                 1.0639
 Frc consts  --      6.3415                 6.5281                 8.5224
 IR Inten    --      2.8554                12.1515                49.2858

                     70                     71                     72
                      A                      A                      A
 Frequencies --   3700.3124              3709.0978              3730.8379
 Red. masses --      1.0642                 1.0651                 1.0655
 Frc consts  --      8.5851                 8.6335                 8.7384
 IR Inten    --     71.6753                10.8477                19.1331

 - Thermochemistry -
 -------------------
 Temperature   298.150 Kelvin.  Pressure   1.00000 Atm.
 Atom     1 has atomic number  6 and mass  12.00000

 Molecular mass:   204.06339 amu.
 Principal axes and moments of inertia in atomic units:
                           1         2         3
     Eigenvalues --  1387.703345609.005516164.58394
           X            1.00000  -0.00186   0.00210
           Y            0.00185   1.00000   0.00229
           Z           -0.00211  -0.00228   1.00000
 This molecule is an asymmetric top.
 Rotational symmetry number  1.
 Warning -- assumption of classical behavior for rotation
           may cause significant error
 Rotational temperatures (Kelvin)      0.06242     0.01544     0.01405
 Rotational constants (GHZ):           1.30052     0.32176     0.29276
 Zero-point vibrational energy     544256.3 (Joules/Mol)
                                  130.08037 (Kcal/Mol)
 Warning -- explicit consideration of  23 degrees of freedom as
           vibrations may cause significant error
 Vibrational temperatures:     43.42    62.61    68.82    74.85    92.48
          (Kelvin)            108.91   171.08   240.07   282.63   403.17
                              441.39   460.30   520.83   554.20   563.81
                              588.19   637.39   702.22   727.78   757.23
                              784.43   857.36   883.26   907.54   975.95
                             1028.44  1105.33  1166.90  1227.23  1242.15
                             1274.65  1315.44  1405.09  1428.50  1495.27
                             1537.44  1591.76  1611.13  1648.93  1690.90
                             1716.90  1753.48  1799.87  1833.96  1881.75
                             1909.83  1933.58  1950.04  1982.06  1987.96
                             1995.33  2066.22  2075.24  2133.03  2138.90
                             2170.77  2176.09  2462.83  2601.27  2668.66
                             4366.25  4389.65  4413.31  4415.40  4483.63
                             4496.55  4514.39  4588.36  5305.26  5323.92
                             5336.56  5367.84

 Zero-point correction=                           0.207296 (Hartree/Particle)
 Thermal correction to Energy=                    0.222125
 Thermal correction to Enthalpy=                  0.223069
 Thermal correction to Gibbs Free Energy=         0.163112
 Sum of electronic and zero-point Energies=           -763.251321
 Sum of electronic and thermal Energies=              -763.236492
 Sum of electronic and thermal Enthalpies=            -763.235548
 Sum of electronic and thermal Free Energies=         -763.295505

                     E (Thermal)             CV                S
                      KCal/Mol        Cal/Mol-Kelvin    Cal/Mol-Kelvin
 Total                  139.385             53.457            126.191
 Electronic               0.000              0.000              0.000
 Translational            0.889              2.981             41.844
 Rotational               0.889              2.981             32.240
 Vibrational            137.608             47.495             52.107
 Vibration     1          0.594              1.984              5.818
 Vibration     2          0.595              1.980              5.092
 Vibration     3          0.595              1.978              4.905
 Vibration     4          0.596              1.977              4.739
 Vibration     5          0.597              1.971              4.321
 Vibration     6          0.599              1.965              3.999
 Vibration     7          0.609              1.934              3.118
 Vibration     8          0.624              1.883              2.471
 Vibration     9          0.636              1.845              2.166
 Vibration    10          0.680              1.710              1.532
 Vibration    11          0.697              1.661              1.380
 Vibration    12          0.706              1.635              1.311
 Vibration    13          0.736              1.551              1.114
 Vibration    14          0.754              1.502              1.019
 Vibration    15          0.759              1.488              0.993
 Vibration    16          0.773              1.451              0.931
 Vibration    17          0.803              1.376              0.817
 Vibration    18          0.844              1.276              0.689
 Vibration    19          0.861              1.237              0.644
 Vibration    20          0.881              1.192              0.596
 Vibration    21          0.900              1.150              0.554
 Vibration    22          0.954              1.041              0.457
 Vibration    23          0.973              1.002              0.426

                           ! Non-Optimized Parameters !

 1\1\GINC-NODE226\Freq\RB3LYP\6-31G(d)\C8H12O6\VSC10255\10-Dec-2020\0\\
 #N Geom=AllCheck Guess=TCheck SCRF=Check GenChk RB3LYP/6-31G(d) Freq\\
 CID_54046547_JID_4468_neutraal\\0,1\C,1.262538067,0.054408006,-0.11736
 70307\C,0.4465665608,1.0701339286,0.7096213597\C,0.6419515095,2.523352
 1805,0.301895865\O,0.2198650401,2.6608355826,-1.0423957165\O,-0.051729
 0552,3.4152588094,1.1469018731\C,0.7768891105,-0.0968031903,-1.5311511
 267\C,-0.2123398155,-0.8882374438,-1.9861479846\C,-0.5721375022,-0.926
 0566192,-3.4528336494\C,-0.3036414527,-2.2452852329,-4.1590898739\O,-0

 Normal termination of Gaussian 16 at Thu Dec 10 09:57:48 2020.

 ----------------------------------------------------------------------
 # B3LYP/6-311++G(d,p) empiricaldispersion=gd3bj scf=xqc pop=npa geom=c
 heck
 ----------------------------------------------------------------------

 --------------------------------------
 CID_54046547_JID_4468_Energie_neutraal
 --------------------------------------
 Structure from the checkpoint file:  "JID_4468.chk"
 Charge =  0 Multiplicity = 1

 SCF Done:  E(RB3LYP) =  -763.722497794     A.U. after   15 cycles
 Normal termination of Gaussian 16 at Thu Dec 10 10:00:44 2020.

 ----------------------------------------------------------------------
 # B3LYP/6-311++G(d,p) empiricaldispersion=gd3bj scf=xqc pop=npa geom=c
 heck
 ----------------------------------------------------------------------

 ------------------------------------
 CID_54046547_JID_4468_Energie_kation
 ------------------------------------
 Structure from the checkpoint file:  "JID_4468.chk"
 Charge =  1 Multiplicity = 2

 SCF Done:  E(UB3LYP) =  -763.387058525     A.U. after   25 cycles
 Normal termination of Gaussian 16 at Thu Dec 10 10:08:27 2020.
 Gaussian 16:  ES64L-G16RevA.03 25-Dec-2016

 -----------------------------------
 CID_54046547_JID_4468_Energie_anion
 -----------------------------------
 Structure from the checkpoint file:  "JID_4468.chk"
 Charge = -1 Multiplicity = 2

                         Standard orientation:
 ---------------------------------------------------------------------
 Center     Atomic      Atomic             Coordinates (Angstroms)
 Number     Number       Type             X           Y           Z
 ---------------------------------------------------------------------
      1          6           0        1.405574    0.343018    1.386322
      2          6           0        2.584442    0.653391    0.440089
      3          6           0        3.454257   -0.546842    0.094950
      4          8           0        2.642206   -1.499699   -0.565970
      5          8           0        4.568328   -0.192269   -0.694890
      6          6           0        0.321388   -0.476655    0.745866
      7          6           0       -0.710055   -0.044052   -0.003095
      8          6           0       -1.723904   -1.009456   -0.570682
      9          6           0       -3.134567   -0.876553   -0.019666
     10          8           0       -4.139778   -1.196129   -0.610925
     11          8           0       -3.151744   -0.404476    1.251119
     12          6           0       -0.898547    1.393127   -0.305423
     13          8           0       -0.143284    2.309678   -0.034107
     14          8           0       -2.065189    1.616516   -0.970687
     15          1           0        0.995898    1.295626    1.726238
     16          1           0        1.784152   -0.197771    2.263045
     17          1           0        2.194776    1.093884   -0.485037
     18          1           0        3.233310    1.400082    0.909900
     19          1           0        3.896237   -0.978148    1.004323
     20          1           0        3.222626   -2.242117   -0.800419
     21          1           0        4.217550    0.246987   -1.488561
     22          1           0        0.391669   -1.550811    0.895989
     23          1           0       -1.813727   -0.917544   -1.656433
     24          1           0       -1.400483   -2.036635   -0.362364
     25          1           0       -4.092493   -0.377223    1.508072
     26          1           0       -2.105358    2.578832   -1.121228
 ---------------------------------------------------------------------

 SCF Done:  E(UB3LYP) =  -763.723856326     A.U. after   33 cycles
 SCF Done:  E(UB3LYP) =  -763.723856326     a.u. after    1 cycles

 The electronic state is 2-A.
 Alpha  occ. eigenvalues --  -19.06461 -19.02738 -19.01871 -19.00925 -19.00631
 Alpha  occ. eigenvalues --  -18.95191 -10.19532 -10.15048 -10.13688 -10.06552
 Alpha  occ. eigenvalues --  -10.04236 -10.03822 -10.02950 -10.02102  -1.00382
 Alpha  occ. eigenvalues --   -0.96271  -0.95201  -0.91406  -0.88264  -0.86644
 Alpha  occ. eigenvalues --   -0.69062  -0.65884  -0.60098  -0.55415  -0.51484
 Alpha  occ. eigenvalues --   -0.50219  -0.47700  -0.43778  -0.40565  -0.38573
 Alpha  occ. eigenvalues --   -0.37627  -0.36716  -0.36268  -0.33716  -0.33048
 Alpha  occ. eigenvalues --   -0.32602  -0.30976  -0.30650  -0.29103  -0.28757
 Alpha  occ. eigenvalues --   -0.28546  -0.27558  -0.25807  -0.24966  -0.23024
 Alpha  occ. eigenvalues --   -0.21971  -0.21752  -0.20252  -0.19974  -0.18642
 Alpha  occ. eigenvalues --   -0.17651  -0.16766  -0.13203  -0.11923   0.04826
 Alpha virt. eigenvalues --    0.07560   0.07969   0.08970   0.09475   0.09830
 Alpha virt. eigenvalues --    0.10457   0.11292   0.11933   0.12318   0.13142
 Alpha virt. eigenvalues --    0.14439   0.14681   0.15408   0.15927   0.16930

  Beta  occ. eigenvalues --  -19.06449 -19.02671 -19.01850 -19.00879 -19.00623
  Beta  occ. eigenvalues --  -18.94958 -10.19511 -10.15034 -10.13426 -10.06557
  Beta  occ. eigenvalues --  -10.04171 -10.03857 -10.02904 -10.01655  -1.00356
  Beta  occ. eigenvalues --   -0.96001  -0.95145  -0.91385  -0.88189  -0.86284
  Beta  occ. eigenvalues --   -0.68712  -0.65750  -0.59759  -0.55145  -0.51055
  Beta  occ. eigenvalues --   -0.50153  -0.47622  -0.43651  -0.40201  -0.38520
  Beta  occ. eigenvalues --   -0.37549  -0.36646  -0.36064  -0.33507  -0.32803
  Beta  occ. eigenvalues --   -0.32446  -0.30776  -0.30116  -0.28950  -0.28621
  Beta  occ. eigenvalues --   -0.28279  -0.27397  -0.25579  -0.24782  -0.22849
  Beta  occ. eigenvalues --   -0.21900  -0.21589  -0.20120  -0.19846  -0.17871
  Beta  occ. eigenvalues --   -0.17488  -0.16656  -0.12938  -0.10373
  Beta virt. eigenvalues --    0.07720   0.08056   0.09128   0.09678   0.09967
  Beta virt. eigenvalues --    0.10499   0.11092   0.11413   0.12230   0.12548
  Beta virt. eigenvalues --    0.13122   0.14334   0.14694   0.15367   0.15920

 Mulliken charges and spin densities:
               1          2
     1  C   -0.059153  -0.228706
     2  C   -0.934647   0.680482
     3  C    1.065079  -1.499548
     4  O   -0.263709   0.038556
     5  O   -0.293944   0.051538
     6  C   -0.069611   0.301820
     7  C    0.137579   0.161076
     8  C   -0.373841  -0.108526
     9  C   -0.089733   0.003226
    10  O   -0.306302   0.004649
    11  O   -0.134017   0.000963
    12  C   -0.257573   0.185694
    13  O   -0.380469   0.082081
    14  O   -0.193394   0.015595
    15  H    0.186221   0.019209
    16  H    0.069971   0.040667
    17  H    0.207917  -0.004188
    18  H   -0.084636   0.236136
    19  H   -0.154913   0.324568
    20  H   -0.166457   0.435957
    21  H    0.050046   0.199731
    22  H    0.185843  -0.028691
    23  H    0.236108   0.012001
    24  H    0.087416   0.073288
    25  H    0.269252   0.002991
    26  H    0.266967  -0.000570
 Sum of Mulliken charges =  -1.00000   1.00000

 Dipole moment (field-independent basis, Debye):
    X=             -3.9191    Y=              0.8884    Z=              1.4667  Tot=              4.2779
 Quadrupole moment (field-independent basis, Debye-Ang):
   XX=           -143.0871   YY=           -105.7936   ZZ=            -93.9447
   XY=             -0.4600   XZ=             -6.0559   YZ=             -6.2727

 Summary of Natural Population Analysis:

                                       Natural Population
                Natural  -----------------------------------------------
    Atom  No    Charge         Core      Valence    Rydberg      Total
 -----------------------------------------------------------------------
      C    1   -0.21718      0.99961     2.20680    0.01077     3.21718
      C    2   -0.19703      0.99959     2.18646    0.01097     3.19703
      C    3    0.21252      0.99962     1.76870    0.01916     2.78748
      O    4   -0.36907      0.99989     3.36203    0.00715     4.36907
      O    5   -0.37382      0.99990     3.36756    0.00637     4.37382
      C    6    0.05867      0.99950     1.93129    0.01054     2.94133
      C    7   -0.09554      0.99941     2.08395    0.01218     3.09554
      C    8   -0.24205      0.99955     2.23177    0.01072     3.24205
      C    9    0.41918      0.99973     1.55635    0.02474     2.58082
      O   10   -0.31955      0.99986     3.31257    0.00711     4.31955
      O   11   -0.33904      0.99987     3.33314    0.00603     4.33904
      C   12    0.42357      0.99964     1.55215    0.02464     2.57643
      O   13   -0.31446      0.99987     3.30826    0.00633     4.31446
      O   14   -0.35618      0.99988     3.34962    0.00668     4.35618
      H   15    0.11711      0.00000     0.38164    0.00125     0.38289
      H   16    0.09197      0.00000     0.40694    0.00109     0.40803
      H   17    0.10551      0.00000     0.39288    0.00161     0.39449
      H   18    0.09912      0.00000     0.39981    0.00107     0.40088
      H   19    0.06502      0.00000     0.43304    0.00194     0.43498
      H   20    0.23140      0.00000     0.26101    0.00758     0.26860
      H   21    0.22735      0.00000     0.26950    0.00316     0.27265
      H   22    0.08372      0.00000     0.41519    0.00109     0.41628
      H   23    0.11357      0.00000     0.38520    0.00123     0.38643
      H   24    0.11372      0.00000     0.38503    0.00125     0.38628
      H   25    0.23089      0.00000     0.26484    0.00428     0.26911
      H   26    0.23058      0.00000     0.26503    0.00439     0.26942
 =======================================================================
   * Total *    0.00000     13.99593    39.81074    0.19334    54.00000

 Normal termination of Gaussian 16 at Thu Dec 10 10:17:55 2020.
