 Gaussian 16, Revision A.03,

 -----------------------------------------------------------
 # opt freq B3LYP/6-31G(d) empiricaldispersion=gd3bj scf=xqc
 -----------------------------------------------------------

 -------------------------------
 CID_137057835_JID_2627_neutraal
 -------------------------------
 Symbolic Z-matrix:
 Charge =  0 Multiplicity = 1

 SCF Done:  E(RB3LYP) =  -532.505604770     A.U. after   15 cycles
 SCF Done:  E(RB3LYP) =  -532.508454717     A.U. after   13 cycles
 SCF Done:  E(RB3LYP) =  -532.508881445     A.U. after   13 cycles
 SCF Done:  E(RB3LYP) =  -532.509041757     A.U. after   12 cycles
 SCF Done:  E(RB3LYP) =  -532.509135201     A.U. after   12 cycles
 SCF Done:  E(RB3LYP) =  -532.509184099     A.U. after   12 cycles
 SCF Done:  E(RB3LYP) =  -532.509215440     A.U. after   12 cycles
 SCF Done:  E(RB3LYP) =  -532.509239310     A.U. after   11 cycles
 SCF Done:  E(RB3LYP) =  -532.509244110     A.U. after   11 cycles
 SCF Done:  E(RB3LYP) =  -532.509245627     A.U. after   10 cycles
 SCF Done:  E(RB3LYP) =  -532.509245696     A.U. after    8 cycles
 Optimization completed.
    -- Stationary point found.
 Normal termination of Gaussian 16 at Wed Dec  9 17:42:16 2020.

 --------------------------------------------------------------------
 #N Geom=AllCheck Guess=TCheck SCRF=Check GenChk RB3LYP/6-31G(d) Freq
 --------------------------------------------------------------------

 Structure from the checkpoint file:  "JID_2627.chk"
 -------------------------------
 CID_137057835_JID_2627_neutraal
 -------------------------------
 Charge =  0 Multiplicity = 1

 SCF Done:  E(RB3LYP) =  -532.509245696     A.U. after    1 cycles

  Exact polarizability: 154.613   4.212 124.291  -0.802   1.734  44.603
 Approx polarizability: 240.379  22.267 215.132  -3.079   4.880  68.579

                      1                      2                      3
                      A                      A                      A
 Frequencies --     29.8984               102.1260               126.5062
 Red. masses --      3.9147                 7.2716                 8.5128
 Frc consts  --      0.0021                 0.0447                 0.0803
 IR Inten    --      1.7598                 2.5862                 2.2017

                      4                      5                      6
                      A                      A                      A
 Frequencies --    136.0757               215.0519               259.2832
 Red. masses --      4.3445                 1.1753                 3.1992
 Frc consts  --      0.0474                 0.0320                 0.1267
 IR Inten    --      0.6012                 0.8978                 7.6164

                      7                      8                      9
                      A                      A                      A
 Frequencies --    274.1877               352.3692               372.3120
 Red. masses --      6.1089                 3.3904                 5.8991
 Frc consts  --      0.2706                 0.2480                 0.4818
 IR Inten    --      7.4721                 7.0509                 2.0185

                     10                     11                     12
                      A                      A                      A
 Frequencies --    389.7479               421.1753               426.8275
 Red. masses --      1.1652                 9.9592                 3.3429
 Frc consts  --      0.1043                 1.0409                 0.3588
 IR Inten    --    105.4934                 2.9822                 0.5921

                     13                     14                     15
                      A                      A                      A
 Frequencies --    488.1082               522.6908               553.7347
 Red. masses --      6.0038                 6.2929                 3.2806
 Frc consts  --      0.8428                 1.0130                 0.5927
 IR Inten    --      0.1611                 7.4109                 9.1312

                     16                     17                     18
                      A                      A                      A
 Frequencies --    578.3245               618.5052               639.6952
 Red. masses --      3.8272                 3.7688                 3.8825
 Frc consts  --      0.7542                 0.8495                 0.9361
 IR Inten    --     20.6221                10.6644                 3.4740

                     19                     20                     21
                      A                      A                      A
 Frequencies --    705.4562               736.9664               771.5041
 Red. masses --      6.9523                 3.3021                 5.5602
 Frc consts  --      2.0385                 1.0567                 1.9499
 IR Inten    --      5.0269                 4.4612                12.4641

                     22                     23                     24
                      A                      A                      A
 Frequencies --    814.9487               895.7907               908.6889
 Red. masses --      1.5328                 1.2574                 5.8494
 Frc consts  --      0.5998                 0.5945                 2.8457
 IR Inten    --     36.8771                31.3048                 6.6172

                     25                     26                     27
                      A                      A                      A
 Frequencies --    942.9038               967.4156              1014.4901
 Red. masses --      1.3101                 1.4003                 2.1823
 Frc consts  --      0.6863                 0.7721                 1.3233
 IR Inten    --      2.4300                16.9864                 8.8324

                     28                     29                     30
                      A                      A                      A
 Frequencies --   1082.1840              1091.3769              1141.1616
 Red. masses --      1.9070                 1.5988                 1.6920
 Frc consts  --      1.3159                 1.1220                 1.2982
 IR Inten    --     21.5447                10.1898                66.1220

                     31                     32                     33
                      A                      A                      A
 Frequencies --   1186.5024              1211.2580              1254.0902
 Red. masses --      1.4758                 1.2567                 3.1018
 Frc consts  --      1.2241                 1.0863                 2.8742
 IR Inten    --     70.2600                19.2396                60.5465

                     34                     35                     36
                      A                      A                      A
 Frequencies --   1303.1642              1332.9217              1380.8377
 Red. masses --      3.3544                 1.7934                 2.4704
 Frc consts  --      3.3563                 1.8773                 2.7752
 IR Inten    --     23.3144               113.8805                14.6699

                     37                     38                     39
                      A                      A                      A
 Frequencies --   1394.4746              1435.9364              1465.4996
 Red. masses --      2.2567                 1.3308                 3.2601
 Frc consts  --      2.5855                 1.6167                 4.1252
 IR Inten    --     18.2100                 1.8902               128.8645

                     40                     41                     42
                      A                      A                      A
 Frequencies --   1501.3093              1509.5745              1547.8233
 Red. masses --      1.1054                 1.0856                 2.6848
 Frc consts  --      1.4680                 1.4576                 3.7897
 IR Inten    --     14.6156                21.0295                66.2028

                     43                     44                     45
                      A                      A                      A
 Frequencies --   1640.3619              1658.7148              1703.7327
 Red. masses --      5.7857                 6.0205                 8.4794
 Frc consts  --      9.1724                 9.7595                14.5016
 IR Inten    --      7.7495                68.7365                83.0212

                     46                     47                     48
                      A                      A                      A
 Frequencies --   2350.5794              3064.0965              3137.3103
 Red. masses --     12.6779                 1.0356                 1.1019
 Frc consts  --     41.2714                 5.7285                 6.3904
 IR Inten    --     46.6227                11.4497                13.9914

                     49                     50                     51
                      A                      A                      A
 Frequencies --   3141.4549              3174.7448              3224.6718
 Red. masses --      1.1024                 1.0898                 1.0937
 Frc consts  --      6.4099                 6.4717                 6.7005
 IR Inten    --     13.2763                14.9049                 2.7950

                     52                     53                     54
                      A                      A                      A
 Frequencies --   3243.4396              3437.5435              3745.8812
 Red. masses --      1.0911                 1.0749                 1.0660
 Frc consts  --      6.7627                 7.4838                 8.8124
 IR Inten    --      3.9964                 4.6214                63.9389

 - Thermochemistry -
 -------------------
 Temperature   298.150 Kelvin.  Pressure   1.00000 Atm.
 Atom     1 has atomic number  6 and mass  12.00000

 Molecular mass:   160.06366 amu.
 Principal axes and moments of inertia in atomic units:
                           1         2         3
     Eigenvalues --  1101.891062724.581613784.94761
           X            0.99964  -0.02654   0.00478
           Y            0.02655   0.99965  -0.00214
           Z           -0.00473   0.00226   0.99999
 This molecule is an asymmetric top.
 Rotational symmetry number  1.
 Warning -- assumption of classical behavior for rotation
           may cause significant error
 Rotational temperatures (Kelvin)      0.07860     0.03179     0.02288
 Rotational constants (GHZ):           1.63786     0.66239     0.47682
 Zero-point vibrational energy     404489.9 (Joules/Mol)
                                   96.67541 (Kcal/Mol)
 Warning -- explicit consideration of  17 degrees of freedom as
           vibrations may cause significant error
 Vibrational temperatures:     43.02   146.94   182.01   195.78   309.41
          (Kelvin)            373.05   394.49   506.98   535.67   560.76
                              605.98   614.11   702.28   752.04   796.70
                              832.08   889.89   920.38  1014.99  1060.33
                             1110.02  1172.53  1288.84  1307.40  1356.63
                             1391.90  1459.62  1557.02  1570.25  1641.88
                             1707.11  1742.73  1804.36  1874.96  1917.78
                             1986.72  2006.34  2065.99  2108.53  2160.05
                             2171.94  2226.97  2360.11  2386.52  2451.29
                             3381.96  4408.55  4513.89  4519.85  4567.75
                             4639.58  4666.59  4945.86  5389.49

 Zero-point correction=                           0.154062 (Hartree/Particle)
 Thermal correction to Energy=                    0.164790
 Thermal correction to Enthalpy=                  0.165734
 Thermal correction to Gibbs Free Energy=         0.117067
 Sum of electronic and zero-point Energies=           -532.355184
 Sum of electronic and thermal Energies=              -532.344456
 Sum of electronic and thermal Enthalpies=            -532.343512
 Sum of electronic and thermal Free Energies=         -532.392179

                     E (Thermal)             CV                S
                      KCal/Mol        Cal/Mol-Kelvin    Cal/Mol-Kelvin
 Total                  103.407             40.626            102.428
 Electronic               0.000              0.000              0.000
 Translational            0.889              2.981             41.120
 Rotational               0.889              2.981             30.808
 Vibrational            101.630             34.664             30.499
 Vibration     1          0.594              1.984              5.836
 Vibration     2          0.604              1.947              3.413
 Vibration     3          0.611              1.927              2.998
 Vibration     4          0.614              1.917              2.858
 Vibration     5          0.645              1.818              2.000
 Vibration     6          0.668              1.747              1.667
 Vibration     7          0.677              1.721              1.570
 Vibration     8          0.729              1.570              1.156
 Vibration     9          0.744              1.529              1.070
 Vibration    10          0.758              1.492              1.001
 Vibration    11          0.784              1.424              0.888
 Vibration    12          0.788              1.412              0.869
 Vibration    13          0.844              1.276              0.689
 Vibration    14          0.878              1.200              0.604
 Vibration    15          0.909              1.132              0.536
 Vibration    16          0.935              1.078              0.488
 Vibration    17          0.978              0.993              0.419

 Optimization completed.
    -- Stationary point found.
 Normal termination of Gaussian 16 at Wed Dec  9 17:47:43 2020.

 ----------------------------------------------------------------------
 # B3LYP/6-311++G(d,p) empiricaldispersion=gd3bj scf=xqc pop=npa geom=c
 heck
 ----------------------------------------------------------------------

 ---------------------------------------
 CID_137057835_JID_2627_Energie_neutraal
 ---------------------------------------
 Structure from the checkpoint file:  "JID_2627.chk"
 Charge =  0 Multiplicity = 1

 SCF Done:  E(RB3LYP) =  -532.662800754     A.U. after   15 cycles
 Normal termination of Gaussian 16 at Wed Dec  9 17:49:48 2020.

 ----------------------------------------------------------------------
 # B3LYP/6-311++G(d,p) empiricaldispersion=gd3bj scf=xqc pop=npa geom=c
 heck
 ----------------------------------------------------------------------

 -------------------------------------
 CID_137057835_JID_2627_Energie_kation
 -------------------------------------
 Structure from the checkpoint file:  "JID_2627.chk"
 Charge =  1 Multiplicity = 2

 SCF Done:  E(UB3LYP) =  -532.339161015     A.U. after   28 cycles
 Normal termination of Gaussian 16 at Wed Dec  9 17:53:35 2020.
 Gaussian 16:  ES64L-G16RevA.03 25-Dec-2016

 ----------------------------------------------------------------------
 # B3LYP/6-311++G(d,p) empiricaldispersion=gd3bj scf=xqc pop=npa geom=c
 heck
 ----------------------------------------------------------------------

 ------------------------------------
 CID_137057835_JID_2627_Energie_anion
 ------------------------------------
 Structure from the checkpoint file:  "JID_2627.chk"
 Charge = -1 Multiplicity = 2

                         Standard orientation:
 ---------------------------------------------------------------------
 Center     Atomic      Atomic             Coordinates (Angstroms)
 Number     Number       Type             X           Y           Z
 ---------------------------------------------------------------------
      1          6           0        3.180151   -0.567761    0.358584
      2          6           0        1.817469   -1.100386   -0.027370
      3          7           0        1.594018   -2.322801   -0.338397
      4          6           0        0.629116   -0.186690   -0.023745
      5          6           0        0.693227    1.221921   -0.058052
      6          6           0       -0.479343    1.992118   -0.047980
      7          6           0       -1.724628    1.389638   -0.007177
      8          6           0       -1.812115   -0.012655    0.019058
      9          6           0       -0.640917   -0.775108    0.006874
     10          6           0       -3.092167   -0.651234    0.064202
     11          7           0       -4.138186   -1.158973    0.102016
     12          8           0        1.910137    1.832939   -0.117860
     13          1           0        3.872157   -1.402435    0.506765
     14          1           0        3.133677    0.025265    1.277014
     15          1           0        3.579048    0.090275   -0.418582
     16          1           0        2.459148   -2.867710   -0.277725
     17          1           0       -0.402050    3.076954   -0.076957
     18          1           0       -2.627144    1.991049    0.004325
     19          1           0       -0.689631   -1.857227    0.020523
     20          1           0        1.778116    2.793684   -0.144177
 ---------------------------------------------------------------------

 SCF Done:  E(UB3LYP) =  -532.672763830     A.U. after   33 cycles
 SCF Done:  E(UB3LYP) =  -532.672763830     a.u. after    1 cycles

 The electronic state is 2-A.
 Alpha  occ. eigenvalues --  -19.03320 -14.16873 -14.11929 -10.09579 -10.07183
 Alpha  occ. eigenvalues --  -10.05443 -10.05364 -10.03567 -10.03194 -10.02918
 Alpha  occ. eigenvalues --  -10.02195 -10.01968  -0.94522  -0.76872  -0.75074
 Alpha  occ. eigenvalues --   -0.71141  -0.62291  -0.61241  -0.58530  -0.50785
 Alpha  occ. eigenvalues --   -0.48972  -0.44189  -0.41514  -0.36782  -0.35074
 Alpha  occ. eigenvalues --   -0.31619  -0.30354  -0.29896  -0.29029  -0.27829
 Alpha  occ. eigenvalues --   -0.27293  -0.25697  -0.24440  -0.24303  -0.22480
 Alpha  occ. eigenvalues --   -0.20761  -0.19538  -0.19034  -0.16984  -0.11428
 Alpha  occ. eigenvalues --   -0.10814  -0.09543   0.05123
 Alpha virt. eigenvalues --    0.07703   0.09211   0.10278   0.10469   0.11800
 Alpha virt. eigenvalues --    0.12507   0.12771   0.13893   0.14584   0.15046
 Alpha virt. eigenvalues --    0.16207   0.16631   0.16665   0.17204   0.18380

  Beta  occ. eigenvalues --  -19.03269 -14.16880 -14.11523 -10.09427 -10.07164
  Beta  occ. eigenvalues --  -10.05435 -10.05269 -10.03580 -10.03185 -10.02801
  Beta  occ. eigenvalues --  -10.01754 -10.01698  -0.94391  -0.76857  -0.74416
  Beta  occ. eigenvalues --   -0.70722  -0.61922  -0.60709  -0.58336  -0.50650
  Beta  occ. eigenvalues --   -0.48155  -0.43790  -0.41345  -0.36501  -0.34851
  Beta  occ. eigenvalues --   -0.31384  -0.29974  -0.29607  -0.28830  -0.27373
  Beta  occ. eigenvalues --   -0.27109  -0.25446  -0.24232  -0.24075  -0.22415
  Beta  occ. eigenvalues --   -0.20605  -0.18905  -0.18720  -0.15202  -0.10615
  Beta  occ. eigenvalues --   -0.09897  -0.07945
  Beta virt. eigenvalues --    0.07648   0.09154   0.10248   0.10965   0.11211
  Beta virt. eigenvalues --    0.11770   0.12484   0.12850   0.13874   0.14550
  Beta virt. eigenvalues --    0.16123   0.16291   0.16679   0.17047   0.17345

 Mulliken charges and spin densities:
               1          2
     1  C   -0.588566  -0.013841
     2  C   -0.366477   0.125088
     3  N   -0.343363   0.237280
     4  C    1.778640   0.076294
     5  C   -1.664096   0.011987
     6  C   -0.179676   0.036241
     7  C   -0.736093   0.404400
     8  C    1.302096  -0.044729
     9  C    0.398175   0.156975
    10  C   -1.268083   0.021777
    11  N   -0.285368  -0.003688
    12  O   -0.224720   0.013901
    13  H    0.092545   0.001750
    14  H    0.130397   0.007826
    15  H    0.158450   0.007211
    16  H    0.169270  -0.002328
    17  H    0.053301   0.003144
    18  H    0.123019  -0.033006
    19  H    0.206561  -0.006069
    20  H    0.243989  -0.000212
 Sum of Mulliken charges =  -1.00000   1.00000

 Dipole moment (field-independent basis, Debye):
    X=              5.3402    Y=              5.3765    Z=              0.5545  Tot=              7.5982
 Quadrupole moment (field-independent basis, Debye-Ang):
   XX=           -114.9377   YY=            -83.6130   ZZ=            -79.4055
   XY=             -4.1536   XZ=              1.4093   YZ=             -2.0894

 Summary of Natural Population Analysis:

                                       Natural Population
                Natural  -----------------------------------------------
    Atom  No    Charge         Core      Valence    Rydberg      Total
 -----------------------------------------------------------------------
      C    1   -0.31274      0.99963     2.30805    0.00506     3.31274
      C    2    0.15668      0.99964     1.82848    0.01520     2.84332
      N    3   -0.27895      0.99971     2.77048    0.00876     3.77895
      C    4   -0.04042      0.99943     2.03106    0.00992     3.04042
      C    5    0.20223      0.99937     1.78671    0.01170     2.79777
      C    6   -0.15518      0.99954     2.14609    0.00955     3.15518
      C    7    0.01972      0.99955     1.97186    0.00887     2.98028
      C    8   -0.13506      0.99942     2.12609    0.00955     3.13506
      C    9   -0.02489      0.99952     2.01723    0.00815     3.02489
      C   10    0.17320      0.99963     1.80898    0.01819     2.82680
      N   11   -0.22273      0.99979     2.71130    0.01164     3.72273
      O   12   -0.34124      0.99988     3.33480    0.00657     4.34124
      H   13    0.08834      0.00000     0.41014    0.00152     0.41166
      H   14    0.10267      0.00000     0.39608    0.00125     0.39733
      H   15    0.10760      0.00000     0.39123    0.00117     0.39240
      H   16    0.14438      0.00000     0.35331    0.00231     0.35562
      H   17    0.08587      0.00000     0.41272    0.00141     0.41413
      H   18    0.08941      0.00000     0.40963    0.00096     0.41059
      H   19    0.11426      0.00000     0.38456    0.00117     0.38574
      H   20    0.22686      0.00000     0.27070    0.00244     0.27314
 =======================================================================
   * Total *   -0.00000     11.99511    29.86948    0.13541    42.00000

 Normal termination of Gaussian 16 at Wed Dec  9 17:59:23 2020.
