 Gaussian 16, Revision A.03,

 -----------------------------------------------------------
 # opt freq B3LYP/6-31G(d) empiricaldispersion=gd3bj scf=xqc
 -----------------------------------------------------------

 -------------------------------
 CID_91831425_JID_10762_neutraal
 -------------------------------
 Symbolic Z-matrix:
 Charge =  0 Multiplicity = 1

 SCF Done:  E(RB3LYP) =  -1220.70049644     A.U. after   15 cycles
 SCF Done:  E(RB3LYP) =  -1220.70760473     A.U. after   12 cycles
 SCF Done:  E(RB3LYP) =  -1220.70825855     A.U. after   12 cycles
 SCF Done:  E(RB3LYP) =  -1220.70818618     A.U. after   12 cycles
 SCF Done:  E(RB3LYP) =  -1220.70841469     A.U. after   11 cycles
 SCF Done:  E(RB3LYP) =  -1220.70845596     A.U. after   10 cycles
 SCF Done:  E(RB3LYP) =  -1220.70848346     A.U. after   11 cycles
 SCF Done:  E(RB3LYP) =  -1220.70849294     A.U. after   10 cycles
 SCF Done:  E(RB3LYP) =  -1220.70850274     A.U. after    9 cycles
 SCF Done:  E(RB3LYP) =  -1220.70851242     A.U. after   10 cycles
 SCF Done:  E(RB3LYP) =  -1220.70854944     A.U. after   10 cycles
 SCF Done:  E(RB3LYP) =  -1220.70854967     A.U. after    8 cycles
 SCF Done:  E(RB3LYP) =  -1220.70854992     A.U. after    8 cycles
 SCF Done:  E(RB3LYP) =  -1220.70854996     A.U. after    7 cycles
 Optimization completed.
    -- Stationary point found.
 Normal termination of Gaussian 16 at Sun Dec 13 13:29:29 2020.

 --------------------------------------------------------------------
 #N Geom=AllCheck Guess=TCheck SCRF=Check GenChk RB3LYP/6-31G(d) Freq
 --------------------------------------------------------------------

 Structure from the checkpoint file:  "JID_10762.chk"
 -------------------------------
 CID_91831425_JID_10762_neutraal
 -------------------------------
 Charge =  0 Multiplicity = 1

 SCF Done:  E(RB3LYP) =  -1220.70854996     A.U. after    1 cycles

  Exact polarizability: 233.744   0.932 200.974  -5.670   0.382 131.242
 Approx polarizability: 337.275  -6.024 327.425 -18.430  -1.139 209.644

                      1                      2                      3
                      A                      A                      A
 Frequencies --     16.2197                27.0887                37.4499
 Red. masses --      4.9643                 4.1747                 4.9252
 Frc consts  --      0.0008                 0.0018                 0.0041
 IR Inten    --      0.7951                 0.6939                 3.4221

                      4                      5                      6
                      A                      A                      A
 Frequencies --     49.3921                50.5903                64.5218
 Red. masses --      4.1580                 3.3256                 1.3012
 Frc consts  --      0.0060                 0.0050                 0.0032
 IR Inten    --      1.0698                 1.3218                 0.6840

                      7                      8                      9
                      A                      A                      A
 Frequencies --     72.6404                82.6160               114.2581
 Red. masses --      2.7073                 3.5285                 2.8228
 Frc consts  --      0.0084                 0.0142                 0.0217
 IR Inten    --      0.7966                 1.8970                 1.5774

                     10                     11                     12
                      A                      A                      A
 Frequencies --    117.8871               154.2417               171.4366
 Red. masses --      1.1740                 4.2543                 4.4645
 Frc consts  --      0.0096                 0.0596                 0.0773
 IR Inten    --      0.0269                 0.8967                 1.8416

                     13                     14                     15
                      A                      A                      A
 Frequencies --    179.5675               214.5429               223.3242
 Red. masses --      3.3003                 5.4629                 3.7839
 Frc consts  --      0.0627                 0.1482                 0.1112
 IR Inten    --      2.6980                 0.1220                 0.9835

                     16                     17                     18
                      A                      A                      A
 Frequencies --    260.0269               290.0548               297.7899
 Red. masses --      4.0013                 3.3121                 2.7828
 Frc consts  --      0.1594                 0.1642                 0.1454
 IR Inten    --      0.3612                 0.0660                 2.0043

                     19                     20                     21
                      A                      A                      A
 Frequencies --    331.2213               343.4588               366.9112
 Red. masses --      3.3755                 3.4251                 3.1472
 Frc consts  --      0.2182                 0.2381                 0.2496
 IR Inten    --      2.0720                 0.2170                 3.7102

                     22                     23                     24
                      A                      A                      A
 Frequencies --    411.3086               440.1081               454.2905
 Red. masses --      2.5640                 3.6885                 4.6126
 Frc consts  --      0.2556                 0.4209                 0.5609
 IR Inten    --      2.9614                 0.7272                 0.7226

                     25                     26                     27
                      A                      A                      A
 Frequencies --    468.0214               546.2076               581.7412
 Red. masses --      5.6086                 3.8689                 3.9616
 Frc consts  --      0.7238                 0.6801                 0.7899
 IR Inten    --      2.8576                 6.3772                 8.5407

                     28                     29                     30
                      A                      A                      A
 Frequencies --    603.1617               620.5416               626.6432
 Red. masses --      3.8040                 3.0189                 3.4557
 Frc consts  --      0.8154                 0.6849                 0.7995
 IR Inten    --     20.9415                 2.4447                 7.3829

                     31                     32                     33
                      A                      A                      A
 Frequencies --    661.8297               683.9446               700.1205
 Red. masses --      5.1507                 4.4075                 3.0169
 Frc consts  --      1.3293                 1.2147                 0.8713
 IR Inten    --      5.2195                 3.5916                 9.4167

                     34                     35                     36
                      A                      A                      A
 Frequencies --    739.7826               747.5191               778.5907
 Red. masses --      3.6710                 1.5478                 1.5808
 Frc consts  --      1.1837                 0.5096                 0.5646
 IR Inten    --      3.9653                 4.3946                13.5814

                     37                     38                     39
                      A                      A                      A
 Frequencies --    789.8868               807.0373               809.3363
 Red. masses --      1.3694                 2.5795                 1.5289
 Frc consts  --      0.5034                 0.9898                 0.5901
 IR Inten    --     19.4570                10.4151                 8.5442

                     40                     41                     42
                      A                      A                      A
 Frequencies --    843.8518               868.6339               872.5047
 Red. masses --      1.3630                 1.6330                 1.9751
 Frc consts  --      0.5718                 0.7260                 0.8859
 IR Inten    --     12.3888                14.2900                16.5254

                     43                     44                     45
                      A                      A                      A
 Frequencies --    873.4562               935.2767               953.5344
 Red. masses --      1.8794                 3.7053                 3.2820
 Frc consts  --      0.8448                 1.9097                 1.7582
 IR Inten    --     22.3267                24.5737                21.9474

                     46                     47                     48
                      A                      A                      A
 Frequencies --    960.1950               982.3562               993.0967
 Red. masses --      2.2604                 3.2970                 2.5468
 Frc consts  --      1.2279                 1.8746                 1.4799
 IR Inten    --     11.8152                 7.0216                 4.6676

                     49                     50                     51
                      A                      A                      A
 Frequencies --   1007.7144              1017.1414              1055.1824
 Red. masses --      3.5687                 2.0528                 1.7805
 Frc consts  --      2.1352                 1.2513                 1.1680
 IR Inten    --     41.0921                 1.0363                 3.3177

                     52                     53                     54
                      A                      A                      A
 Frequencies --   1056.8147              1060.7042              1075.5695
 Red. masses --      3.5151                 2.1123                 1.3727
 Frc consts  --      2.3130                 1.4002                 0.9356
 IR Inten    --     21.3183                18.0040                11.3062

                     55                     56                     57
                      A                      A                      A
 Frequencies --   1081.6549              1086.6616              1098.1058
 Red. masses --      1.5430                 1.3741                 2.3110
 Frc consts  --      1.0636                 0.9560                 1.6419
 IR Inten    --      8.7628                 2.0716                11.8433

                     58                     59                     60
                      A                      A                      A
 Frequencies --   1144.0620              1144.8648              1158.5676
 Red. masses --      1.5653                 1.7649                 1.3355
 Frc consts  --      1.2071                 1.3629                 1.0562
 IR Inten    --      9.9137                38.9868                 8.1467

                     61                     62                     63
                      A                      A                      A
 Frequencies --   1186.9623              1195.0308              1199.1427
 Red. masses --      1.5615                 1.8122                 1.7014
 Frc consts  --      1.2962                 1.5248                 1.4415
 IR Inten    --     27.4331                17.5390                 6.9415

                     64                     65                     66
                      A                      A                      A
 Frequencies --   1207.7588              1227.1571              1233.9835
 Red. masses --      1.3678                 1.4370                 1.5112
 Frc consts  --      1.1755                 1.2750                 1.3558
 IR Inten    --      0.5532                 6.6245                32.6548

                     67                     68                     69
                      A                      A                      A
 Frequencies --   1256.0454              1281.7520              1300.2317
 Red. masses --      1.6889                 1.2421                 4.7159
 Frc consts  --      1.5699                 1.2023                 4.6974
 IR Inten    --      4.4846                 0.1574               171.1657

                     70                     71                     72
                      A                      A                      A
 Frequencies --   1329.5749              1345.4324              1377.3146
 Red. masses --      1.8297                 3.5778                 1.5018
 Frc consts  --      1.9057                 3.8159                 1.6785
 IR Inten    --     25.3464                 7.6088                73.6554

                     73                     74                     75
                      A                      A                      A
 Frequencies --   1403.8127              1409.9246              1417.0017
 Red. masses --      1.5224                 1.3411                 2.5244
 Frc consts  --      1.7677                 1.5707                 2.9864
 IR Inten    --      4.8347                27.8191                14.6861

                     76                     77                     78
                      A                      A                      A
 Frequencies --   1430.7677              1442.4410              1463.5570
 Red. masses --      3.4868                 2.6789                 1.9607
 Frc consts  --      4.2055                 3.2840                 2.4745
 IR Inten    --      8.5452                32.6464                11.0419

                     79                     80                     81
                      A                      A                      A
 Frequencies --   1470.5981              1486.0076              1493.6019
 Red. masses --      1.6429                 1.0920                 2.0645
 Frc consts  --      2.0934                 1.4208                 2.7135
 IR Inten    --     16.2791                 0.1317                 3.7865

                     82                     83                     84
                      A                      A                      A
 Frequencies --   1496.4587              1501.3802              1505.6491
 Red. masses --      2.1430                 1.4997                 1.0476
 Frc consts  --      2.8275                 1.9918                 1.3992
 IR Inten    --     61.6251                21.7368                 9.1297

                     85                     86                     87
                      A                      A                      A
 Frequencies --   1509.6666              1516.3818              1527.2519
 Red. masses --      1.0627                 1.1056                 1.1995
 Frc consts  --      1.4270                 1.4978                 1.6484
 IR Inten    --      7.1911                 1.0521                 0.0849

                     88                     89                     90
                      A                      A                      A
 Frequencies --   1536.8910              1546.3374              1612.8844
 Red. masses --      1.3034                 1.2014                 6.0170
 Frc consts  --      1.8139                 1.6926                 9.2222
 IR Inten    --     11.3323                 6.1428                10.4178

                     91                     92                     93
                      A                      A                      A
 Frequencies --   1620.4769              1764.2039              2942.2800
 Red. masses --      5.1585                10.7286                 1.0725
 Frc consts  --      7.9811                19.6740                 5.4704
 IR Inten    --     20.7827               234.1509                20.6419

                     94                     95                     96
                      A                      A                      A
 Frequencies --   2951.3824              3030.8308              3049.5842
 Red. masses --      1.0727                 1.0853                 1.0888
 Frc consts  --      5.5051                 5.8738                 5.9661
 IR Inten    --    108.6043                53.5101                 7.5080

                     97                     98                     99
                      A                      A                      A
 Frequencies --   3057.2481              3061.1102              3066.0056
 Red. masses --      1.0373                 1.0862                 1.0373
 Frc consts  --      5.7124                 5.9968                 5.7453
 IR Inten    --      3.0770                52.6345                55.1518

                    100                    101                    102
                      A                      A                      A
 Frequencies --   3118.3327              3138.1839              3162.3779
 Red. masses --      1.1003                 1.0997                 1.0537
 Frc consts  --      6.3040                 6.3811                 6.2087
 IR Inten    --      9.3511                15.3356                15.5003

                    103                    104                    105
                      A                      A                      A
 Frequencies --   3167.4384              3170.8588              3172.2378
 Red. masses --      1.0603                 1.1055                 1.1019
 Frc consts  --      6.2676                 6.5486                 6.5333
 IR Inten    --      8.4963                 7.8029                10.7771

                    106                    107                    108
                      A                      A                      A
 Frequencies --   3231.6517              3245.7926              3249.3138
 Red. masses --      1.0924                 1.1169                 1.0961
 Frc consts  --      6.7217                 6.9329                 6.8186
 IR Inten    --      1.6706                 0.3105                 5.6350

                    109                    110                    111
                      A                      A                      A
 Frequencies --   3256.2417              3258.0477              3270.3306
 Red. masses --      1.0936                 1.1141                 1.0975
 Frc consts  --      6.8321                 6.9680                 6.9157
 IR Inten    --      0.4314                13.2448                 0.7263

 - Thermochemistry -
 -------------------
 Temperature   298.150 Kelvin.  Pressure   1.00000 Atm.
 Atom     1 has atomic number  6 and mass  12.00000

 Molecular mass:   289.12488 amu.
 Principal axes and moments of inertia in atomic units:
                           1         2         3
     Eigenvalues --  2980.60233********************
           X            0.99999   0.00241   0.00245
           Y           -0.00239   0.99997  -0.00732
           Z           -0.00247   0.00731   0.99997
 This molecule is an asymmetric top.
 Rotational symmetry number  1.
 Warning -- assumption of classical behavior for rotation
           may cause significant error
 Rotational temperatures (Kelvin)      0.02906     0.00692     0.00619
 Rotational constants (GHZ):           0.60550     0.14409     0.12898
 Zero-point vibrational energy     843966.6 (Joules/Mol)
                                  201.71285 (Kcal/Mol)
 Warning -- explicit consideration of  29 degrees of freedom as
           vibrations may cause significant error
 Vibrational temperatures:     23.34    38.97    53.88    71.06    72.79
          (Kelvin)             92.83   104.51   118.87   164.39   169.61
                              221.92   246.66   258.36   308.68   321.31
                              374.12   417.32   428.45   476.55   494.16
                              527.90   591.78   633.22   653.62   673.38
                              785.87   837.00   867.82   892.82   901.60
                              952.23   984.04  1007.32  1064.38  1075.51
                             1120.22  1136.47  1161.15  1164.45  1214.11
                             1249.77  1255.34  1256.71  1345.65  1371.92
                             1381.51  1413.39  1428.84  1449.88  1463.44
                             1518.17  1520.52  1526.12  1547.50  1556.26
                             1563.46  1579.93  1646.05  1647.21  1666.92
                             1707.77  1719.38  1725.30  1737.70  1765.61
                             1775.43  1807.17  1844.16  1870.74  1912.96
                             1935.78  1981.65  2019.77  2028.57  2038.75
                             2058.56  2075.35  2105.73  2115.86  2138.03
                             2148.96  2153.07  2160.15  2166.29  2172.07
                             2181.74  2197.37  2211.24  2224.83  2320.58
                             2331.50  2538.30  4233.28  4246.38  4360.69
                             4387.67  4398.70  4404.25  4411.30  4486.59
                             4515.15  4549.96  4557.24  4562.16  4564.14
                             4649.63  4669.97  4675.04  4685.01  4687.60
                             4705.28

 Zero-point correction=                           0.321450 (Hartree/Particle)
 Thermal correction to Energy=                    0.341510
 Thermal correction to Enthalpy=                  0.342455
 Thermal correction to Gibbs Free Energy=         0.269223
 Sum of electronic and zero-point Energies=          -1220.387100
 Sum of electronic and thermal Energies=             -1220.367040
 Sum of electronic and thermal Enthalpies=           -1220.366095
 Sum of electronic and thermal Free Energies=        -1220.439327

                     E (Thermal)             CV                S
                      KCal/Mol        Cal/Mol-Kelvin    Cal/Mol-Kelvin
 Total                  214.301             73.621            154.128
 Electronic               0.000              0.000              0.000
 Translational            0.889              2.981             42.883
 Rotational               0.889              2.981             34.612
 Vibrational            212.524             67.659             76.634
 Vibration     1          0.593              1.986              7.050
 Vibration     2          0.593              1.984              6.032
 Vibration     3          0.594              1.982              5.390
 Vibration     4          0.595              1.978              4.842
 Vibration     5          0.595              1.977              4.794
 Vibration     6          0.597              1.971              4.314
 Vibration     7          0.599              1.967              4.080
 Vibration     8          0.600              1.961              3.828
 Vibration     9          0.607              1.938              3.195
 Vibration    10          0.608              1.934              3.135
 Vibration    11          0.620              1.898              2.619
 Vibration    12          0.626              1.878              2.420
 Vibration    13          0.629              1.867              2.333
 Vibration    14          0.644              1.819              2.005
 Vibration    15          0.649              1.806              1.932
 Vibration    16          0.668              1.746              1.662
 Vibration    17          0.686              1.692              1.474
 Vibration    18          0.691              1.678              1.429
 Vibration    19          0.714              1.613              1.254
 Vibration    20          0.722              1.589              1.196
 Vibration    21          0.740              1.540              1.093
 Vibration    22          0.775              1.446              0.922
 Vibration    23          0.800              1.383              0.826
 Vibration    24          0.813              1.351              0.783
 Vibration    25          0.825              1.321              0.743
 Vibration    26          0.901              1.148              0.552
 Vibration    27          0.939              1.071              0.482
 Vibration    28          0.962              1.025              0.444
 Vibration    29          0.981              0.989              0.416

                           ! Non-Optimized Parameters !
 Normal termination of Gaussian 16 at Sun Dec 13 13:48:17 2020.

 ----------------------------------------------------------------------
 # B3LYP/6-311++G(d,p) empiricaldispersion=gd3bj scf=xqc pop=npa geom=c
 heck
 ----------------------------------------------------------------------

 ---------------------------------------
 CID_91831425_JID_10762_Energie_neutraal
 ---------------------------------------
 Structure from the checkpoint file:  "JID_10762.chk"
 Charge =  0 Multiplicity = 1

 SCF Done:  E(RB3LYP) =  -1220.95556195     A.U. after   16 cycles
 Normal termination of Gaussian 16 at Sun Dec 13 13:56:23 2020.

 ----------------------------------------------------------------------
 # B3LYP/6-311++G(d,p) empiricaldispersion=gd3bj scf=xqc pop=npa geom=c
 heck
 ----------------------------------------------------------------------

 -------------------------------------
 CID_91831425_JID_10762_Energie_kation
 -------------------------------------
 Structure from the checkpoint file:  "JID_10762.chk"
 Charge =  1 Multiplicity = 2

 SCF Done:  E(UB3LYP) =  -1220.65700872     A.U. after   33 cycles
 SCF Done:  E(UB3LYP) =  -1220.65927771     a.u. after   13 cycles
 Normal termination of Gaussian 16 at Sun Dec 13 18:38:15 2020.
 Gaussian 16:  ES64L-G16RevA.03 25-Dec-2016

 ----------------------------------------------------------------------
 # B3LYP/6-311++G(d,p) empiricaldispersion=gd3bj scf=xqc pop=npa geom=c
 heck
 ----------------------------------------------------------------------

 ------------------------------------
 CID_91831425_JID_10762_Energie_anion
 ------------------------------------
 Structure from the checkpoint file:  "JID_10762.chk"
 Charge = -1 Multiplicity = 2

                         Standard orientation:
 ---------------------------------------------------------------------
 Center     Atomic      Atomic             Coordinates (Angstroms)
 Number     Number       Type             X           Y           Z
 ---------------------------------------------------------------------
      1          6           0       -3.257831    3.075641   -0.282536
      2          6           0       -4.005628    1.795418    0.048615
      3          8           0       -5.146356    1.812505    0.490782
      4          6           0       -3.299465    0.526945   -0.181060
      5          6           0       -2.032679    0.297065   -0.668760
      6          6           0       -1.693329   -1.085081   -0.738745
      7          6           0       -2.725376   -1.877757   -0.300867
      8         16           0       -4.111163   -0.974677    0.201208
      9          6           0       -0.361849   -1.584306   -1.227595
     10          7           0        0.760270   -0.985222   -0.493133
     11          6           0        2.022262   -1.194325   -1.228344
     12          6           0        3.169455   -0.406602   -0.677431
     13          6           0        3.335798    0.969034   -0.687490
     14          7           0        4.497011    1.234695   -0.032984
     15          7           0        5.115881    0.110869    0.395918
     16          6           0        4.309759   -0.879481    0.010411
     17          6           0        5.144956    2.517490    0.148029
     18          6           0        0.841181   -1.507417    0.850789
     19          6           0        1.445067   -0.669081    1.945705
     20          6           0       -0.036358   -0.938334    1.936725
     21          1           0       -3.902607    3.928025   -0.063042
     22          1           0       -2.971770    3.095028   -1.340398
     23          1           0       -2.337882    3.149878    0.308734
     24          1           0       -1.342382    1.083917   -0.950098
     25          1           0       -2.729926   -2.958290   -0.235498
     26          1           0       -0.341690   -2.689526   -1.186909
     27          1           0       -0.243322   -1.310029   -2.283743
     28          1           0        2.299353   -2.265494   -1.248213
     29          1           0        1.836454   -0.903609   -2.269375
     30          1           0        2.715416    1.758467   -1.087609
     31          1           0        4.564680   -1.904618    0.247860
     32          1           0        5.591594    2.547655    1.143501
     33          1           0        5.929843    2.670294   -0.600592
     34          1           0        4.399331    3.310595    0.057441
     35          1           0        1.034493   -2.586705    0.909067
     36          1           0        2.074250   -1.166229    2.677793
     37          1           0        1.772685    0.326834    1.671985
     38          1           0       -0.692297   -0.118279    1.668921
     39          1           0       -0.454673   -1.630761    2.661311
 ---------------------------------------------------------------------

 SCF Done:  E(UB3LYP) =  -1220.96927591     A.U. after   33 cycles
 SCF Done:  E(UB3LYP) =  -1220.96927591     a.u. after    1 cycles

 The electronic state is 2-A.
 Alpha  occ. eigenvalues --  -88.73078 -18.94047 -14.31314 -14.24809 -14.21861
 Alpha  occ. eigenvalues --  -10.13756 -10.12359 -10.11787 -10.10770 -10.10552
 Alpha  occ. eigenvalues --  -10.09922 -10.09156 -10.08898 -10.07361 -10.06880
 Alpha  occ. eigenvalues --  -10.05704 -10.05167 -10.05052 -10.04341 -10.03239
 Alpha  occ. eigenvalues --   -7.81711  -5.78000  -5.77639  -5.77333  -0.97194
 Alpha  occ. eigenvalues --   -0.88069  -0.84378  -0.76565  -0.74924  -0.74316
 Alpha  occ. eigenvalues --   -0.71341  -0.65316  -0.62878  -0.62070  -0.58708
 Alpha  occ. eigenvalues --   -0.58278  -0.55087  -0.51021  -0.50404  -0.49702
 Alpha  occ. eigenvalues --   -0.47728  -0.46354  -0.44632  -0.41840  -0.40370
 Alpha  occ. eigenvalues --   -0.40143  -0.39319  -0.38573  -0.37300  -0.36741
 Alpha  occ. eigenvalues --   -0.35106  -0.34576  -0.33605  -0.32429  -0.31763
 Alpha  occ. eigenvalues --   -0.31269  -0.31095  -0.30164  -0.29585  -0.28807
 Alpha  occ. eigenvalues --   -0.28306  -0.26894  -0.25728  -0.24945  -0.24836
 Alpha  occ. eigenvalues --   -0.23921  -0.21881  -0.21594  -0.20757  -0.20539
 Alpha  occ. eigenvalues --   -0.19417  -0.17741  -0.15991  -0.13787  -0.12138
 Alpha  occ. eigenvalues --   -0.10923  -0.10444   0.03382
 Alpha virt. eigenvalues --    0.04572   0.06605   0.06992   0.07581   0.08286
 Alpha virt. eigenvalues --    0.08601   0.09281   0.09503   0.09802   0.10412
 Alpha virt. eigenvalues --    0.10832   0.11193   0.11262   0.12033   0.12304

  Beta  occ. eigenvalues --  -88.73029 -18.93610 -14.31313 -14.24806 -14.21863
  Beta  occ. eigenvalues --  -10.13724 -10.12354 -10.11787 -10.10770 -10.10552
  Beta  occ. eigenvalues --  -10.09916 -10.08898 -10.08881 -10.07360 -10.06875
  Beta  occ. eigenvalues --  -10.05439 -10.05257 -10.04947 -10.04367 -10.03011
  Beta  occ. eigenvalues --   -7.81667  -5.77978  -5.77617  -5.77167  -0.97190
  Beta  occ. eigenvalues --   -0.87268  -0.84381  -0.76554  -0.74851  -0.74125
  Beta  occ. eigenvalues --   -0.71327  -0.65271  -0.62674  -0.61794  -0.58604
  Beta  occ. eigenvalues --   -0.57992  -0.54913  -0.51001  -0.50396  -0.49670
  Beta  occ. eigenvalues --   -0.47453  -0.45927  -0.44603  -0.41703  -0.40325
  Beta  occ. eigenvalues --   -0.40069  -0.39269  -0.38395  -0.37282  -0.36721
  Beta  occ. eigenvalues --   -0.34851  -0.34543  -0.33553  -0.32401  -0.31740
  Beta  occ. eigenvalues --   -0.31196  -0.30486  -0.30046  -0.29540  -0.28736
  Beta  occ. eigenvalues --   -0.28090  -0.26856  -0.25578  -0.24607  -0.24194
  Beta  occ. eigenvalues --   -0.23747  -0.21586  -0.21134  -0.20549  -0.19502
  Beta  occ. eigenvalues --   -0.19268  -0.17735  -0.15987  -0.13725  -0.11113
  Beta  occ. eigenvalues --   -0.10046  -0.09531
  Beta virt. eigenvalues --    0.05221   0.06631   0.07021   0.07675   0.08266
  Beta virt. eigenvalues --    0.08564   0.08837   0.09391   0.09704   0.09765
  Beta virt. eigenvalues --    0.10380   0.10840   0.11184   0.11337   0.12049

 Mulliken charges and spin densities:
               1          2
     1  C   -0.418715  -0.044674
     2  C    0.215785   0.209740
     3  O   -0.392667   0.153640
     4  C    0.128122  -0.022410
     5  C   -0.672071   0.210715
     6  C    0.024791  -0.062145
     7  C    0.254649   0.212804
     8  S   -0.389893   0.094838
     9  C   -0.387482  -0.004711
    10  N    0.351827   0.007649
    11  C   -0.890676   0.026224
    12  C    0.472615   0.048361
    13  C   -0.154107  -0.053017
    14  N    0.119166   0.082252
    15  N   -0.219503   0.070614
    16  C   -0.210791  -0.117270
    17  C    0.495712  -0.775146
    18  C   -0.473119  -0.012236
    19  C   -0.253370  -0.012543
    20  C   -0.436001   0.000741
    21  H    0.164084  -0.000728
    22  H    0.118803   0.010254
    23  H    0.082886   0.051084
    24  H    0.206617  -0.021853
    25  H    0.192827  -0.013699
    26  H    0.124940  -0.002290
    27  H    0.117658   0.001686
    28  H    0.117570   0.001129
    29  H    0.149749   0.001597
    30  H    0.087369   0.088588
    31  H    0.135200  -0.000808
    32  H   -0.017883   0.186457
    33  H   -0.119012   0.291824
    34  H   -0.215520   0.366040
    35  H    0.120406   0.005758
    36  H    0.151977   0.000955
    37  H    0.107259   0.027384
    38  H    0.147992  -0.006829
    39  H    0.162809   0.000023
 Sum of Mulliken charges =  -1.00000   1.00000

 Dipole moment (field-independent basis, Debye):
    X=              8.1291    Y=             -4.2368    Z=             -1.7283  Tot=              9.3284
 Quadrupole moment (field-independent basis, Debye-Ang):
   XX=           -254.2268   YY=           -149.6107   ZZ=           -140.3678
   XY=              4.2810   XZ=              2.2974   YZ=             -3.4253

 Summary of Natural Population Analysis:

                                       Natural Population
                Natural  -----------------------------------------------
    Atom  No    Charge         Core      Valence    Rydberg      Total
 -----------------------------------------------------------------------
      C    1   -0.32700      0.99964     2.32346    0.00390     3.32700
      C    2    0.28722      0.99959     1.69341    0.01978     2.71278
      O    3   -0.26058      0.99988     3.25442    0.00628     4.26058
      C    4   -0.12546      0.99945     2.11137    0.01464     3.12546
      C    5   -0.07465      0.99944     2.06473    0.01048     3.07465
      C    6   -0.08281      0.99948     2.07140    0.01193     3.08281
      C    7   -0.13873      0.99946     2.12925    0.01001     3.13873
      S    8    0.22678      4.99944     2.75144    0.02234     7.77322
      C    9   -0.08138      0.99957     2.07252    0.00929     3.08138
      N   10   -0.27488      0.99969     2.76259    0.01259     3.77488
      C   11   -0.08694      0.99958     2.07855    0.00881     3.08694
      C   12   -0.07591      0.99952     2.06546    0.01092     3.07591
      C   13   -0.00209      0.99949     1.99045    0.01214     3.00209
      N   14   -0.10542      0.99967     2.59362    0.01213     3.60542
      N   15   -0.15806      0.99973     2.64594    0.01239     3.65806
      C   16   -0.00806      0.99957     1.99531    0.01318     3.00806
      C   17   -0.17241      0.99964     2.16470    0.00807     3.17241
      C   18   -0.01846      0.99957     2.00524    0.01365     3.01846
      C   19   -0.20414      0.99962     2.19533    0.00920     3.20414
      C   20   -0.19491      0.99961     2.18742    0.00788     3.19491
      H   21    0.10249      0.00000     0.39636    0.00116     0.39751
      H   22    0.10200      0.00000     0.39712    0.00089     0.39800
      H   23    0.10177      0.00000     0.39553    0.00270     0.39823
      H   24    0.10114      0.00000     0.39739    0.00147     0.39886
      H   25    0.09673      0.00000     0.40238    0.00089     0.40327
      H   26    0.08178      0.00000     0.41671    0.00151     0.41822
      H   27    0.09381      0.00000     0.40499    0.00120     0.40619
      H   28    0.08284      0.00000     0.41574    0.00142     0.41716
      H   29    0.09916      0.00000     0.39981    0.00103     0.40084
      H   30    0.10687      0.00000     0.39192    0.00121     0.39313
      H   31    0.09686      0.00000     0.40236    0.00078     0.40314
      H   32    0.10562      0.00000     0.39306    0.00132     0.39438
      H   33    0.09807      0.00000     0.40075    0.00118     0.40193
      H   34    0.10210      0.00000     0.39674    0.00115     0.39790
      H   35    0.08313      0.00000     0.41546    0.00142     0.41687
      H   36    0.09806      0.00000     0.40109    0.00085     0.40194
      H   37    0.10743      0.00000     0.39106    0.00151     0.39257
      H   38    0.11831      0.00000     0.38025    0.00143     0.38169
      H   39    0.09970      0.00000     0.39947    0.00083     0.40030
 =======================================================================
   * Total *   -0.00000     23.99165    52.75479    0.25355    77.00000

 Normal termination of Gaussian 16 at Sun Dec 13 19:00:45 2020.
