 Gaussian 16, Revision A.03,

 -----------------------------------------------------------
 # opt freq B3LYP/6-31G(d) empiricaldispersion=gd3bj scf=xqc
 -----------------------------------------------------------

 ------------------------------
 CID_79280082_JID_7414_neutraal
 ------------------------------
 Symbolic Z-matrix:
 Charge =  0 Multiplicity = 1

 SCF Done:  E(RB3LYP) =  -1177.03115390     A.U. after   15 cycles
 SCF Done:  E(RB3LYP) =  -1177.03859496     A.U. after   14 cycles
 SCF Done:  E(RB3LYP) =  -1177.03705681     A.U. after   15 cycles
 SCF Done:  E(RB3LYP) =  -1177.04036059     A.U. after   14 cycles
 SCF Done:  E(RB3LYP) =  -1177.04223488     A.U. after   13 cycles
 SCF Done:  E(RB3LYP) =  -1177.04273824     A.U. after   13 cycles
 SCF Done:  E(RB3LYP) =  -1177.04339446     A.U. after   12 cycles
 SCF Done:  E(RB3LYP) =  -1177.04354213     A.U. after   11 cycles
 SCF Done:  E(RB3LYP) =  -1177.04362531     A.U. after   12 cycles
 SCF Done:  E(RB3LYP) =  -1177.04370853     A.U. after   11 cycles
 SCF Done:  E(RB3LYP) =  -1177.04381858     A.U. after   10 cycles
 SCF Done:  E(RB3LYP) =  -1177.04382102     A.U. after   10 cycles
 SCF Done:  E(RB3LYP) =  -1177.04382331     A.U. after   10 cycles
 SCF Done:  E(RB3LYP) =  -1177.04382335     A.U. after    8 cycles
 SCF Done:  E(RB3LYP) =  -1177.04382359     A.U. after    8 cycles
 SCF Done:  E(RB3LYP) =  -1177.04382366     A.U. after    7 cycles
 Optimization completed.
    -- Stationary point found.
 Normal termination of Gaussian 16 at Mon Dec 14 13:26:01 2020.

 --------------------------------------------------------------------
 #N Geom=AllCheck Guess=TCheck SCRF=Check GenChk RB3LYP/6-31G(d) Freq
 --------------------------------------------------------------------

 Structure from the checkpoint file:  "JID_7414.chk"
 ------------------------------
 CID_79280082_JID_7414_neutraal
 ------------------------------
 Charge =  0 Multiplicity = 1

 SCF Done:  E(RB3LYP) =  -1177.04382366     A.U. after    1 cycles

  Exact polarizability: 144.565 -11.487 163.223  12.584   2.227 122.677
 Approx polarizability: 208.494 -13.727 243.091  30.087  -2.234 221.856

                      1                      2                      3
                      A                      A                      A
 Frequencies --     12.1850                24.5202                47.5082
 Red. masses --      6.9100                 5.4637                 7.5955
 Frc consts  --      0.0006                 0.0019                 0.0101
 IR Inten    --      0.0812                 0.3484                 1.0580

                      4                      5                      6
                      A                      A                      A
 Frequencies --     57.5805                66.5065                73.5543
 Red. masses --      6.0906                 3.3667                10.0300
 Frc consts  --      0.0119                 0.0088                 0.0320
 IR Inten    --      0.6657                 0.4407                 1.7688

                      7                      8                      9
                      A                      A                      A
 Frequencies --     88.1064               135.4753               140.6444
 Red. masses --      2.7604                 3.1045                 7.3298
 Frc consts  --      0.0126                 0.0336                 0.0854
 IR Inten    --      0.8758                 3.3140                 1.1003

                     10                     11                     12
                      A                      A                      A
 Frequencies --    154.8488               196.9002               214.3064
 Red. masses --      4.8623                 6.7753                 5.4754
 Frc consts  --      0.0687                 0.1548                 0.1482
 IR Inten    --      1.3201                 0.7852                 1.0853

                     13                     14                     15
                      A                      A                      A
 Frequencies --    258.6708               290.6404               323.8356
 Red. masses --      2.1504                 3.3644                 2.9836
 Frc consts  --      0.0848                 0.1674                 0.1843
 IR Inten    --      2.5573                19.1604                 0.9943

                     16                     17                     18
                      A                      A                      A
 Frequencies --    341.7115               383.2650               410.3899
 Red. masses --      5.0138                 8.0934                 2.9360
 Frc consts  --      0.3449                 0.7005                 0.2913
 IR Inten    --      3.4509                 2.1198                 3.9676

                     19                     20                     21
                      A                      A                      A
 Frequencies --    441.0722               493.1621               502.6708
 Red. masses --      2.1566                 6.5767                 2.0678
 Frc consts  --      0.2472                 0.9424                 0.3078
 IR Inten    --      3.6690                 9.3332                31.7904

                     22                     23                     24
                      A                      A                      A
 Frequencies --    529.7076               561.0500               584.4732
 Red. masses --      3.5453                 3.2942                 2.7478
 Frc consts  --      0.5861                 0.6109                 0.5530
 IR Inten    --      9.5187                 1.9224                20.1911

                     25                     26                     27
                      A                      A                      A
 Frequencies --    603.9004               636.5561               650.6102
 Red. masses --      3.9705                 4.3169                 1.6150
 Frc consts  --      0.8531                 1.0306                 0.4028
 IR Inten    --     15.0947                23.2607                36.2664

                     28                     29                     30
                      A                      A                      A
 Frequencies --    661.7809               680.0623               687.4988
 Red. masses --      2.0714                 2.8458                 2.0976
 Frc consts  --      0.5345                 0.7755                 0.5841
 IR Inten    --     51.4806                55.2615               105.0064

                     31                     32                     33
                      A                      A                      A
 Frequencies --    714.2827               771.0313               799.6964
 Red. masses --      5.4705                 2.4166                 2.5578
 Frc consts  --      1.6444                 0.8464                 0.9638
 IR Inten    --     33.5651                55.9548                61.3583

                     34                     35                     36
                      A                      A                      A
 Frequencies --    827.6696               866.5719               869.8917
 Red. masses --      2.0168                 3.9625                 2.0265
 Frc consts  --      0.8140                 1.7532                 0.9035
 IR Inten    --      6.5583                32.4394                79.4573

                     37                     38                     39
                      A                      A                      A
 Frequencies --    928.9788               944.7387               946.2846
 Red. masses --      1.6901                 1.5107                 2.4534
 Frc consts  --      0.8594                 0.7944                 1.2944
 IR Inten    --      2.6890                28.6466                 7.5429

                     40                     41                     42
                      A                      A                      A
 Frequencies --    970.9429               981.2400               992.8363
 Red. masses --      2.3084                 2.3000                 2.4821
 Frc consts  --      1.2822                 1.3047                 1.4415
 IR Inten    --     13.9900                14.3396                 2.5947

                     43                     44                     45
                      A                      A                      A
 Frequencies --   1039.3854              1100.7042              1117.8209
 Red. masses --      1.0997                 2.1434                 2.0915
 Frc consts  --      0.7000                 1.5300                 1.5397
 IR Inten    --     12.6001                16.2568                 6.7452

                     46                     47                     48
                      A                      A                      A
 Frequencies --   1126.7755              1157.0190              1167.6177
 Red. masses --      2.1463                 4.6167                 2.9912
 Frc consts  --      1.6055                 3.6413                 2.4027
 IR Inten    --     37.3197               150.1039                24.2698

                     49                     50                     51
                      A                      A                      A
 Frequencies --   1190.2164              1205.6860              1256.7025
 Red. masses --      2.1856                 2.0010                 1.2872
 Frc consts  --      1.8242                 1.7138                 1.1978
 IR Inten    --     19.5960               191.4537                17.1177

                     52                     53                     54
                      A                      A                      A
 Frequencies --   1280.4771              1314.1512              1323.0483
 Red. masses --      1.6398                 1.6144                 1.3050
 Frc consts  --      1.5841                 1.6427                 1.3459
 IR Inten    --     64.6851                93.9676                 0.7509

                     55                     56                     57
                      A                      A                      A
 Frequencies --   1335.1893              1336.7066              1382.8293
 Red. masses --      1.4404                 1.9378                 1.3426
 Frc consts  --      1.5130                 2.0400                 1.5126
 IR Inten    --     10.5963                17.2064                15.7517

                     58                     59                     60
                      A                      A                      A
 Frequencies --   1402.3354              1411.2191              1429.5896
 Red. masses --      1.3530                 3.8486                 1.4720
 Frc consts  --      1.5676                 4.5159                 1.7725
 IR Inten    --      4.9304                41.6502                41.1321

                     61                     62                     63
                      A                      A                      A
 Frequencies --   1478.6407              1481.0100              1499.1610
 Red. masses --      1.2042                 1.4344                 1.1698
 Frc consts  --      1.5512                 1.8537                 1.5490
 IR Inten    --      4.2394                23.8714                28.4788

                     64                     65                     66
                      A                      A                      A
 Frequencies --   1509.7252              1535.7143              1536.8201
 Red. masses --      1.1122                 1.1568                 1.1294
 Frc consts  --      1.4936                 1.6074                 1.5717
 IR Inten    --      8.4323                 8.9930                23.9876

                     67                     68                     69
                      A                      A                      A
 Frequencies --   1546.7875              1569.2871              1737.3799
 Red. masses --      7.3654                 9.5469                 4.5595
 Frc consts  --     10.3826                13.8522                 8.1089
 IR Inten    --     87.1488                17.0249                 6.8148

                     70                     71                     72
                      A                      A                      A
 Frequencies --   1789.2773              1824.9604              2974.7778
 Red. masses --      8.4427                10.1163                 1.0696
 Frc consts  --     15.9252                19.8508                 5.5768
 IR Inten    --    281.4698               299.3691                45.5404

                     73                     74                     75
                      A                      A                      A
 Frequencies --   3028.3379              3059.5425              3095.3644
 Red. masses --      1.0713                 1.0901                 1.0623
 Frc consts  --      5.7885                 6.0123                 5.9968
 IR Inten    --     30.8076                 9.9229                17.4617

                     76                     77                     78
                      A                      A                      A
 Frequencies --   3137.9208              3150.7193              3153.0250
 Red. masses --      1.0947                 1.1009                 1.0608
 Frc consts  --      6.3510                 6.4389                 6.2136
 IR Inten    --      2.5798                 3.6483                16.0203

                     79                     80                     81
                      A                      A                      A
 Frequencies --   3164.1232              3235.5496              3295.5837
 Red. masses --      1.0895                 1.1157                 1.0949
 Frc consts  --      6.4267                 6.8815                 7.0062
 IR Inten    --      9.2492                24.3094                 8.6663

                     82                     83                     84
                      A                      A                      A
 Frequencies --   3484.1750              3568.9948              3692.1015
 Red. masses --      1.0729                 1.0759                 1.0641
 Frc consts  --      7.6736                 8.0744                 8.5461
 IR Inten    --      3.0224                13.2738                78.3854

 - Thermochemistry -
 -------------------
 Temperature   298.150 Kelvin.  Pressure   1.00000 Atm.
 Atom     1 has atomic number  6 and mass  12.00000

 Molecular mass:   255.06776 amu.
 Principal axes and moments of inertia in atomic units:
                           1         2         3
     Eigenvalues --  4044.319795186.073627959.48944
           X            0.99722  -0.07442  -0.00414
           Y            0.07448   0.99706   0.01778
           Z            0.00281  -0.01804   0.99983
 This molecule is an asymmetric top.
 Rotational symmetry number  1.
 Warning -- assumption of classical behavior for rotation
           may cause significant error
 Rotational temperatures (Kelvin)      0.02142     0.01670     0.01088
 Rotational constants (GHZ):           0.44624     0.34800     0.22674
 Zero-point vibrational energy     616039.8 (Joules/Mol)
                                  147.23705 (Kcal/Mol)
 Warning -- explicit consideration of  25 degrees of freedom as
           vibrations may cause significant error
 Vibrational temperatures:     17.53    35.28    68.35    82.85    95.69
          (Kelvin)            105.83   126.77   194.92   202.36   222.79
                              283.30   308.34   372.17   418.17   465.93
                              491.65   551.43   590.46   634.60   709.55
                              723.23   762.13   807.23   840.93   868.88
                              915.86   936.08   952.16   978.46   989.16
                             1027.69  1109.34  1150.58  1190.83  1246.80
                             1251.58  1336.59  1359.27  1361.49  1396.97
                             1411.79  1428.47  1495.44  1583.67  1608.30
                             1621.18  1664.69  1679.94  1712.46  1734.71
                             1808.11  1842.32  1890.77  1903.57  1921.04
                             1923.22  1989.58  2017.65  2030.43  2056.86
                             2127.43  2130.84  2156.96  2172.16  2209.55
                             2211.14  2225.48  2257.85  2499.70  2574.37
                             2625.71  4280.04  4357.10  4402.00  4453.54
                             4514.77  4533.18  4536.50  4552.47  4655.23
                             4741.61  5012.95  5134.99  5312.11

 Zero-point correction=                           0.234637 (Hartree/Particle)
 Thermal correction to Energy=                    0.251753
 Thermal correction to Enthalpy=                  0.252697
 Thermal correction to Gibbs Free Energy=         0.186208
 Sum of electronic and zero-point Energies=          -1176.809186
 Sum of electronic and thermal Energies=             -1176.792071
 Sum of electronic and thermal Enthalpies=           -1176.791127
 Sum of electronic and thermal Free Energies=        -1176.857615

                     E (Thermal)             CV                S
                      KCal/Mol        Cal/Mol-Kelvin    Cal/Mol-Kelvin
 Total                  157.977             61.897            139.937
 Electronic               0.000              0.000              0.000
 Translational            0.889              2.981             42.509
 Rotational               0.889              2.981             33.478
 Vibrational            156.200             55.936             63.949
 Vibration     1          0.593              1.987              7.618
 Vibration     2          0.593              1.985              6.230
 Vibration     3          0.595              1.979              4.919
 Vibration     4          0.596              1.974              4.538
 Vibration     5          0.598              1.970              4.254
 Vibration     6          0.599              1.966              4.056
 Vibration     7          0.601              1.958              3.702
 Vibration     8          0.613              1.918              2.867
 Vibration     9          0.615              1.913              2.795
 Vibration    10          0.620              1.897              2.612
 Vibration    11          0.636              1.844              2.162
 Vibration    12          0.644              1.819              2.007
 Vibration    13          0.667              1.748              1.671
 Vibration    14          0.687              1.691              1.470
 Vibration    15          0.708              1.628              1.291
 Vibration    16          0.721              1.592              1.204
 Vibration    17          0.752              1.506              1.026
 Vibration    18          0.775              1.448              0.925
 Vibration    19          0.801              1.381              0.823
 Vibration    20          0.849              1.265              0.675
 Vibration    21          0.858              1.244              0.651
 Vibration    22          0.885              1.184              0.588
 Vibration    23          0.917              1.116              0.522
 Vibration    24          0.941              1.065              0.477
 Vibration    25          0.962              1.024              0.443

 Optimization completed.
    -- Stationary point found.
 Normal termination of Gaussian 16 at Mon Dec 14 13:36:45 2020.

 ----------------------------------------------------------------------
 # B3LYP/6-311++G(d,p) empiricaldispersion=gd3bj scf=xqc pop=npa geom=c
 heck
 ----------------------------------------------------------------------

 --------------------------------------
 CID_79280082_JID_7414_Energie_neutraal
 --------------------------------------
 Structure from the checkpoint file:  "JID_7414.chk"
 Charge =  0 Multiplicity = 1

 SCF Done:  E(RB3LYP) =  -1177.30816962     A.U. after   16 cycles
 Normal termination of Gaussian 16 at Mon Dec 14 13:41:58 2020.

 ----------------------------------------------------------------------
 # B3LYP/6-311++G(d,p) empiricaldispersion=gd3bj scf=xqc pop=npa geom=c
 heck
 ----------------------------------------------------------------------

 ------------------------------------
 CID_79280082_JID_7414_Energie_kation
 ------------------------------------
 Structure from the checkpoint file:  "JID_7414.chk"
 Charge =  1 Multiplicity = 2

 SCF Done:  E(UB3LYP) =  -1176.99946481     A.U. after   30 cycles
 Normal termination of Gaussian 16 at Mon Dec 14 13:56:14 2020.
 Gaussian 16:  ES64L-G16RevA.03 25-Dec-2016

 ----------------------------------------------------------------------
 # B3LYP/6-311++G(d,p) empiricaldispersion=gd3bj scf=xqc pop=npa geom=c
 heck
 ----------------------------------------------------------------------

 -----------------------------------
 CID_79280082_JID_7414_Energie_anion
 -----------------------------------
 Structure from the checkpoint file:  "JID_7414.chk"
 Charge = -1 Multiplicity = 2

                         Standard orientation:
 ---------------------------------------------------------------------
 Center     Atomic      Atomic             Coordinates (Angstroms)
 Number     Number       Type             X           Y           Z
 ---------------------------------------------------------------------
      1          6           0       -3.593924    2.407764    1.479132
      2          6           0       -3.278679    1.965251    0.262355
      3          6           0       -2.255882    0.903020   -0.017254
      4          7           0       -2.855543   -0.182252   -0.807392
      5          6           0       -1.891443   -1.211393   -1.147144
      6          6           0       -1.522020   -2.100675    0.052445
      7          8           0       -2.284419   -2.231971    0.999888
      8          7           0       -0.348140   -2.824977   -0.004577
      9          6           0        0.811078   -2.500041   -0.827206
     10          6           0        1.522629   -1.251607   -0.366312
     11          7           0        1.231222   -0.058540   -0.787843
     12          6           0        1.940540    0.904726   -0.104273
     13          6           0        2.798192    0.437462    0.858277
     14         16           0        2.725152   -1.281784    0.929552
     15          6           0        1.776092    2.351576   -0.369851
     16          8           0        2.405109    3.217969    0.202612
     17          8           0        0.841215    2.608778   -1.309822
     18          1           0       -3.115383    2.006789    2.370391
     19          1           0       -4.336821    3.185708    1.633669
     20          1           0       -3.783335    2.366901   -0.616160
     21          1           0       -1.438578    1.326270   -0.616711
     22          1           0       -1.812826    0.554036    0.931814
     23          1           0       -3.582880   -0.615739   -0.238656
     24          1           0       -2.316065   -1.877358   -1.913018
     25          1           0       -1.010916   -0.733395   -1.580936
     26          1           0       -0.168328   -3.333127    0.854857
     27          1           0        1.487007   -3.359355   -0.808225
     28          1           0        0.503399   -2.351457   -1.864176
     29          1           0        3.443979    1.024208    1.495242
     30          1           0        0.800796    3.580738   -1.384683
 ---------------------------------------------------------------------

 SCF Done:  E(UB3LYP) =  -1177.32589456     A.U. after   32 cycles

 The electronic state is 2-A.
 Alpha  occ. eigenvalues --  -88.73060 -19.03150 -18.99219 -18.96052 -14.23404
 Alpha  occ. eigenvalues --  -14.19783 -14.17869 -10.17086 -10.14779 -10.11285
 Alpha  occ. eigenvalues --  -10.09676 -10.08757 -10.08625 -10.08198 -10.07401
 Alpha  occ. eigenvalues --  -10.05350 -10.03283  -7.81736  -5.78012  -5.77667
 Alpha  occ. eigenvalues --   -5.77390  -0.96888  -0.94294  -0.87493  -0.83358
 Alpha  occ. eigenvalues --   -0.81258  -0.80702  -0.68824  -0.65553  -0.64638
 Alpha  occ. eigenvalues --   -0.61354  -0.58540  -0.55002  -0.50845  -0.47517
 Alpha  occ. eigenvalues --   -0.46567  -0.44198  -0.42277  -0.40905  -0.39195
 Alpha  occ. eigenvalues --   -0.38179  -0.36654  -0.36205  -0.34835  -0.33959
 Alpha  occ. eigenvalues --   -0.33318  -0.32956  -0.31707  -0.31331  -0.30574
 Alpha  occ. eigenvalues --   -0.29278  -0.27485  -0.26761  -0.26298  -0.25864
 Alpha  occ. eigenvalues --   -0.25168  -0.24736  -0.22621  -0.19054  -0.17686
 Alpha  occ. eigenvalues --   -0.17193  -0.16255  -0.15244  -0.14391  -0.13842
 Alpha  occ. eigenvalues --   -0.13244  -0.11316   0.04186
 Alpha virt. eigenvalues --    0.07274   0.07592   0.08567   0.08982   0.09425
 Alpha virt. eigenvalues --    0.10197   0.10241   0.10387   0.11076   0.11638
 Alpha virt. eigenvalues --    0.12063   0.12629   0.13246   0.13551   0.14321

  Beta  occ. eigenvalues --  -88.72979 -19.03074 -18.99216 -18.95925 -14.23375
  Beta  occ. eigenvalues --  -14.19783 -14.17930 -10.17086 -10.14571 -10.11291
  Beta  occ. eigenvalues --  -10.09674 -10.08625 -10.08513 -10.08198 -10.07399
  Beta  occ. eigenvalues --  -10.05346 -10.02611  -7.81663  -5.77980  -5.77638
  Beta  occ. eigenvalues --   -5.77112  -0.96662  -0.94286  -0.87269  -0.83221
  Beta  occ. eigenvalues --   -0.81174  -0.80699  -0.68822  -0.64965  -0.64305
  Beta  occ. eigenvalues --   -0.61318  -0.58269  -0.54988  -0.50254  -0.47421
  Beta  occ. eigenvalues --   -0.46564  -0.43794  -0.41945  -0.40850  -0.39059
  Beta  occ. eigenvalues --   -0.38118  -0.36509  -0.36087  -0.34573  -0.33936
  Beta  occ. eigenvalues --   -0.33259  -0.32842  -0.31286  -0.30763  -0.30525
  Beta  occ. eigenvalues --   -0.29218  -0.27386  -0.26613  -0.25967  -0.25493
  Beta  occ. eigenvalues --   -0.24843  -0.24713  -0.22106  -0.18357  -0.17659
  Beta  occ. eigenvalues --   -0.17107  -0.16221  -0.14325  -0.13906  -0.13708
  Beta  occ. eigenvalues --   -0.13240  -0.09211
  Beta virt. eigenvalues --    0.07351   0.07615   0.08586   0.09010   0.09409
  Beta virt. eigenvalues --    0.10179   0.10223   0.10673   0.10965   0.11060
  Beta virt. eigenvalues --    0.11842   0.12496   0.12804   0.13263   0.13617

 Mulliken charges and spin densities:
               1          2
     1  C   -0.456032  -0.000328
     2  C    0.240864  -0.002231
     3  C   -0.664089   0.002946
     4  N   -0.009724   0.002885
     5  C   -0.245075  -0.080847
     6  C   -0.097300   0.034591
     7  O   -0.342008   0.003058
     8  N   -0.055582   0.001240
     9  C    0.249611  -0.533137
    10  C    0.302239   0.427148
    11  N    0.128171  -0.043286
    12  C   -0.961872  -0.055449
    13  C    0.390360   0.504604
    14  S   -0.567831   0.131214
    15  C   -0.398722   0.156396
    16  O   -0.398062   0.046588
    17  O   -0.197769   0.012500
    18  H    0.127954   0.001339
    19  H    0.116264   0.001529
    20  H    0.147340   0.000355
    21  H    0.206406   0.003181
    22  H    0.118503  -0.002027
    23  H    0.215621  -0.000247
    24  H    0.158478   0.030359
    25  H    0.209798  -0.023025
    26  H    0.241265   0.043846
    27  H   -0.159044   0.345216
    28  H    0.169645   0.025632
    29  H    0.260829  -0.033823
    30  H    0.269765  -0.000228
 Sum of Mulliken charges =  -1.00000   1.00000

 Dipole moment (field-independent basis, Debye):
    X=             -4.0564    Y=             -1.3713    Z=             -1.4480  Tot=              4.5201
 Quadrupole moment (field-independent basis, Debye-Ang):
   XX=           -153.0505   YY=           -138.2342   ZZ=           -119.6353
   XY=            -12.9598   XZ=              0.6302   YZ=              0.1614

 Summary of Natural Population Analysis:

                                       Natural Population
                Natural  -----------------------------------------------
    Atom  No    Charge         Core      Valence    Rydberg      Total
 -----------------------------------------------------------------------
      C    1   -0.19892      0.99957     2.19228    0.00706     3.19892
      C    2   -0.07714      0.99958     2.06817    0.00939     3.07714
      C    3   -0.11621      0.99960     2.10603    0.01058     3.11621
      N    4   -0.33629      0.99975     2.82424    0.01231     3.83629
      C    5   -0.14082      0.99959     2.13073    0.01050     3.14082
      C    6    0.34154      0.99969     1.63589    0.02288     2.65846
      O    7   -0.33050      0.99987     3.32421    0.00641     4.33050
      N    8   -0.31824      0.99968     2.80765    0.01092     3.81824
      C    9   -0.11483      0.99955     2.10080    0.01447     3.11483
      C   10    0.04749      0.99961     1.93379    0.01911     2.95251
      N   11   -0.25193      0.99962     2.74152    0.01078     3.75193
      C   12   -0.01735      0.99942     2.00425    0.01369     3.01735
      C   13   -0.03962      0.99951     2.03093    0.00918     3.03962
      S   14    0.19432      4.99943     2.78498    0.02127     7.80568
      C   15    0.41670      0.99966     1.55987    0.02377     2.58330
      O   16   -0.32138      0.99987     3.31502    0.00649     4.32138
      O   17   -0.34111      0.99988     3.33466    0.00657     4.34111
      H   18    0.09210      0.00000     0.40677    0.00114     0.40790
      H   19    0.08824      0.00000     0.41067    0.00110     0.41176
      H   20    0.09093      0.00000     0.40786    0.00121     0.40907
      H   21    0.11498      0.00000     0.38372    0.00130     0.38502
      H   22    0.08770      0.00000     0.41033    0.00197     0.41230
      H   23    0.17693      0.00000     0.32083    0.00224     0.32307
      H   24    0.10029      0.00000     0.39845    0.00126     0.39971
      H   25    0.11951      0.00000     0.37875    0.00174     0.38049
      H   26    0.19078      0.00000     0.30661    0.00261     0.30922
      H   27    0.10485      0.00000     0.39375    0.00140     0.39515
      H   28    0.10536      0.00000     0.39334    0.00130     0.39464
      H   29    0.10535      0.00000     0.39370    0.00095     0.39465
      H   30    0.22726      0.00000     0.26757    0.00517     0.27274
 =======================================================================
   * Total *   -0.00000     20.99387    45.76737    0.23875    67.00000

 Normal termination of Gaussian 16 at Mon Dec 14 14:11:21 2020.
