 Gaussian 16, Revision A.03,

 -----------------------------------------------------------
 # opt freq B3LYP/6-31G(d) empiricaldispersion=gd3bj scf=xqc
 -----------------------------------------------------------

 -------------------------------
 CID_147044807_JID_2915_neutraal
 -------------------------------
 Symbolic Z-matrix:
 Charge =  0 Multiplicity = 1

 SCF Done:  E(RB3LYP) =  -469.320017665     A.U. after   13 cycles
 SCF Done:  E(RB3LYP) =  -469.324456292     A.U. after   10 cycles
 SCF Done:  E(RB3LYP) =  -469.324960554     A.U. after   10 cycles
 SCF Done:  E(RB3LYP) =  -469.325152020     A.U. after   10 cycles
 SCF Done:  E(RB3LYP) =  -469.325253379     A.U. after    9 cycles
 SCF Done:  E(RB3LYP) =  -469.325319536     A.U. after    9 cycles
 SCF Done:  E(RB3LYP) =  -469.325325531     A.U. after    8 cycles
 SCF Done:  E(RB3LYP) =  -469.325327143     A.U. after    7 cycles
 SCF Done:  E(RB3LYP) =  -469.325327462     A.U. after    6 cycles
 SCF Done:  E(RB3LYP) =  -469.325327540     A.U. after    6 cycles
 SCF Done:  E(RB3LYP) =  -469.325327610     A.U. after    6 cycles
 Optimization completed.
    -- Stationary point found.
 Normal termination of Gaussian 16 at Wed Dec  9 18:17:45 2020.

 --------------------------------------------------------------------
 #N Geom=AllCheck Guess=TCheck SCRF=Check GenChk RB3LYP/6-31G(d) Freq
 --------------------------------------------------------------------

 Structure from the checkpoint file:  "JID_2915.chk"
 -------------------------------
 CID_147044807_JID_2915_neutraal
 -------------------------------
 Charge =  0 Multiplicity = 1

 SCF Done:  E(RB3LYP) =  -469.325327610     A.U. after    1 cycles

  Exact polarizability: 132.935  -1.166 112.976  -0.296  -1.158 105.019
 Approx polarizability: 168.847  -2.029 163.557  -0.876  -1.444 159.839

                      1                      2                      3
                      A                      A                      A
 Frequencies --     61.4471                97.1935               126.4842
 Red. masses --      3.1177                 2.4322                 2.5985
 Frc consts  --      0.0069                 0.0135                 0.0245
 IR Inten    --      0.0047                 0.0031                 0.0024

                      4                      5                      6
                      A                      A                      A
 Frequencies --    165.4207               182.6900               197.0373
 Red. masses --      1.2567                 1.7506                 1.2966
 Frc consts  --      0.0203                 0.0344                 0.0297
 IR Inten    --      0.0257                 0.1077                 0.0246

                      7                      8                      9
                      A                      A                      A
 Frequencies --    202.5236               250.6205               287.9332
 Red. masses --      1.4054                 1.9331                 2.5046
 Frc consts  --      0.0340                 0.0715                 0.1223
 IR Inten    --      0.2745                 0.0231                 0.0827

                     10                     11                     12
                      A                      A                      A
 Frequencies --    311.3838               354.3495               362.4118
 Red. masses --      2.2685                 1.9875                 2.7500
 Frc consts  --      0.1296                 0.1470                 0.2128
 IR Inten    --      0.1298                 0.2775                 0.6952

                     13                     14                     15
                      A                      A                      A
 Frequencies --    376.6419               397.0129               441.6727
 Red. masses --      2.2459                 2.1406                 2.3172
 Frc consts  --      0.1877                 0.1988                 0.2663
 IR Inten    --      0.6336                 0.0223                 0.4463

                     16                     17                     18
                      A                      A                      A
 Frequencies --    474.8131               520.2913               639.1597
 Red. masses --      2.4582                 2.4109                 2.5540
 Frc consts  --      0.3265                 0.3845                 0.6147
 IR Inten    --      0.3995                 0.3067                 1.5253

                     19                     20                     21
                      A                      A                      A
 Frequencies --    668.3502               717.0691               747.2515
 Red. masses --      2.5614                 3.2000                 3.2892
 Frc consts  --      0.6741                 0.9694                 1.0821
 IR Inten    --      0.6779                 0.7792                 2.1937

                     22                     23                     24
                      A                      A                      A
 Frequencies --    795.7134               833.2419               837.8754
 Red. masses --      2.3688                 1.4743                 2.0145
 Frc consts  --      0.8837                 0.6031                 0.8333
 IR Inten    --      4.9631                 7.6588                 0.7814

                     25                     26                     27
                      A                      A                      A
 Frequencies --    869.7605               888.8093               915.0071
 Red. masses --      2.1494                 1.9574                 2.1116
 Frc consts  --      0.9580                 0.9111                 1.0416
 IR Inten    --      4.3074                 0.8871                 1.3441

                     28                     29                     30
                      A                      A                      A
 Frequencies --    924.7546               944.2379               956.8028
 Red. masses --      1.4776                 1.7889                 1.7887
 Frc consts  --      0.7445                 0.9397                 0.9648
 IR Inten    --      0.4109                 0.9373                 6.1833

                     31                     32                     33
                      A                      A                      A
 Frequencies --    978.5742               985.1963              1004.4176
 Red. masses --      1.4060                 1.5879                 1.8464
 Frc consts  --      0.7933                 0.9081                 1.0975
 IR Inten    --      0.8186                 0.7135                 9.2172

                     34                     35                     36
                      A                      A                      A
 Frequencies --   1023.1968              1036.2431              1052.6704
 Red. masses --      2.0187                 1.7209                 1.3594
 Frc consts  --      1.2452                 1.0887                 0.8875
 IR Inten    --      5.1532                 0.2358                 0.0537

                     37                     38                     39
                      A                      A                      A
 Frequencies --   1062.6589              1065.8704              1076.3717
 Red. masses --      1.3595                 1.3526                 1.6948
 Frc consts  --      0.9045                 0.9054                 1.1569
 IR Inten    --      2.6347                 0.3554                 0.6919

                     40                     41                     42
                      A                      A                      A
 Frequencies --   1105.5607              1117.6074              1122.0871
 Red. masses --      1.2811                 1.4888                 1.3701
 Frc consts  --      0.9226                 1.0957                 1.0164
 IR Inten    --      1.5725                 3.1701                 2.7830

                     43                     44                     45
                      A                      A                      A
 Frequencies --   1143.9929              1166.0252              1192.0551
 Red. masses --      1.6917                 1.8703                 1.6051
 Frc consts  --      1.3044                 1.4982                 1.3439
 IR Inten    --      1.5128                10.7258                 0.6435

                     46                     47                     48
                      A                      A                      A
 Frequencies --   1215.8173              1219.7554              1222.8578
 Red. masses --      1.9947                 1.5680                 1.4388
 Frc consts  --      1.7373                 1.3745                 1.2676
 IR Inten    --      6.8949                 1.9728                 1.1321

                     49                     50                     51
                      A                      A                      A
 Frequencies --   1257.5688              1306.3424              1316.0916
 Red. masses --      2.8640                 1.3891                 1.7173
 Frc consts  --      2.6686                 1.3966                 1.7525
 IR Inten    --      0.8479                 4.4570                 0.1567

                     52                     53                     54
                      A                      A                      A
 Frequencies --   1337.5364              1345.2826              1358.2376
 Red. masses --      1.9824                 1.6274                 1.6245
 Frc consts  --      2.0895                 1.7353                 1.7657
 IR Inten    --      0.3123                 1.5732                 1.8692

                     55                     56                     57
                      A                      A                      A
 Frequencies --   1381.3894              1406.8680              1425.3453
 Red. masses --      1.7086                 1.9142                 1.6842
 Frc consts  --      1.9209                 2.2323                 2.0159
 IR Inten    --      1.0360                 0.1177                 0.6834

                     58                     59                     60
                      A                      A                      A
 Frequencies --   1441.4267              1444.7030              1458.6802
 Red. masses --      1.3444                 1.2347                 1.2924
 Frc consts  --      1.6458                 1.5184                 1.6202
 IR Inten    --      1.2994                 5.6993                 2.1470

                     61                     62                     63
                      A                      A                      A
 Frequencies --   1512.1685              1515.3915              1516.2905
 Red. masses --      1.0478                 1.2214                 1.1164
 Frc consts  --      1.4117                 1.6526                 1.5123
 IR Inten    --      0.3963                 1.4722                 3.3314

                     64                     65                     66
                      A                      A                      A
 Frequencies --   1518.9107              1521.9273              1527.3425
 Red. masses --      1.1799                 1.0702                 1.0616
 Frc consts  --      1.6039                 1.4605                 1.4591
 IR Inten    --      2.1737                 3.3745                 2.4059

                     67                     68                     69
                      A                      A                      A
 Frequencies --   1534.6172              1538.6583              1545.0836
 Red. masses --      1.0754                 1.0588                 1.1137
 Frc consts  --      1.4922                 1.4770                 1.5665
 IR Inten    --     10.3747                 7.8431                 3.3428

                     70                     71                     72
                      A                      A                      A
 Frequencies --   1555.9442              3036.0569              3041.6741
 Red. masses --      1.0919                 1.0398                 1.0402
 Frc consts  --      1.5575                 5.6471                 5.6700
 IR Inten    --      9.9105                19.2482                59.6923

                     73                     74                     75
                      A                      A                      A
 Frequencies --   3051.6575              3058.1721              3062.8830
 Red. masses --      1.0597                 1.0413                 1.0714
 Frc consts  --      5.8146                 5.7379                 5.9219
 IR Inten    --     30.7567                34.1078                40.3441

                     76                     77                     78
                      A                      A                      A
 Frequencies --   3078.2471              3086.7146              3087.4408
 Red. masses --      1.0800                 1.0980                 1.1018
 Frc consts  --      6.0294                 6.1635                 6.1882
 IR Inten    --     18.9173                32.7321                 1.1287

                     79                     80                     81
                      A                      A                      A
 Frequencies --   3092.0823              3108.9847              3114.4931
 Red. masses --      1.1010                 1.1035                 1.1012
 Frc consts  --      6.2023                 6.2844                 6.2933
 IR Inten    --     72.9742                29.3410                33.2952

                     82                     83                     84
                      A                      A                      A
 Frequencies --   3126.2409              3131.7811              3135.3165
 Red. masses --      1.0551                 1.0988                 1.0555
 Frc consts  --      6.0756                 6.3497                 6.1131
 IR Inten    --     16.8526                24.6363                27.4198

                     85                     86                     87
                      A                      A                      A
 Frequencies --   3144.5120              3152.7616              3170.2946
 Red. masses --      1.0947                 1.0946                 1.0885
 Frc consts  --      6.3777                 6.4105                 6.4460
 IR Inten    --     34.1484                36.2664                21.2395

                     88                     89                     90
                      A                      A                      A
 Frequencies --   3179.3072              3203.7470              3215.3681
 Red. masses --      1.0941                 1.1170                 1.1148
 Frc consts  --      6.5161                 6.7552                 6.7907
 IR Inten    --     13.9876                18.2029                20.6590

 - Thermochemistry -
 -------------------
 Temperature   298.150 Kelvin.  Pressure   1.00000 Atm.
 Atom     1 has atomic number  6 and mass  12.00000

 Molecular mass:   164.15650 amu.
 Principal axes and moments of inertia in atomic units:
                           1         2         3
     Eigenvalues --  1067.919042758.895773045.51088
           X            0.99994  -0.00725   0.00832
           Y            0.00699   0.99949   0.03111
           Z           -0.00854  -0.03105   0.99948
 This molecule is an asymmetric top.
 Rotational symmetry number  1.
 Warning -- assumption of classical behavior for rotation
           may cause significant error
 Rotational temperatures (Kelvin)      0.08111     0.03139     0.02844
 Rotational constants (GHZ):           1.68996     0.65415     0.59259
 Zero-point vibrational energy     773879.0 (Joules/Mol)
                                  184.96151 (Kcal/Mol)
 Warning -- explicit consideration of  17 degrees of freedom as
           vibrations may cause significant error
 Vibrational temperatures:     88.41   139.84   181.98   238.00   262.85
          (Kelvin)            283.49   291.39   360.59   414.27   448.01
                              509.83   521.43   541.90   571.21   635.47
                              683.15   748.58   919.61   961.61  1031.70
                             1075.13  1144.85  1198.85  1205.52  1251.39
                             1278.80  1316.49  1330.52  1358.55  1376.63
                             1407.95  1417.48  1445.13  1472.15  1490.92
                             1514.56  1528.93  1533.55  1548.66  1590.66
                             1607.99  1614.43  1645.95  1677.65  1715.10
                             1749.29  1754.96  1759.42  1809.36  1879.54
                             1893.56  1924.42  1935.56  1954.20  1987.51
                             2024.17  2050.75  2073.89  2078.61  2098.72
                             2175.67  2180.31  2181.60  2185.37  2189.71
                             2197.51  2207.97  2213.79  2223.03  2238.66
                             4368.21  4376.29  4390.65  4400.03  4406.81
                             4428.91  4441.09  4442.14  4448.82  4473.14
                             4481.06  4497.96  4505.93  4511.02  4524.25
                             4536.12  4561.35  4574.31  4609.48  4626.20

 Zero-point correction=                           0.294755 (Hartree/Particle)
 Thermal correction to Energy=                    0.307158
 Thermal correction to Enthalpy=                  0.308102
 Thermal correction to Gibbs Free Energy=         0.257300
 Sum of electronic and zero-point Energies=           -469.030573
 Sum of electronic and thermal Energies=              -469.018169
 Sum of electronic and thermal Enthalpies=            -469.017225
 Sum of electronic and thermal Free Energies=         -469.068027

                     E (Thermal)             CV                S
                      KCal/Mol        Cal/Mol-Kelvin    Cal/Mol-Kelvin
 Total                  192.745             49.720            106.922
 Electronic               0.000              0.000              0.000
 Translational            0.889              2.981             41.195
 Rotational               0.889              2.981             30.574
 Vibrational            190.967             43.759             35.153
 Vibration     1          0.597              1.973              4.410
 Vibration     2          0.603              1.951              3.510
 Vibration     3          0.611              1.927              2.999
 Vibration     4          0.624              1.885              2.487
 Vibration     5          0.630              1.863              2.301
 Vibration     6          0.636              1.844              2.161
 Vibration     7          0.639              1.836              2.110
 Vibration     8          0.663              1.762              1.726
 Vibration     9          0.685              1.696              1.486
 Vibration    10          0.700              1.652              1.355
 Vibration    11          0.730              1.566              1.147
 Vibration    12          0.736              1.550              1.112
 Vibration    13          0.747              1.520              1.053
 Vibration    14          0.764              1.477              0.974
 Vibration    15          0.801              1.379              0.821
 Vibration    16          0.832              1.306              0.724
 Vibration    17          0.875              1.205              0.609

                           ! Non-Optimized Parameters !
 Normal termination of Gaussian 16 at Wed Dec  9 18:27:18 2020.

 ----------------------------------------------------------------------
 # B3LYP/6-311++G(d,p) empiricaldispersion=gd3bj scf=xqc pop=npa geom=c
 heck
 ----------------------------------------------------------------------

 ---------------------------------------
 CID_147044807_JID_2915_Energie_neutraal
 ---------------------------------------
 Structure from the checkpoint file:  "JID_2915.chk"
 Charge =  0 Multiplicity = 1

 SCF Done:  E(RB3LYP) =  -469.448584399     A.U. after   13 cycles
 Normal termination of Gaussian 16 at Wed Dec  9 18:30:47 2020.

 ----------------------------------------------------------------------
 # B3LYP/6-311++G(d,p) empiricaldispersion=gd3bj scf=xqc pop=npa geom=c
 heck
 ----------------------------------------------------------------------

 -------------------------------------
 CID_147044807_JID_2915_Energie_kation
 -------------------------------------
 Structure from the checkpoint file:  "JID_2915.chk"
 Charge =  1 Multiplicity = 2

 SCF Done:  E(UB3LYP) =  -469.131224835     A.U. after   22 cycles
 Normal termination of Gaussian 16 at Wed Dec  9 18:39:09 2020.
 Gaussian 16:  ES64L-G16RevA.03 25-Dec-2016

 ----------------------------------------------------------------------
 # B3LYP/6-311++G(d,p) empiricaldispersion=gd3bj scf=xqc pop=npa geom=c
 heck
 ----------------------------------------------------------------------

 ------------------------------------
 CID_147044807_JID_2915_Energie_anion
 ------------------------------------
 Structure from the checkpoint file:  "JID_2915.chk"
 Charge = -1 Multiplicity = 2

                         Standard orientation:
 ---------------------------------------------------------------------
 Center     Atomic      Atomic             Coordinates (Angstroms)
 Number     Number       Type             X           Y           Z
 ---------------------------------------------------------------------
      1          6           0       -3.082114   -0.034850   -1.025706
      2          6           0       -2.068669    0.249478    0.072721
      3          6           0       -1.858934   -0.795867    1.149786
      4          6           0       -0.762666   -0.546636    0.133429
      5          6           0       -0.501224   -1.622812   -0.909478
      6          6           0        0.501778    0.163948    0.625471
      7          6           0        1.605850   -0.799227    1.156079
      8          6           0        2.621302   -1.000969    0.003464
      9          6           0        2.478172    0.236504   -0.869667
     10          6           0        1.189367    0.939523   -0.495776
     11          6           0        2.520118    1.577591   -0.180398
     12          6           0       -2.097157    1.717077    0.475039
     13          1           0       -3.180565   -1.098442   -1.254121
     14          1           0       -2.814923    0.485162   -1.954948
     15          1           0       -4.073321    0.324089   -0.721172
     16          1           0       -1.696976   -0.454925    2.170333
     17          1           0       -2.422821   -1.723790    1.080938
     18          1           0       -0.023914   -1.204629   -1.802955
     19          1           0        0.163777   -2.395031   -0.508038
     20          1           0       -1.417037   -2.126941   -1.223861
     21          1           0        0.218731    0.840150    1.437584
     22          1           0        2.106619   -0.338654    2.014025
     23          1           0        1.183531   -1.743514    1.513920
     24          1           0        3.641736   -1.140393    0.381061
     25          1           0        2.371960   -1.889817   -0.586861
     26          1           0        2.805135    0.182441   -1.904829
     27          1           0        0.561594    1.402880   -1.252167
     28          1           0        2.814878    2.436080   -0.777534
     29          1           0        2.845956    1.631168    0.856511
     30          1           0       -1.783199    2.361559   -0.356158
     31          1           0       -3.119408    2.007610    0.748304
     32          1           0       -1.456692    1.942423    1.330176
 ---------------------------------------------------------------------

 SCF Done:  E(UB3LYP) =  -469.430987701     A.U. after   29 cycles

 The electronic state is 2-A.
 Alpha  occ. eigenvalues --  -10.07855 -10.07559 -10.06789 -10.06733 -10.06445
 Alpha  occ. eigenvalues --  -10.06256 -10.06192 -10.06083 -10.05789 -10.05468
 Alpha  occ. eigenvalues --  -10.05418 -10.05132  -0.78280  -0.76104  -0.66318
 Alpha  occ. eigenvalues --   -0.63381  -0.60480  -0.59608  -0.57625  -0.51860
 Alpha  occ. eigenvalues --   -0.47218  -0.45196  -0.44619  -0.41508  -0.39273
 Alpha  occ. eigenvalues --   -0.37654  -0.35891  -0.34236  -0.33283  -0.32351
 Alpha  occ. eigenvalues --   -0.30613  -0.29489  -0.28826  -0.28318  -0.27857
 Alpha  occ. eigenvalues --   -0.26989  -0.26147  -0.25057  -0.24097  -0.23844
 Alpha  occ. eigenvalues --   -0.22769  -0.21639  -0.18443  -0.16829  -0.16198
 Alpha  occ. eigenvalues --   -0.15170   0.04701
 Alpha virt. eigenvalues --    0.06980   0.07431   0.07577   0.08950   0.09120
 Alpha virt. eigenvalues --    0.09389   0.09798   0.10035   0.11155   0.11638
 Alpha virt. eigenvalues --    0.12023   0.12073   0.12626   0.13568   0.14016

  Beta  occ. eigenvalues --  -10.07853 -10.07555 -10.06784 -10.06721 -10.06435
  Beta  occ. eigenvalues --  -10.06242 -10.06172 -10.06067 -10.05772 -10.05441
  Beta  occ. eigenvalues --  -10.05385 -10.05105  -0.78261  -0.76089  -0.66293
  Beta  occ. eigenvalues --   -0.63348  -0.60449  -0.59564  -0.57571  -0.51813
  Beta  occ. eigenvalues --   -0.47167  -0.45149  -0.44579  -0.41464  -0.39221
  Beta  occ. eigenvalues --   -0.37621  -0.35853  -0.34211  -0.33249  -0.32322
  Beta  occ. eigenvalues --   -0.30583  -0.29459  -0.28796  -0.28288  -0.27824
  Beta  occ. eigenvalues --   -0.26958  -0.26121  -0.25028  -0.24073  -0.23816
  Beta  occ. eigenvalues --   -0.22739  -0.21616  -0.18418  -0.16808  -0.16179
  Beta  occ. eigenvalues --   -0.15147
  Beta virt. eigenvalues --    0.06809   0.07708   0.08091   0.08311   0.09396
  Beta virt. eigenvalues --    0.09577   0.09929   0.10363   0.10457   0.11562
  Beta virt. eigenvalues --    0.12072   0.12446   0.12467   0.12975   0.13898

 Mulliken charges and spin densities:
               1          2
     1  C    0.835997  -1.408545
     2  C   -2.113550   2.627893
     3  C    0.298855  -1.082166
     4  C   -0.267851   0.480951
     5  C    1.165374  -1.771074
     6  C    1.153723  -0.527843
     7  C   -0.003927  -0.688837
     8  C    0.456942  -0.875229
     9  C   -0.530044   0.594196
    10  C   -1.799449   1.398322
    11  C    1.510600  -2.074761
    12  C    0.564890  -1.101226
    13  H   -0.232323   0.362927
    14  H   -0.171673   0.324476
    15  H   -0.132650   0.262281
    16  H   -0.089896   0.229588
    17  H   -0.149983   0.317325
    18  H   -0.043712   0.234640
    19  H   -0.173236   0.340715
    20  H    0.019608   0.102651
    21  H    0.424896  -0.221583
    22  H   -0.104806   0.262410
    23  H    0.139285   0.013092
    24  H   -0.166805   0.329809
    25  H    0.078602   0.013272
    26  H   -0.570654   0.788177
    27  H   -0.280160   0.532512
    28  H   -0.314119   0.468806
    29  H   -0.094994   0.229323
    30  H    0.048971   0.102494
    31  H   -0.136329   0.289861
    32  H   -0.321582   0.445542
 Sum of Mulliken charges =  -1.00000   1.00000

 Dipole moment (field-independent basis, Debye):
    X=              0.3186    Y=             -1.1878    Z=              2.6060  Tot=              2.8816
 Quadrupole moment (field-independent basis, Debye-Ang):
   XX=           -141.0114   YY=           -119.5524   ZZ=           -117.8701
   XY=             -2.6320   XZ=              1.8311   YZ=              1.3898

 Summary of Natural Population Analysis:

                                       Natural Population
                Natural  -----------------------------------------------
    Atom  No    Charge         Core      Valence    Rydberg      Total
 -----------------------------------------------------------------------
      C    1   -0.28042      0.99962     2.27466    0.00614     3.28042
      C    2   -0.03979      0.99953     2.02843    0.01182     3.03979
      C    3   -0.19322      0.99954     2.18401    0.00968     3.19322
      C    4   -0.03179      0.99949     2.01763    0.01466     3.03179
      C    5   -0.28428      0.99962     2.27787    0.00680     3.28428
      C    6   -0.10595      0.99954     2.09382    0.01258     3.10595
      C    7   -0.19258      0.99963     2.18472    0.00823     3.19258
      C    8   -0.19108      0.99963     2.18375    0.00770     3.19108
      C    9   -0.11024      0.99958     2.10016    0.01050     3.11024
      C   10   -0.10997      0.99956     2.09921    0.01120     3.10997
      C   11   -0.19895      0.99960     2.18976    0.00959     3.19895
      C   12   -0.28115      0.99962     2.27560    0.00592     3.28115
      H   13    0.10035      0.00000     0.39840    0.00124     0.39965
      H   14    0.10075      0.00000     0.39794    0.00131     0.39925
      H   15    0.09834      0.00000     0.40062    0.00104     0.40166
      H   16    0.10080      0.00000     0.39808    0.00112     0.39920
      H   17    0.10081      0.00000     0.39807    0.00112     0.39919
      H   18    0.10342      0.00000     0.39514    0.00144     0.39658
      H   19    0.09891      0.00000     0.39993    0.00116     0.40109
      H   20    0.10154      0.00000     0.39735    0.00111     0.39846
      H   21    0.10133      0.00000     0.39661    0.00206     0.39867
      H   22    0.09745      0.00000     0.40132    0.00124     0.40255
      H   23    0.10330      0.00000     0.39571    0.00099     0.39670
      H   24    0.09639      0.00000     0.40249    0.00113     0.40361
      H   25    0.09827      0.00000     0.40031    0.00142     0.40173
      H   26    0.10509      0.00000     0.39333    0.00158     0.39491
      H   27    0.10956      0.00000     0.38862    0.00182     0.39044
      H   28    0.10533      0.00000     0.39349    0.00118     0.39467
      H   29    0.09803      0.00000     0.40075    0.00122     0.40197
      H   30    0.10099      0.00000     0.39775    0.00126     0.39901
      H   31    0.09824      0.00000     0.40082    0.00095     0.40176
      H   32    0.10052      0.00000     0.39830    0.00118     0.39948
 =======================================================================
   * Total *   -0.00000     11.99497    33.86464    0.14039    46.00000

 Normal termination of Gaussian 16 at Wed Dec  9 18:48:32 2020.
