 Gaussian 16, Revision A.03,

 -----------------------------------------------------------
 # opt freq B3LYP/6-31G(d) empiricaldispersion=gd3bj scf=xqc
 -----------------------------------------------------------

 ------------------------------
 CID_88515796_JID_4725_neutraal
 ------------------------------
 Symbolic Z-matrix:
 Charge =  0 Multiplicity = 1

 SCF Done:  E(RB3LYP) =  -814.211642977     A.U. after   15 cycles
 SCF Done:  E(RB3LYP) =  -814.221510375     A.U. after   13 cycles
 SCF Done:  E(RB3LYP) =  -814.223287023     A.U. after   13 cycles
 SCF Done:  E(RB3LYP) =  -814.223021700     A.U. after   14 cycles
 SCF Done:  E(RB3LYP) =  -814.223072772     A.U. after   13 cycles
 SCF Done:  E(RB3LYP) =  -814.223861034     A.U. after   10 cycles
 SCF Done:  E(RB3LYP) =  -814.224494706     A.U. after   13 cycles
 SCF Done:  E(RB3LYP) =  -814.224861884     A.U. after   12 cycles
 SCF Done:  E(RB3LYP) =  -814.224923664     A.U. after   13 cycles
 SCF Done:  E(RB3LYP) =  -814.225179610     A.U. after   12 cycles
 SCF Done:  E(RB3LYP) =  -814.228856830     A.U. after    9 cycles
 SCF Done:  E(RB3LYP) =  -814.228863778     A.U. after   11 cycles
 SCF Done:  E(RB3LYP) =  -814.228873148     A.U. after   11 cycles
 SCF Done:  E(RB3LYP) =  -814.228875261     A.U. after   10 cycles
 SCF Done:  E(RB3LYP) =  -814.228875371     A.U. after    8 cycles
 SCF Done:  E(RB3LYP) =  -814.228875382     A.U. after    7 cycles
 Optimization completed.
    -- Stationary point found.
 Normal termination of Gaussian 16 at Thu Dec 10 10:50:51 2020.

 --------------------------------------------------------------------
 #N Geom=AllCheck Guess=TCheck SCRF=Check GenChk RB3LYP/6-31G(d) Freq
 --------------------------------------------------------------------

 Structure from the checkpoint file:  "JID_4725.chk"
 ------------------------------
 CID_88515796_JID_4725_neutraal
 ------------------------------
 Charge =  0 Multiplicity = 1

 SCF Done:  E(RB3LYP) =  -814.228875382     A.U. after    1 cycles

  Exact polarizability:  87.954   2.098  88.014  -1.371  -6.876  73.182
 Approx polarizability: 113.289   2.235 140.112  -0.984 -21.329 127.895

                      1                      2                      3
                      A                      A                      A
 Frequencies --     26.3907                50.5657                73.0564
 Red. masses --     10.8492                 4.9042                 6.2101
 Frc consts  --      0.0045                 0.0074                 0.0195
 IR Inten    --      0.5538                 1.0950                 2.2194

                      4                      5                      6
                      A                      A                      A
 Frequencies --    100.9520               124.5505               134.3174
 Red. masses --      8.8600                 7.1898                 6.6900
 Frc consts  --      0.0532                 0.0657                 0.0711
 IR Inten    --      2.4805                 2.0188                 1.9906

                      7                      8                      9
                      A                      A                      A
 Frequencies --    148.7086               169.8305               183.2750
 Red. masses --      5.8798                10.6450                 1.4261
 Frc consts  --      0.0766                 0.1809                 0.0282
 IR Inten    --      0.6953                10.2910                46.2194

                     10                     11                     12
                      A                      A                      A
 Frequencies --    210.7848               227.0934               279.3046
 Red. masses --      3.4773                 7.5993                 4.5254
 Frc consts  --      0.0910                 0.2309                 0.2080
 IR Inten    --     17.0076                 2.2954                10.2951

                     13                     14                     15
                      A                      A                      A
 Frequencies --    338.0316               405.7278               420.1429
 Red. masses --      6.2525                 3.2909                 5.1894
 Frc consts  --      0.4209                 0.3192                 0.5397
 IR Inten    --      1.0949                 3.5934                17.1710

                     16                     17                     18
                      A                      A                      A
 Frequencies --    462.1143               474.4685               534.9793
 Red. masses --      4.4584                 5.8637                 2.9916
 Frc consts  --      0.5610                 0.7777                 0.5045
 IR Inten    --      9.8209                27.3112                51.2939

                     19                     20                     21
                      A                      A                      A
 Frequencies --    574.3620               605.1143               623.1317
 Red. masses --      2.6824                 1.7753                 3.2248
 Frc consts  --      0.5214                 0.3830                 0.7378
 IR Inten    --     29.7764               164.8338                27.9262

                     22                     23                     24
                      A                      A                      A
 Frequencies --    647.5380               684.3488               738.8795
 Red. masses --      1.9680                 2.8936                 6.4097
 Frc consts  --      0.4862                 0.7985                 2.0617
 IR Inten    --     92.2470                82.6436                 5.8169

                     25                     26                     27
                      A                      A                      A
 Frequencies --    769.8091               780.1839               836.3037
 Red. masses --      5.4569                 5.4373                 5.8654
 Frc consts  --      1.9053                 1.9500                 2.4170
 IR Inten    --     52.5832                33.4555                39.4433

                     28                     29                     30
                      A                      A                      A
 Frequencies --    867.8138               920.7273               929.1074
 Red. masses --      2.4494                 4.2323                 4.6377
 Frc consts  --      1.0868                 2.1139                 2.3587
 IR Inten    --    127.7200                31.8978                17.5762

                     31                     32                     33
                      A                      A                      A
 Frequencies --    969.5805               978.4244              1062.7087
 Red. masses --      2.4918                 2.3420                 3.5324
 Frc consts  --      1.3802                 1.3210                 2.3504
 IR Inten    --     89.9005                14.6847               592.2305

                     34                     35                     36
                      A                      A                      A
 Frequencies --   1123.9234              1172.3759              1200.7059
 Red. masses --      2.7125                 2.4474                 1.7999
 Frc consts  --      2.0188                 1.9819                 1.5289
 IR Inten    --    195.0743                56.6912               320.7683

                     37                     38                     39
                      A                      A                      A
 Frequencies --   1220.0591              1250.0384              1262.7646
 Red. masses --      3.0049                 1.8402                 1.5930
 Frc consts  --      2.6354                 1.6942                 1.4966
 IR Inten    --     12.2289                61.6323               118.0325

                     40                     41                     42
                      A                      A                      A
 Frequencies --   1286.9546              1314.3079              1388.7109
 Red. masses --      1.3732                 1.4295                 1.7395
 Frc consts  --      1.3400                 1.4549                 1.9765
 IR Inten    --     13.7796                31.1262                26.7794

                     43                     44                     45
                      A                      A                      A
 Frequencies --   1419.9091              1432.9469              1481.2449
 Red. masses --      2.1309                 1.6655                 1.1543
 Frc consts  --      2.5312                 2.0149                 1.4921
 IR Inten    --     52.6199                16.0019                20.4788

                     46                     47                     48
                      A                      A                      A
 Frequencies --   1704.3326              1817.5870              1833.0845
 Red. masses --      1.0857                 9.2250                10.3539
 Frc consts  --      1.8580                17.9560                20.4983
 IR Inten    --     26.5394               164.8704               375.3655

                     49                     50                     51
                      A                      A                      A
 Frequencies --   1867.1611              1939.1860              3099.0223
 Red. masses --     12.8528                12.6472                 1.0630
 Frc consts  --     26.4004                28.0210                 6.0147
 IR Inten    --     96.5363               388.0858                 0.9018

                     52                     53                     54
                      A                      A                      A
 Frequencies --   3125.6590              3171.1091              3487.1695
 Red. masses --      1.0857                 1.1020                 1.0499
 Frc consts  --      6.2497                 6.5293                 7.5223
 IR Inten    --      2.0853                 0.0863                 2.6597

                     55                     56                     57
                      A                      A                      A
 Frequencies --   3571.1238              3625.1187              3631.6081
 Red. masses --      1.0924                 1.0640                 1.0639
 Frc consts  --      8.2084                 8.2381                 8.2668
 IR Inten    --      5.7471                90.5547               132.3697

 - Thermochemistry -
 -------------------
 Temperature   298.150 Kelvin.  Pressure   1.00000 Atm.
 Atom     1 has atomic number  6 and mass  12.00000

 Molecular mass:   205.02225 amu.
 Principal axes and moments of inertia in atomic units:
                           1         2         3
     Eigenvalues --  2130.497972430.785373510.05439
           X            0.99981   0.01896  -0.00534
           Y           -0.01897   0.99982  -0.00144
           Z            0.00532   0.00154   0.99998
 This molecule is an asymmetric top.
 Rotational symmetry number  1.
 Warning -- assumption of classical behavior for rotation
           may cause significant error
 Rotational temperatures (Kelvin)      0.04065     0.03563     0.02468
 Rotational constants (GHZ):           0.84710     0.74245     0.51416
 Zero-point vibrational energy     387461.1 (Joules/Mol)
                                   92.60542 (Kcal/Mol)
 Warning -- explicit consideration of  20 degrees of freedom as
           vibrations may cause significant error
 Vibrational temperatures:     37.97    72.75   105.11   145.25   179.20
          (Kelvin)            193.25   213.96   244.35   263.69   303.27
                              326.74   401.86   486.35   583.75   604.49
                              664.88   682.65   769.72   826.38   870.62
                              896.55   931.66   984.63  1063.08  1107.58
                             1122.51  1203.25  1248.59  1324.72  1336.78
                             1395.01  1407.73  1529.00  1617.08  1686.79
                             1727.55  1755.39  1798.53  1816.84  1851.64
                             1891.00  1998.05  2042.93  2061.69  2131.18
                             2452.15  2615.10  2637.40  2686.43  2790.06
                             4458.80  4497.13  4562.52  5017.26  5138.05
                             5215.74  5225.07

 Zero-point correction=                           0.147576 (Hartree/Particle)
 Thermal correction to Energy=                    0.161524
 Thermal correction to Enthalpy=                  0.162468
 Thermal correction to Gibbs Free Energy=         0.105707
 Sum of electronic and zero-point Energies=           -814.081299
 Sum of electronic and thermal Energies=              -814.067352
 Sum of electronic and thermal Enthalpies=            -814.066407
 Sum of electronic and thermal Free Energies=         -814.123169

                     E (Thermal)             CV                S
                      KCal/Mol        Cal/Mol-Kelvin    Cal/Mol-Kelvin
 Total                  101.358             49.208            119.464
 Electronic               0.000              0.000              0.000
 Translational            0.889              2.981             41.858
 Rotational               0.889              2.981             31.275
 Vibrational             99.580             43.247             46.331
 Vibration     1          0.593              1.985              6.084
 Vibration     2          0.595              1.977              4.795
 Vibration     3          0.599              1.967              4.069
 Vibration     4          0.604              1.948              3.436
 Vibration     5          0.610              1.928              3.029
 Vibration     6          0.613              1.919              2.883
 Vibration     7          0.618              1.904              2.689
 Vibration     8          0.625              1.880              2.437
 Vibration     9          0.631              1.863              2.295
 Vibration    10          0.643              1.824              2.037
 Vibration    11          0.651              1.800              1.902
 Vibration    12          0.680              1.712              1.538
 Vibration    13          0.718              1.600              1.221
 Vibration    14          0.771              1.458              0.942
 Vibration    15          0.783              1.426              0.891
 Vibration    16          0.820              1.334              0.760
 Vibration    17          0.831              1.307              0.725
 Vibration    18          0.890              1.173              0.576
 Vibration    19          0.931              1.087              0.496
 Vibration    20          0.964              1.021              0.441

 Optimization completed.
    -- Stationary point found.
 Normal termination of Gaussian 16 at Thu Dec 10 10:57:07 2020.

 ----------------------------------------------------------------------
 # B3LYP/6-311++G(d,p) empiricaldispersion=gd3bj scf=xqc pop=npa geom=c
 heck
 ----------------------------------------------------------------------

 --------------------------------------
 CID_88515796_JID_4725_Energie_neutraal
 --------------------------------------
 Structure from the checkpoint file:  "JID_4725.chk"
 Charge =  0 Multiplicity = 1

 SCF Done:  E(RB3LYP) =  -814.497538070     A.U. after   14 cycles
 Normal termination of Gaussian 16 at Thu Dec 10 10:59:41 2020.

 ----------------------------------------------------------------------
 # B3LYP/6-311++G(d,p) empiricaldispersion=gd3bj scf=xqc pop=npa geom=c
 heck
 ----------------------------------------------------------------------

 ------------------------------------
 CID_88515796_JID_4725_Energie_kation
 ------------------------------------
 Structure from the checkpoint file:  "JID_4725.chk"
 Charge =  1 Multiplicity = 2

 SCF Done:  E(UB3LYP) =  -814.140870936     A.U. after   23 cycles
 Normal termination of Gaussian 16 at Thu Dec 10 11:05:03 2020.
 Gaussian 16:  ES64L-G16RevA.03 25-Dec-2016

 ----------------------------------------------------------------------
 # B3LYP/6-311++G(d,p) empiricaldispersion=gd3bj scf=xqc pop=npa geom=c
 heck
 ----------------------------------------------------------------------

 -----------------------------------
 CID_88515796_JID_4725_Energie_anion
 -----------------------------------
 Structure from the checkpoint file:  "JID_4725.chk"
 Charge = -1 Multiplicity = 2

                         Standard orientation:
 ---------------------------------------------------------------------
 Center     Atomic      Atomic             Coordinates (Angstroms)
 Number     Number       Type             X           Y           Z
 ---------------------------------------------------------------------
      1          6           0        2.433894    0.261943    0.443903
      2          6           0        1.831085   -1.078246    0.065376
      3          8           0        1.680145   -1.447553   -1.082761
      4          8           0        1.406274   -1.761961    1.136534
      5          6           0        1.408588    1.368941    0.199605
      6          8           0        1.644315    2.479873   -0.166158
      7          8           0        0.146294    0.859777    0.486616
      8          6           0       -1.039479    1.338504   -0.086728
      9          8           0       -1.187363    2.405429   -0.593593
     10          6           0       -2.071286    0.209899    0.059603
     11          6           0       -1.410620   -1.064406   -0.492266
     12          8           0       -1.225405   -2.068608    0.164888
     13          8           0       -0.980044   -0.886394   -1.748007
     14          7           0       -2.473787    0.110487    1.450715
     15          1           0        3.308735    0.479910   -0.169912
     16          1           0        2.715114    0.274532    1.501531
     17          1           0        0.805042   -2.464076    0.811394
     18          1           0       -2.923876    0.493379   -0.562319
     19          1           0       -0.304761   -1.572214   -1.933418
     20          1           0       -3.318159   -0.453164    1.518901
     21          1           0       -1.752400   -0.396107    1.961710
 ---------------------------------------------------------------------

 SCF Done:  E(UB3LYP) =  -814.502867237     A.U. after   32 cycles

 The electronic state is 2-A.
 Alpha  occ. eigenvalues --  -19.06603 -19.05688 -19.04544 -19.01448 -19.00576
 Alpha  occ. eigenvalues --  -18.97967 -18.97206 -14.18440 -10.20881 -10.18916
 Alpha  occ. eigenvalues --  -10.16679 -10.15413 -10.10481 -10.08473  -1.01212
 Alpha  occ. eigenvalues --   -1.00047  -0.98542  -0.92430  -0.92209  -0.91286
 Alpha  occ. eigenvalues --   -0.88901  -0.78297  -0.67537  -0.62484  -0.54977
 Alpha  occ. eigenvalues --   -0.52005  -0.49330  -0.41316  -0.40952  -0.40605
 Alpha  occ. eigenvalues --   -0.38696  -0.38324  -0.37765  -0.36998  -0.35000
 Alpha  occ. eigenvalues --   -0.34123  -0.33849  -0.32567  -0.31161  -0.30478
 Alpha  occ. eigenvalues --   -0.29451  -0.28836  -0.26891  -0.25911  -0.25422
 Alpha  occ. eigenvalues --   -0.23442  -0.21381  -0.19861  -0.18881  -0.18119
 Alpha  occ. eigenvalues --   -0.16844  -0.15205  -0.12473   0.04798
 Alpha virt. eigenvalues --    0.07955   0.08392   0.08604   0.10088   0.10382
 Alpha virt. eigenvalues --    0.10798   0.11767   0.12349   0.13649   0.13911
 Alpha virt. eigenvalues --    0.14856   0.15719   0.16703   0.17609   0.18180

  Beta  occ. eigenvalues --  -19.06584 -19.05638 -19.04642 -19.01422 -19.00495
  Beta  occ. eigenvalues --  -18.97676 -18.96879 -14.18361 -10.20861 -10.18798
  Beta  occ. eigenvalues --  -10.16364 -10.15078 -10.10508 -10.08487  -1.01156
  Beta  occ. eigenvalues --   -0.99919  -0.98274  -0.92189  -0.91817  -0.91159
  Beta  occ. eigenvalues --   -0.88567  -0.78149  -0.67313  -0.62205  -0.54560
  Beta  occ. eigenvalues --   -0.51841  -0.49212  -0.41150  -0.40726  -0.40366
  Beta  occ. eigenvalues --   -0.38562  -0.38182  -0.37413  -0.36624  -0.34663
  Beta  occ. eigenvalues --   -0.33868  -0.33525  -0.32155  -0.30923  -0.30135
  Beta  occ. eigenvalues --   -0.29299  -0.28760  -0.26725  -0.25513  -0.23798
  Beta  occ. eigenvalues --   -0.23257  -0.21108  -0.19138  -0.18720  -0.18001
  Beta  occ. eigenvalues --   -0.16654  -0.15035  -0.12235
  Beta virt. eigenvalues --    0.07958   0.08771   0.09048   0.09979   0.10519
  Beta virt. eigenvalues --    0.10899   0.11381   0.12316   0.12822   0.13992
  Beta virt. eigenvalues --    0.14647   0.15591   0.16063   0.16735   0.17561

 Mulliken charges and spin densities:
               1          2
     1  C    0.411538  -0.767409
     2  C   -0.246881   0.130908
     3  O   -0.300789   0.022826
     4  O   -0.092610   0.017519
     5  C   -0.070823   0.417252
     6  O   -0.298125   0.105013
     7  O   -0.043233  -0.024675
     8  C    0.052611   0.126975
     9  O   -0.270727   0.115838
    10  C   -0.170413  -0.108556
    11  C   -0.089950  -0.093584
    12  O   -0.290447   0.041707
    13  O   -0.085428   0.012315
    14  N   -0.159058  -0.095642
    15  H    0.174345   0.015575
    16  H   -0.218106   0.434533
    17  H    0.172909   0.127308
    18  H    0.167053   0.071099
    19  H    0.270145   0.022333
    20  H   -0.117798   0.373074
    21  H    0.205784   0.055592
 Sum of Mulliken charges =  -1.00000   1.00000

 Dipole moment (field-independent basis, Debye):
    X=              1.1701    Y=             -4.3500    Z=             -1.0270  Tot=              4.6202
 Quadrupole moment (field-independent basis, Debye-Ang):
   XX=           -107.4189   YY=           -115.1706   ZZ=            -97.5921
   XY=             -1.3492   XZ=              3.7549   YZ=              4.1414

 Summary of Natural Population Analysis:

                                       Natural Population
                Natural  -----------------------------------------------
    Atom  No    Charge         Core      Valence    Rydberg      Total
 -----------------------------------------------------------------------
      C    1   -0.28516      0.99954     2.27668    0.00894     3.28516
      C    2    0.41406      0.99974     1.55888    0.02731     2.58594
      O    3   -0.32594      0.99986     3.31949    0.00660     4.32594
      O    4   -0.34115      0.99987     3.33465    0.00664     4.34115
      C    5    0.45130      0.99970     1.52555    0.02345     2.54870
      O    6   -0.24994      0.99986     3.24459    0.00549     4.24994
      O    7   -0.32776      0.99985     3.31906    0.00885     4.32776
      C    8    0.45706      0.99968     1.51740    0.02586     2.54294
      O    9   -0.24471      0.99986     3.23961    0.00524     4.24471
      C   10   -0.10281      0.99953     2.08831    0.01497     3.10281
      C   11    0.42078      0.99972     1.55088    0.02862     2.57922
      O   12   -0.32700      0.99986     3.31957    0.00757     4.32700
      O   13   -0.34164      0.99986     3.33574    0.00603     4.34164
      N   14   -0.40977      0.99977     2.89969    0.01032     3.90977
      H   15    0.11724      0.00000     0.38177    0.00099     0.38276
      H   16    0.12320      0.00000     0.37435    0.00245     0.37680
      H   17    0.25098      0.00000     0.24571    0.00332     0.24902
      H   18    0.11274      0.00000     0.38612    0.00115     0.38726
      H   19    0.24911      0.00000     0.24808    0.00281     0.25089
      H   20    0.17757      0.00000     0.31896    0.00347     0.32243
      H   21    0.18184      0.00000     0.31608    0.00208     0.31816
 =======================================================================
   * Total *    0.00000     13.99668    38.80117    0.20215    53.00000

 Normal termination of Gaussian 16 at Thu Dec 10 11:12:36 2020.
