 Gaussian 16, Revision A.03,

 -----------------------------------------------------------
 # opt freq B3LYP/6-31G(d) empiricaldispersion=gd3bj scf=xqc
 -----------------------------------------------------------

 -------------------------------
 CID_139798873_JID_7365_neutraal
 -------------------------------
 Symbolic Z-matrix:
 Charge =  0 Multiplicity = 1

 SCF Done:  E(RB3LYP) =  -661.024813310     A.U. after   14 cycles
 SCF Done:  E(RB3LYP) =  -661.030065898     A.U. after   12 cycles
 SCF Done:  E(RB3LYP) =  -661.031104680     A.U. after   12 cycles
 SCF Done:  E(RB3LYP) =  -661.032079450     A.U. after   12 cycles
 SCF Done:  E(RB3LYP) =  -661.032544126     A.U. after   12 cycles
 SCF Done:  E(RB3LYP) =  -661.032722428     A.U. after   12 cycles
 SCF Done:  E(RB3LYP) =  -661.032837771     A.U. after   11 cycles
 SCF Done:  E(RB3LYP) =  -661.032855487     A.U. after   10 cycles
 SCF Done:  E(RB3LYP) =  -661.032858884     A.U. after    9 cycles
 SCF Done:  E(RB3LYP) =  -661.032859894     A.U. after    8 cycles
 SCF Done:  E(RB3LYP) =  -661.032860031     A.U. after    7 cycles
 SCF Done:  E(RB3LYP) =  -661.032860053     A.U. after    7 cycles
 Optimization completed.
    -- Stationary point found.
 Normal termination of Gaussian 16 at Fri Dec 11 12:05:56 2020.

 --------------------------------------------------------------------
 #N Geom=AllCheck Guess=TCheck SCRF=Check GenChk RB3LYP/6-31G(d) Freq
 --------------------------------------------------------------------

 Structure from the checkpoint file:  "JID_7365.chk"
 -------------------------------
 CID_139798873_JID_7365_neutraal
 -------------------------------
 Charge =  0 Multiplicity = 1

 SCF Done:  E(RB3LYP) =  -661.032860053     A.U. after    1 cycles

  Exact polarizability: 178.160  11.206 190.604  13.937   0.302 132.216
 Approx polarizability: 244.272  17.911 280.061  24.074   1.750 220.020

                      1                      2                      3
                      A                      A                      A
 Frequencies --     33.5638                36.4599                39.0820
 Red. masses --      3.6842                 3.5433                 3.8516
 Frc consts  --      0.0024                 0.0028                 0.0035
 IR Inten    --      0.0197                 0.0177                 0.0666

                      4                      5                      6
                      A                      A                      A
 Frequencies --     61.6590                69.4705                88.8629
 Red. masses --      2.7398                 3.4735                 3.4046
 Frc consts  --      0.0061                 0.0099                 0.0158
 IR Inten    --      0.0550                 0.0469                 0.1438

                      7                      8                      9
                      A                      A                      A
 Frequencies --    105.6115               128.0813               151.1152
 Red. masses --      3.7161                 2.7495                 3.1330
 Frc consts  --      0.0244                 0.0266                 0.0422
 IR Inten    --      0.2205                 0.0385                 0.3339

                     10                     11                     12
                      A                      A                      A
 Frequencies --    186.8864               213.5629               228.0815
 Red. masses --      2.2239                 3.3551                 2.1967
 Frc consts  --      0.0458                 0.0902                 0.0673
 IR Inten    --      0.0090                 0.1634                 0.2328

                     13                     14                     15
                      A                      A                      A
 Frequencies --    266.9103               298.9832               302.4890
 Red. masses --      1.8726                 2.0710                 3.3608
 Frc consts  --      0.0786                 0.1091                 0.1812
 IR Inten    --      0.0317                 0.1004                 0.0286

                     16                     17                     18
                      A                      A                      A
 Frequencies --    355.0439               390.6815               456.9020
 Red. masses --      2.9699                 2.1964                 2.1303
 Frc consts  --      0.2206                 0.1975                 0.2620
 IR Inten    --      0.9159                 0.9530                 0.2911

                     19                     20                     21
                      A                      A                      A
 Frequencies --    474.7672               514.5019               546.2297
 Red. masses --      3.1891                 2.8613                 2.5283
 Frc consts  --      0.4235                 0.4463                 0.4445
 IR Inten    --      0.0075                 1.0591                 0.0568

                     22                     23                     24
                      A                      A                      A
 Frequencies --    566.0599               624.6400               674.9337
 Red. masses --      2.7641                 3.5140                 1.6456
 Frc consts  --      0.5218                 0.8078                 0.4417
 IR Inten    --      0.2504                 1.0430                 5.9025

                     25                     26                     27
                      A                      A                      A
 Frequencies --    700.8281               724.2910               728.2134
 Red. masses --      1.3764                 1.3182                 1.3225
 Frc consts  --      0.3983                 0.4074                 0.4132
 IR Inten    --     43.2484                 1.6000                13.9909

                     28                     29                     30
                      A                      A                      A
 Frequencies --    733.7116               761.5478               783.6907
 Red. masses --      1.2941                 2.6413                 1.8985
 Frc consts  --      0.4105                 0.9025                 0.6870
 IR Inten    --     35.2819                14.7956                12.7518

                     31                     32                     33
                      A                      A                      A
 Frequencies --    813.9834               818.1218               824.9739
 Red. masses --      4.0642                 5.3286                 2.5067
 Frc consts  --      1.5865                 2.1013                 1.0052
 IR Inten    --      8.9740                 8.8500                14.6152

                     34                     35                     36
                      A                      A                      A
 Frequencies --    848.0117               848.4575               875.6569
 Red. masses --      3.6303                 2.0094                 1.9703
 Frc consts  --      1.5381                 0.8523                 0.8901
 IR Inten    --     10.6941                16.0278                22.9138

                     37                     38                     39
                      A                      A                      A
 Frequencies --    893.2317               900.8845               929.8266
 Red. masses --      2.4764                 2.0701                 1.5902
 Frc consts  --      1.1641                 0.9899                 0.8100
 IR Inten    --     13.8675                 3.8911                 3.2895

                     40                     41                     42
                      A                      A                      A
 Frequencies --    941.7515               947.4979               949.2227
 Red. masses --      1.8510                 1.2922                 1.2954
 Frc consts  --      0.9673                 0.6835                 0.6877
 IR Inten    --     13.3837                 0.7262                 0.4494

                     43                     44                     45
                      A                      A                      A
 Frequencies --    950.6281               959.3707               982.9260
 Red. masses --      1.3131                 1.3081                 1.9368
 Frc consts  --      0.6992                 0.7094                 1.1025
 IR Inten    --      0.6934                 0.2159                 1.6770

                     46                     47                     48
                      A                      A                      A
 Frequencies --   1009.2884              1018.3454              1022.7913
 Red. masses --      2.0337                 2.0509                 1.9293
 Frc consts  --      1.2206                 1.2531                 1.1891
 IR Inten    --      1.9075                 0.9570                 1.3657

                     49                     50                     51
                      A                      A                      A
 Frequencies --   1031.7337              1052.8928              1055.7956
 Red. masses --      1.9102                 1.7469                 1.6812
 Frc consts  --      1.1980                 1.1410                 1.1042
 IR Inten    --      0.5117                 3.8251                11.9280

                     52                     53                     54
                      A                      A                      A
 Frequencies --   1074.0763              1096.6855              1110.0231
 Red. masses --      1.7195                 1.6365                 1.6716
 Frc consts  --      1.1688                 1.1597                 1.2135
 IR Inten    --      0.4245                 2.5930                 7.2917

                     55                     56                     57
                      A                      A                      A
 Frequencies --   1119.4437              1126.8122              1137.4904
 Red. masses --      1.1284                 1.1275                 1.9857
 Frc consts  --      0.8331                 0.8434                 1.5137
 IR Inten    --      1.4285                 5.3256                 2.8988

                     58                     59                     60
                      A                      A                      A
 Frequencies --   1147.5082              1152.1403              1171.4601
 Red. masses --      1.3949                 1.3778                 1.8447
 Frc consts  --      1.0822                 1.0776                 1.4915
 IR Inten    --      0.2721                 1.9749                 0.7085

                     61                     62                     63
                      A                      A                      A
 Frequencies --   1219.2628              1219.9514              1231.6002
 Red. masses --      1.5950                 1.4646                 1.6938
 Frc consts  --      1.3971                 1.2843                 1.5137
 IR Inten    --      0.1904                 0.4409                 0.7288

                     64                     65                     66
                      A                      A                      A
 Frequencies --   1249.4626              1277.0960              1301.1783
 Red. masses --      1.3924                 1.6335                 1.3201
 Frc consts  --      1.2808                 1.5697                 1.3168
 IR Inten    --      1.2486                 3.9826                 1.1419

                     67                     68                     69
                      A                      A                      A
 Frequencies --   1321.9172              1322.3356              1328.3274
 Red. masses --      1.4853                 1.4594                 1.5376
 Frc consts  --      1.5292                 1.5035                 1.5985
 IR Inten    --      7.5561                 3.7008                 1.3813

                     70                     71                     72
                      A                      A                      A
 Frequencies --   1339.8194              1363.9282              1378.2148
 Red. masses --      1.2118                 1.3272                 1.4383
 Frc consts  --      1.2816                 1.4547                 1.6096
 IR Inten    --      4.6314                 3.9795                 9.8688

                     73                     74                     75
                      A                      A                      A
 Frequencies --   1399.8419              1410.1003              1416.0488
 Red. masses --      1.4026                 1.4259                 1.9581
 Frc consts  --      1.6193                 1.6705                 2.3133
 IR Inten    --      8.8679                 1.8924                 2.8015

                     76                     77                     78
                      A                      A                      A
 Frequencies --   1418.8003              1420.8230              1443.3038
 Red. masses --      1.5481                 1.7719                 1.2732
 Frc consts  --      1.8361                 2.1075                 1.5626
 IR Inten    --      8.0335                 1.4855                 5.7827

                     79                     80                     81
                      A                      A                      A
 Frequencies --   1510.4462              1519.4467              1525.0739
 Red. masses --      1.0716                 1.0771                 1.0897
 Frc consts  --      1.4405                 1.4652                 1.4932
 IR Inten    --      0.5128                 2.0373                 5.3580

                     82                     83                     84
                      A                      A                      A
 Frequencies --   1532.1704              1534.6702              1543.1014
 Red. masses --      1.0653                 1.0631                 1.0782
 Frc consts  --      1.4735                 1.4752                 1.5127
 IR Inten    --      7.8323                 2.1321                 3.2779

                     85                     86                     87
                      A                      A                      A
 Frequencies --   1570.2049              1580.0356              1656.3343
 Red. masses --      6.5834                 6.6951                 5.3365
 Frc consts  --      9.5634                 9.8478                 8.6259
 IR Inten    --      3.0688                 0.8283                 0.5941

                     88                     89                     90
                      A                      A                      A
 Frequencies --   1664.1736              1746.0559              2961.2568
 Red. masses --      5.4036                 7.0696                 1.0795
 Frc consts  --      8.8173                12.6987                 5.5772
 IR Inten    --      0.7504                 1.8648                12.3359

                     91                     92                     93
                      A                      A                      A
 Frequencies --   2979.4336              3026.4935              3031.6051
 Red. masses --      1.0791                 1.0631                 1.0673
 Frc consts  --      5.6440                 5.7373                 5.7793
 IR Inten    --     15.7219                29.1827                19.6679

                     94                     95                     96
                      A                      A                      A
 Frequencies --   3036.4580              3042.2062              3046.5143
 Red. masses --      1.0683                 1.0500                 1.0511
 Frc consts  --      5.8032                 5.7253                 5.7479
 IR Inten    --     28.2104                 4.4082                28.7093

                     97                     98                     99
                      A                      A                      A
 Frequencies --   3060.9304              3070.0115              3086.1279
 Red. masses --      1.0964                 1.0992                 1.1013
 Frc consts  --      6.0522                 6.1037                 6.1799
 IR Inten    --     29.7742                69.4781                74.4909

                    100                    101                    102
                      A                      A                      A
 Frequencies --   3108.3541              3116.3133              3134.5859
 Red. masses --      1.1015                 1.1019                 1.0894
 Frc consts  --      6.2705                 6.3046                 6.3066
 IR Inten    --     47.3888                52.9862                 4.5831

                    103                    104                    105
                      A                      A                      A
 Frequencies --   3170.5242              3209.5615              3210.9460
 Red. masses --      1.0880                 1.0863                 1.0867
 Frc consts  --      6.4440                 6.5932                 6.6011
 IR Inten    --     16.1832                 4.6397                 6.0781

                    106                    107                    108
                      A                      A                      A
 Frequencies --   3220.1983              3222.0102              3239.2969
 Red. masses --      1.0884                 1.0889                 1.0994
 Frc consts  --      6.6495                 6.6606                 6.7968
 IR Inten    --     24.1995                15.0213                17.3055

                    109                    110                    111
                      A                      A                      A
 Frequencies --   3242.4259              3244.8157              3247.8020
 Red. masses --      1.0995                 1.1053                 1.1050
 Frc consts  --      6.8105                 6.8568                 6.8672
 IR Inten    --     17.1292                 8.5655                 5.2214

 - Thermochemistry -
 -------------------
 Temperature   298.150 Kelvin.  Pressure   1.00000 Atm.
 Atom     1 has atomic number  6 and mass  12.00000

 Molecular mass:   226.17215 amu.
 Principal axes and moments of inertia in atomic units:
                           1         2         3
     Eigenvalues --  3619.611035229.732837952.23760
           X            0.99952  -0.03099  -0.00150
           Y            0.03099   0.99952   0.00066
           Z            0.00148  -0.00071   1.00000
 This molecule is an asymmetric top.
 Rotational symmetry number  1.
 Warning -- assumption of classical behavior for rotation
           may cause significant error
 Rotational temperatures (Kelvin)      0.02393     0.01656     0.01089
 Rotational constants (GHZ):           0.49860     0.34509     0.22695
 Zero-point vibrational energy     904433.6 (Joules/Mol)
                                  216.16482 (Kcal/Mol)
 Warning -- explicit consideration of  22 degrees of freedom as
           vibrations may cause significant error
 Vibrational temperatures:     48.29    52.46    56.23    88.71    99.95
          (Kelvin)            127.85   151.95   184.28   217.42   268.89
                              307.27   328.16   384.02   430.17   435.21
                              510.83   562.10   657.38   683.08   740.25
                              785.90   814.43   898.72   971.08  1008.34
                             1042.09  1047.74  1055.65  1095.70  1127.56
                             1171.14  1177.09  1186.95  1220.10  1220.74
                             1259.88  1285.16  1296.17  1337.81  1354.97
                             1363.24  1365.72  1367.74  1380.32  1414.21
                             1452.14  1465.17  1471.57  1484.43  1514.88
                             1519.05  1545.36  1577.89  1597.08  1610.63
                             1621.23  1636.59  1651.01  1657.67  1685.47
                             1754.25  1755.24  1772.00  1797.70  1837.46
                             1872.11  1901.94  1902.55  1911.17  1927.70
                             1962.39  1982.94  2014.06  2028.82  2037.38
                             2041.34  2044.25  2076.59  2173.20  2186.14
                             2194.24  2204.45  2208.05  2220.18  2259.17
                             2273.32  2383.10  2394.37  2512.19  4260.59
                             4286.74  4354.45  4361.80  4368.79  4377.06
                             4383.25  4404.00  4417.06  4440.25  4472.23
                             4483.68  4509.97  4561.68  4617.84  4619.84
                             4633.15  4635.75  4660.63  4665.13  4668.57
                             4672.86

 Zero-point correction=                           0.344481 (Hartree/Particle)
 Thermal correction to Energy=                    0.361327
 Thermal correction to Enthalpy=                  0.362271
 Thermal correction to Gibbs Free Energy=         0.298090
 Sum of electronic and zero-point Energies=           -660.688379
 Sum of electronic and thermal Energies=              -660.671533
 Sum of electronic and thermal Enthalpies=            -660.670589
 Sum of electronic and thermal Free Energies=         -660.734770

                     E (Thermal)             CV                S
                      KCal/Mol        Cal/Mol-Kelvin    Cal/Mol-Kelvin
 Total                  226.736             64.762            135.081
 Electronic               0.000              0.000              0.000
 Translational            0.889              2.981             42.151
 Rotational               0.889              2.981             33.376
 Vibrational            224.959             58.800             59.555
 Vibration     1          0.594              1.983              5.607
 Vibration     2          0.594              1.982              5.443
 Vibration     3          0.594              1.981              5.305
 Vibration     4          0.597              1.973              4.403
 Vibration     5          0.598              1.969              4.168
 Vibration     6          0.602              1.957              3.685
 Vibration     7          0.605              1.945              3.348
 Vibration     8          0.611              1.925              2.975
 Vibration     9          0.619              1.901              2.658
 Vibration    10          0.632              1.858              2.258
 Vibration    11          0.644              1.820              2.013
 Vibration    12          0.651              1.798              1.894
 Vibration    13          0.672              1.734              1.616
 Vibration    14          0.692              1.676              1.423
 Vibration    15          0.694              1.669              1.403
 Vibration    16          0.731              1.565              1.144
 Vibration    17          0.758              1.490              0.998
 Vibration    18          0.815              1.346              0.775
 Vibration    19          0.831              1.306              0.724
 Vibration    20          0.870              1.218              0.623
 Vibration    21          0.901              1.148              0.552
 Vibration    22          0.922              1.105              0.512

 Optimization completed.
    -- Stationary point found.
 Normal termination of Gaussian 16 at Fri Dec 11 12:23:29 2020.

 ----------------------------------------------------------------------
 # B3LYP/6-311++G(d,p) empiricaldispersion=gd3bj scf=xqc pop=npa geom=c
 heck
 ----------------------------------------------------------------------

 ---------------------------------------
 CID_139798873_JID_7365_Energie_neutraal
 ---------------------------------------
 Structure from the checkpoint file:  "JID_7365.chk"
 Charge =  0 Multiplicity = 1

 SCF Done:  E(RB3LYP) =  -661.209450564     A.U. after   15 cycles
 Normal termination of Gaussian 16 at Fri Dec 11 12:32:40 2020.

 ----------------------------------------------------------------------
 # B3LYP/6-311++G(d,p) empiricaldispersion=gd3bj scf=xqc pop=npa geom=c
 heck
 ----------------------------------------------------------------------

 -------------------------------------
 CID_139798873_JID_7365_Energie_kation
 -------------------------------------
 Structure from the checkpoint file:  "JID_7365.chk"
 Charge =  1 Multiplicity = 2

 SCF Done:  E(UB3LYP) =  -660.931350390     A.U. after   24 cycles
 Normal termination of Gaussian 16 at Fri Dec 11 12:57:51 2020.
 Gaussian 16:  ES64L-G16RevA.03 25-Dec-2016

 ----------------------------------------------------------------------
 # B3LYP/6-311++G(d,p) empiricaldispersion=gd3bj scf=xqc pop=npa geom=c
 heck
 ----------------------------------------------------------------------

 ------------------------------------
 CID_139798873_JID_7365_Energie_anion
 ------------------------------------
 Structure from the checkpoint file:  "JID_7365.chk"
 Charge = -1 Multiplicity = 2

                         Standard orientation:
 ---------------------------------------------------------------------
 Center     Atomic      Atomic             Coordinates (Angstroms)
 Number     Number       Type             X           Y           Z
 ---------------------------------------------------------------------
      1          6           0        4.746239   -1.170001   -0.913445
      2          6           0        3.578848   -1.756187   -0.114019
      3          6           0        3.025019   -0.811297    0.963210
      4          6           0        2.495263    0.533724    0.443969
      5          6           0        1.388785    0.426321   -0.627138
      6          6           0        0.218450   -0.407139   -0.187089
      7          6           0       -0.972687    0.037968    0.232709
      8          6           0       -2.089544   -0.914794    0.635534
      9          6           0       -3.240349   -0.920727   -0.357040
     10          6           0       -3.501799   -2.188505   -0.728366
     11          6           0       -2.579279   -3.097302   -0.032237
     12          6           0       -1.748938   -2.378549    0.748566
     13          6           0       -1.354469    1.514233    0.304932
     14          6           0       -0.500806    2.419258    1.166709
     15          6           0       -0.207431    3.543899    0.483293
     16          6           0       -0.777676    3.453607   -0.867919
     17          6           0       -1.418471    2.274685   -1.002981
     18          1           0        4.439661   -0.291755   -1.492336
     19          1           0        5.152097   -1.904222   -1.618354
     20          1           0        5.561298   -0.858790   -0.248109
     21          1           0        2.774594   -2.044388   -0.804088
     22          1           0        3.904739   -2.685523    0.371559
     23          1           0        2.220904   -1.325351    1.506165
     24          1           0        3.814799   -0.614014    1.701718
     25          1           0        2.098997    1.107208    1.290316
     26          1           0        3.322095    1.126391    0.031401
     27          1           0        1.063090    1.432177   -0.900299
     28          1           0        1.812617   -0.022734   -1.536157
     29          1           0        0.368869   -1.484364   -0.206531
     30          1           0       -2.482349   -0.577482    1.613043
     31          1           0       -3.740079   -0.022264   -0.699238
     32          1           0       -4.267153   -2.509091   -1.427504
     33          1           0       -2.588631   -4.177299   -0.136593
     34          1           0       -0.964079   -2.758973    1.391552
     35          1           0       -2.371233    1.563064    0.734030
     36          1           0       -0.227494    2.177673    2.186830
     37          1           0        0.359967    4.390945    0.854171
     38          1           0       -0.684390    4.224401   -1.625750
     39          1           0       -1.935248    1.899233   -1.877949
 ---------------------------------------------------------------------

 SCF Done:  E(UB3LYP) =  -661.199807731     A.U. after   33 cycles
 SCF Done:  E(UB3LYP) =  -661.199807731     a.u. after    1 cycles

 The electronic state is 2-A.
 Alpha  occ. eigenvalues --  -10.06832 -10.06677 -10.06457 -10.06202 -10.05864
 Alpha  occ. eigenvalues --  -10.05643 -10.05424 -10.05375 -10.05330 -10.05229
 Alpha  occ. eigenvalues --  -10.05169 -10.05051 -10.04909 -10.04863 -10.04705
 Alpha  occ. eigenvalues --  -10.04406 -10.04396  -0.75480  -0.73995  -0.70419
 Alpha  occ. eigenvalues --   -0.67596  -0.64145  -0.59637  -0.59300  -0.59012
 Alpha  occ. eigenvalues --   -0.58040  -0.55283  -0.51032  -0.46908  -0.44488
 Alpha  occ. eigenvalues --   -0.43123  -0.42267  -0.41628  -0.40640  -0.39931
 Alpha  occ. eigenvalues --   -0.38951  -0.36645  -0.35354  -0.34019  -0.31238
 Alpha  occ. eigenvalues --   -0.30387  -0.29570  -0.29057  -0.28791  -0.28502
 Alpha  occ. eigenvalues --   -0.28340  -0.26568  -0.25850  -0.25492  -0.25471
 Alpha  occ. eigenvalues --   -0.25100  -0.24705  -0.23759  -0.22034  -0.21746
 Alpha  occ. eigenvalues --   -0.21263  -0.20765  -0.18848  -0.18079  -0.13398
 Alpha  occ. eigenvalues --   -0.11108  -0.10406   0.04716
 Alpha virt. eigenvalues --    0.06328   0.07586   0.07649   0.07971   0.08091
 Alpha virt. eigenvalues --    0.08822   0.09182   0.09361   0.09880   0.10194
 Alpha virt. eigenvalues --    0.10904   0.11279   0.11600   0.11960   0.12253

  Beta  occ. eigenvalues --  -10.06863 -10.06705 -10.06379 -10.06189 -10.05838
  Beta  occ. eigenvalues --  -10.05632 -10.05416 -10.05349 -10.05311 -10.05204
  Beta  occ. eigenvalues --  -10.05127 -10.05048 -10.04764 -10.04712 -10.04550
  Beta  occ. eigenvalues --  -10.04395 -10.04254  -0.75302  -0.73793  -0.70386
  Beta  occ. eigenvalues --   -0.67523  -0.64083  -0.59505  -0.59052  -0.58829
  Beta  occ. eigenvalues --   -0.57881  -0.55212  -0.50949  -0.46704  -0.44396
  Beta  occ. eigenvalues --   -0.42915  -0.42095  -0.41451  -0.40513  -0.39834
  Beta  occ. eigenvalues --   -0.38848  -0.36580  -0.35299  -0.33851  -0.31195
  Beta  occ. eigenvalues --   -0.30307  -0.29482  -0.28962  -0.28646  -0.28383
  Beta  occ. eigenvalues --   -0.28257  -0.26460  -0.25798  -0.25402  -0.25372
  Beta  occ. eigenvalues --   -0.25024  -0.24631  -0.23667  -0.21981  -0.21688
  Beta  occ. eigenvalues --   -0.21213  -0.20595  -0.18384  -0.17762  -0.13099
  Beta  occ. eigenvalues --   -0.10361  -0.09836
  Beta virt. eigenvalues --    0.06791   0.07572   0.07762   0.08138   0.08394
  Beta virt. eigenvalues --    0.08917   0.09120   0.09303   0.09445   0.09898
  Beta virt. eigenvalues --    0.10304   0.10940   0.11210   0.11648   0.12098

 Mulliken charges and spin densities:
               1          2
     1  C    0.610853  -1.232200
     2  C   -0.726063   0.538332
     3  C    0.089885  -0.391343
     4  C   -0.363337  -0.083089
     5  C    0.986718  -0.758704
     6  C   -0.909408   0.186140
     7  C    0.742517  -0.080658
     8  C    0.438053  -0.636946
     9  C   -0.508761   0.191130
    10  C   -0.367356   0.003702
    11  C   -0.111498  -0.198297
    12  C   -0.241615   0.394575
    13  C   -0.167616   0.276370
    14  C   -0.585819   0.402184
    15  C   -0.020538  -0.318873
    16  C   -0.496030   0.073928
    17  C   -0.206011   0.023821
    18  H   -0.010381   0.154664
    19  H   -0.294940   0.428943
    20  H   -0.050143   0.180633
    21  H    0.213774  -0.086714
    22  H   -0.381594   0.530214
    23  H    0.215306  -0.065725
    24  H   -0.234492   0.385616
    25  H    0.159374  -0.005334
    26  H    0.125914  -0.001764
    27  H    0.305962  -0.105859
    28  H    0.038000   0.131060
    29  H    0.128421   0.114901
    30  H   -0.022230   0.248952
    31  H    0.118195   0.008015
    32  H    0.099801   0.017662
    33  H    0.093241   0.028236
    34  H    0.013015   0.140308
    35  H    0.083638   0.175657
    36  H   -0.039844   0.185214
    37  H    0.072631   0.060734
    38  H    0.086806   0.045883
    39  H    0.115570   0.038634
 Sum of Mulliken charges =  -1.00000   1.00000

 Dipole moment (field-independent basis, Debye):
    X=             -2.4038    Y=              1.9076    Z=             -0.7489  Tot=              3.1588
 Quadrupole moment (field-independent basis, Debye-Ang):
   XX=           -178.4319   YY=           -148.3967   ZZ=           -127.4790
   XY=             11.3782   XZ=              4.1745   YZ=             -0.8800

 Summary of Natural Population Analysis:

                                       Natural Population
                Natural  -----------------------------------------------
    Atom  No    Charge         Core      Valence    Rydberg      Total
 -----------------------------------------------------------------------
      C    1   -0.28801      0.99967     2.28263    0.00571     3.28801
      C    2   -0.19382      0.99964     2.18562    0.00855     3.19382
      C    3   -0.19179      0.99963     2.18351    0.00864     3.19179
      C    4   -0.18535      0.99962     2.17784    0.00789     3.18535
      C    5   -0.21213      0.99961     2.20414    0.00839     3.21213
      C    6   -0.09156      0.99944     2.08397    0.00814     3.09156
      C    7    0.01991      0.99943     1.96751    0.01315     2.98009
      C    8   -0.15640      0.99954     2.14508    0.01178     3.15640
      C    9   -0.05768      0.99953     2.04946    0.00870     3.05768
      C   10   -0.12060      0.99953     2.11100    0.01008     3.12060
      C   11   -0.11223      0.99953     2.10273    0.00996     3.11223
      C   12   -0.06510      0.99954     2.05612    0.00944     3.06510
      C   13   -0.16678      0.99954     2.15519    0.01204     3.16678
      C   14   -0.05808      0.99954     2.04775    0.01079     3.05808
      C   15   -0.12349      0.99953     2.11470    0.00926     3.12349
      C   16   -0.12278      0.99953     2.11338    0.00988     3.12278
      C   17   -0.05777      0.99953     2.04951    0.00873     3.05777
      H   18    0.09571      0.00000     0.40337    0.00092     0.40429
      H   19    0.09792      0.00000     0.40111    0.00096     0.40208
      H   20    0.09486      0.00000     0.40413    0.00101     0.40514
      H   21    0.09400      0.00000     0.40473    0.00127     0.40600
      H   22    0.09491      0.00000     0.40389    0.00121     0.40509
      H   23    0.09922      0.00000     0.39971    0.00106     0.40078
      H   24    0.09327      0.00000     0.40574    0.00098     0.40673
      H   25    0.10086      0.00000     0.39800    0.00113     0.39914
      H   26    0.09130      0.00000     0.40771    0.00099     0.40870
      H   27    0.11009      0.00000     0.38699    0.00291     0.38991
      H   28    0.09589      0.00000     0.40304    0.00107     0.40411
      H   29    0.09745      0.00000     0.40124    0.00131     0.40255
      H   30    0.12311      0.00000     0.37506    0.00183     0.37689
      H   31    0.09509      0.00000     0.40388    0.00103     0.40491
      H   32    0.09417      0.00000     0.40498    0.00085     0.40583
      H   33    0.09413      0.00000     0.40504    0.00083     0.40587
      H   34    0.09719      0.00000     0.40166    0.00115     0.40281
      H   35    0.12901      0.00000     0.36926    0.00173     0.37099
      H   36    0.09678      0.00000     0.40211    0.00111     0.40322
      H   37    0.09587      0.00000     0.40334    0.00079     0.40413
      H   38    0.09554      0.00000     0.40363    0.00083     0.40446
      H   39    0.09730      0.00000     0.40163    0.00108     0.40270
 =======================================================================
   * Total *    0.00000     16.99240    44.82040    0.18720    62.00000

 Normal termination of Gaussian 16 at Fri Dec 11 13:27:16 2020.
