 Gaussian 16, Revision A.03,

 -----------------------------------------------------------
 # opt freq B3LYP/6-31G(d) empiricaldispersion=gd3bj scf=xqc
 -----------------------------------------------------------

 -------------------------------
 CID_106598358_JID_7523_neutraal
 -------------------------------
 Symbolic Z-matrix:
 Charge =  0 Multiplicity = 1

 SCF Done:  E(RB3LYP) =  -765.993142916     A.U. after   14 cycles
 SCF Done:  E(RB3LYP) =  -765.999476837     A.U. after   12 cycles
 SCF Done:  E(RB3LYP) =  -766.001310946     A.U. after   12 cycles
 SCF Done:  E(RB3LYP) =  -766.002793728     A.U. after   13 cycles
 SCF Done:  E(RB3LYP) =  -766.003182116     A.U. after   15 cycles
 SCF Done:  E(RB3LYP) =  -766.003632543     A.U. after   12 cycles
 SCF Done:  E(RB3LYP) =  -766.004241072     A.U. after   12 cycles
 SCF Done:  E(RB3LYP) =  -766.004635370     A.U. after   12 cycles
 SCF Done:  E(RB3LYP) =  -766.004789165     A.U. after   11 cycles
 SCF Done:  E(RB3LYP) =  -766.004855705     A.U. after   11 cycles
 SCF Done:  E(RB3LYP) =  -766.005351445     A.U. after    7 cycles
 SCF Done:  E(RB3LYP) =  -766.005351805     A.U. after    7 cycles
 SCF Done:  E(RB3LYP) =  -766.005351998     A.U. after    7 cycles
 SCF Done:  E(RB3LYP) =  -766.005352106     A.U. after    7 cycles
 SCF Done:  E(RB3LYP) =  -766.005352105     A.U. after    6 cycles
 Optimization completed.
    -- Stationary point found.
 Normal termination of Gaussian 16 at Fri Dec 11 13:19:40 2020.

 --------------------------------------------------------------------
 #N Geom=AllCheck Guess=TCheck SCRF=Check GenChk RB3LYP/6-31G(d) Freq
 --------------------------------------------------------------------

 Structure from the checkpoint file:  "JID_7523.chk"
 -------------------------------
 CID_106598358_JID_7523_neutraal
 -------------------------------
 Charge =  0 Multiplicity = 1

 SCF Done:  E(RB3LYP) =  -766.005352105     A.U. after    1 cycles

  Exact polarizability: 167.825   3.353 163.555   9.812  -0.204 126.717
 Approx polarizability: 203.224   3.060 234.690  24.233  -7.826 204.963

                      1                      2                      3
                      A                      A                      A
 Frequencies --     20.4949                23.0212                26.4543
 Red. masses --      3.2400                 4.4470                 3.3126
 Frc consts  --      0.0008                 0.0014                 0.0014
 IR Inten    --      0.6863                 0.2465                 0.3507

                      4                      5                      6
                      A                      A                      A
 Frequencies --     45.9742                48.8659                58.9107
 Red. masses --      3.9701                 3.5156                 3.3543
 Frc consts  --      0.0049                 0.0049                 0.0069
 IR Inten    --      0.6614                 0.1105                 0.5971

                      7                      8                      9
                      A                      A                      A
 Frequencies --     84.1611               117.5109               129.0976
 Red. masses --      3.6808                 1.3413                 4.3400
 Frc consts  --      0.0154                 0.0109                 0.0426
 IR Inten    --      0.9882                 0.1130                 5.3425

                     10                     11                     12
                      A                      A                      A
 Frequencies --    153.6187               175.3588               216.9635
 Red. masses --      3.1591                 2.4047                 3.0165
 Frc consts  --      0.0439                 0.0436                 0.0837
 IR Inten    --      1.6737                 1.9687                 3.2845

                     13                     14                     15
                      A                      A                      A
 Frequencies --    228.2186               248.7114               271.9974
 Red. masses --      1.0556                 1.5475                 1.6813
 Frc consts  --      0.0324                 0.0564                 0.0733
 IR Inten    --      0.1182                 0.1040                 0.0483

                     16                     17                     18
                      A                      A                      A
 Frequencies --    278.2372               325.0173               336.3295
 Red. masses --      2.2458                 2.4345                 2.9046
 Frc consts  --      0.1024                 0.1515                 0.1936
 IR Inten    --      0.8583                 4.6924                 0.9177

                     19                     20                     21
                      A                      A                      A
 Frequencies --    358.2025               370.6449               374.7981
 Red. masses --      2.4534                 2.6588                 2.1656
 Frc consts  --      0.1855                 0.2152                 0.1792
 IR Inten    --      0.3805                 4.4660                 0.3556

                     22                     23                     24
                      A                      A                      A
 Frequencies --    404.9936               433.9483               460.2323
 Red. masses --      2.0257                 1.9222                 2.1600
 Frc consts  --      0.1958                 0.2133                 0.2696
 IR Inten    --      1.7057                 6.7428                 7.6296

                     25                     26                     27
                      A                      A                      A
 Frequencies --    510.4860               550.2425               577.4316
 Red. masses --      2.5325                 2.7503                 2.6312
 Frc consts  --      0.3888                 0.4906                 0.5169
 IR Inten    --      2.2983                 5.6242                 1.2238

                     28                     29                     30
                      A                      A                      A
 Frequencies --    618.5120               645.2583               673.9850
 Red. masses --      4.7091                 4.7671                 1.8015
 Frc consts  --      1.0614                 1.1694                 0.4822
 IR Inten    --      2.4906                14.8614                92.9800

                     31                     32                     33
                      A                      A                      A
 Frequencies --    716.8038               755.9341               760.6649
 Red. masses --      1.3667                10.4686                 1.9171
 Frc consts  --      0.4137                 3.5246                 0.6536
 IR Inten    --     16.8190                15.9209                 3.8817

                     34                     35                     36
                      A                      A                      A
 Frequencies --    775.1306               819.8606               836.9403
 Red. masses --      5.5469                 2.1061                 1.3341
 Frc consts  --      1.9636                 0.8341                 0.5506
 IR Inten    --      2.4517                 1.7105                10.2836

                     37                     38                     39
                      A                      A                      A
 Frequencies --    844.4878               870.2395               921.0989
 Red. masses --      2.3240                 2.0307                 2.1068
 Frc consts  --      0.9765                 0.9061                 1.0531
 IR Inten    --      1.6088                15.9468                 3.5020

                     40                     41                     42
                      A                      A                      A
 Frequencies --    932.3554               946.6847               952.1204
 Red. masses --      1.2982                 1.4019                 1.7644
 Frc consts  --      0.6649                 0.7402                 0.9424
 IR Inten    --      0.3687                 0.1113                 2.3246

                     43                     44                     45
                      A                      A                      A
 Frequencies --    965.7194              1007.0602              1021.1155
 Red. masses --      2.1509                 2.3956                 1.9117
 Frc consts  --      1.1819                 1.4314                 1.1744
 IR Inten    --     12.0371                16.6262                 6.6668

                     46                     47                     48
                      A                      A                      A
 Frequencies --   1037.4467              1052.7010              1057.9295
 Red. masses --      2.0626                 2.7003                 2.4059
 Frc consts  --      1.3080                 1.7631                 1.5865
 IR Inten    --      8.5891                27.0965                13.0936

                     49                     50                     51
                      A                      A                      A
 Frequencies --   1086.5850              1104.9452              1121.1033
 Red. masses --      1.7635                 2.7832                 2.0563
 Frc consts  --      1.2268                 2.0021                 1.5227
 IR Inten    --     20.9994                22.1522                23.2037

                     52                     53                     54
                      A                      A                      A
 Frequencies --   1130.4063              1150.0106              1161.9633
 Red. masses --      2.3831                 2.0693                 2.6622
 Frc consts  --      1.7941                 1.6124                 2.1177
 IR Inten    --      6.2506                19.5434                17.0173

                     55                     56                     57
                      A                      A                      A
 Frequencies --   1164.2057              1172.1285              1206.8294
 Red. masses --      1.3037                 1.5139                 1.8095
 Frc consts  --      1.0411                 1.2255                 1.5527
 IR Inten    --      0.0483                 8.1885                37.0910

                     58                     59                     60
                      A                      A                      A
 Frequencies --   1226.2021              1231.1344              1244.0011
 Red. masses --      1.4636                 1.5863                 1.7177
 Frc consts  --      1.2965                 1.4166                 1.5661
 IR Inten    --     11.7450                 7.4698                30.7400

                     61                     62                     63
                      A                      A                      A
 Frequencies --   1284.1302              1304.5519              1327.7809
 Red. masses --      1.3121                 1.3067                 1.2381
 Frc consts  --      1.2748                 1.3103                 1.2860
 IR Inten    --      3.2948                 2.0531                11.1278

                     64                     65                     66
                      A                      A                      A
 Frequencies --   1331.7041              1353.0960              1359.2715
 Red. masses --      3.2126                 1.1313                 1.3402
 Frc consts  --      3.3568                 1.2204                 1.4589
 IR Inten    --     28.8757                 0.5196                12.5808

                     67                     68                     69
                      A                      A                      A
 Frequencies --   1374.4361              1380.6184              1391.2656
 Red. masses --      4.8655                 1.5052                 1.4247
 Frc consts  --      5.4153                 1.6904                 1.6248
 IR Inten    --     98.8633                10.4505                10.8635

                     70                     71                     72
                      A                      A                      A
 Frequencies --   1400.8069              1412.7948              1419.8728
 Red. masses --      1.2702                 1.3217                 1.4192
 Frc consts  --      1.4685                 1.5544                 1.6858
 IR Inten    --      6.1371                16.3841                 3.9206

                     73                     74                     75
                      A                      A                      A
 Frequencies --   1423.8961              1429.0836              1434.0073
 Red. masses --      1.2839                 1.3515                 1.3986
 Frc consts  --      1.5337                 1.6263                 1.6945
 IR Inten    --     13.4609                25.1690                10.1969

                     76                     77                     78
                      A                      A                      A
 Frequencies --   1442.9830              1466.2042              1480.2242
 Red. masses --      1.2433                 3.2281                 1.4202
 Frc consts  --      1.5252                 4.0887                 1.8334
 IR Inten    --     13.1941                 2.9109                17.3381

                     79                     80                     81
                      A                      A                      A
 Frequencies --   1500.8330              1501.5951              1503.0812
 Red. masses --      1.0430                 1.0858                 1.1280
 Frc consts  --      1.3841                 1.4424                 1.5015
 IR Inten    --      7.3034                 9.5330                15.6681

                     82                     83                     84
                      A                      A                      A
 Frequencies --   1512.3317              1514.2772              1515.5656
 Red. masses --      1.0980                 1.0651                 1.1000
 Frc consts  --      1.4796                 1.4390                 1.4886
 IR Inten    --      5.6569                 0.9470                23.7932

                     85                     86                     87
                      A                      A                      A
 Frequencies --   1517.3740              1529.0454              1532.5987
 Red. masses --      1.3515                 1.0919                 1.1063
 Frc consts  --      1.8334                 1.5041                 1.5311
 IR Inten    --     53.7618                17.8672                17.5278

                     88                     89                     90
                      A                      A                      A
 Frequencies --   1537.0002              1539.6294              1541.4054
 Red. masses --      1.0599                 1.3947                 1.2418
 Frc consts  --      1.4753                 1.9479                 1.7384
 IR Inten    --      4.6353                43.1675                 2.4678

                     91                     92                     93
                      A                      A                      A
 Frequencies --   1547.3116              1554.9829              1602.9143
 Red. masses --      1.1321                 1.4732                 4.5983
 Frc consts  --      1.5969                 2.0988                 6.9610
 IR Inten    --     36.7170                64.4364               312.4078

                     94                     95                     96
                      A                      A                      A
 Frequencies --   3027.2242              3032.6740              3035.3416
 Red. masses --      1.0655                 1.0682                 1.0724
 Frc consts  --      5.7527                 5.7886                 5.8212
 IR Inten    --     19.3450                13.8580                25.9091

                     97                     98                     99
                      A                      A                      A
 Frequencies --   3036.9451              3039.9062              3043.6636
 Red. masses --      1.0426                 1.0637                 1.0636
 Frc consts  --      5.6658                 5.7917                 5.8054
 IR Inten    --     20.7405                14.1653                12.7568

                    100                    101                    102
                      A                      A                      A
 Frequencies --   3044.5776              3050.1099              3064.2614
 Red. masses --      1.0438                 1.0641                 1.0976
 Frc consts  --      5.7006                 5.8327                 6.0721
 IR Inten    --     46.6924                21.5497                47.4092

                    103                    104                    105
                      A                      A                      A
 Frequencies --   3069.9036              3074.7577              3078.9589
 Red. masses --      1.0321                 1.0979                 1.0986
 Frc consts  --      5.7306                 6.1156                 6.1362
 IR Inten    --     37.4389                27.1359               119.1423

                    106                    107                    108
                      A                      A                      A
 Frequencies --   3082.8807              3089.0717              3094.4442
 Red. masses --      1.0735                 1.0921                 1.1008
 Frc consts  --      6.0110                 6.1397                 6.2106
 IR Inten    --      6.9790                65.1276                 7.3212

                    109                    110                    111
                      A                      A                      A
 Frequencies --   3099.9958              3106.3586              3136.2493
 Red. masses --      1.0959                 1.1002                 1.1011
 Frc consts  --      6.2049                 6.2548                 6.3809
 IR Inten    --     24.3326                86.3009                27.7450

                    112                    113                    114
                      A                      A                      A
 Frequencies --   3138.0056              3141.2894              3147.4093
 Red. masses --      1.1064                 1.0976                 1.1042
 Frc consts  --      6.4191                 6.3814                 6.4446
 IR Inten    --     14.9319                34.1002                15.0626

                    115                    116                    117
                      A                      A                      A
 Frequencies --   3162.9302              3266.9982              3504.6829
 Red. masses --      1.1047                 1.0978                 1.0733
 Frc consts  --      6.5112                 6.9035                 7.7672
 IR Inten    --      9.8547                 2.6791                 1.1443

 - Thermochemistry -
 -------------------
 Temperature   298.150 Kelvin.  Pressure   1.00000 Atm.
 Atom     1 has atomic number  6 and mass  12.00000

 Molecular mass:   240.19501 amu.
 Principal axes and moments of inertia in atomic units:
                           1         2         3
     Eigenvalues --  2347.559829445.64134**********
           X            0.99999  -0.00088  -0.00529
           Y            0.00090   0.99999   0.00397
           Z            0.00529  -0.00397   0.99998
 This molecule is an asymmetric top.
 Rotational symmetry number  1.
 Warning -- assumption of classical behavior for rotation
           may cause significant error
 Rotational temperatures (Kelvin)      0.03690     0.00917     0.00792
 Rotational constants (GHZ):           0.76877     0.19107     0.16495
 Zero-point vibrational energy     966443.9 (Joules/Mol)
                                  230.98563 (Kcal/Mol)
 Warning -- explicit consideration of  28 degrees of freedom as
           vibrations may cause significant error
 Vibrational temperatures:     29.49    33.12    38.06    66.15    70.31
          (Kelvin)             84.76   121.09   169.07   185.74   221.02
                              252.30   312.16   328.36   357.84   391.34
                              400.32   467.63   483.90   515.37   533.28
                              539.25   582.70   624.35   662.17   734.48
                              791.68   830.80   889.90   928.38   969.71
                             1031.32  1087.62  1094.43  1115.24  1179.60
                             1204.17  1215.03  1252.08  1325.26  1341.45
                             1362.07  1369.89  1389.45  1448.94  1469.16
                             1492.65  1514.60  1522.12  1563.35  1589.77
                             1613.02  1626.40  1654.61  1671.81  1675.03
                             1686.43  1736.36  1764.23  1771.33  1789.84
                             1847.58  1876.96  1910.38  1916.03  1946.80
                             1955.69  1977.51  1986.40  2001.72  2015.45
                             2032.70  2042.88  2048.67  2056.13  2063.22
                             2076.13  2109.54  2129.71  2159.36  2160.46
                             2162.60  2175.91  2178.71  2180.56  2183.16
                             2199.96  2205.07  2211.40  2215.18  2217.74
                             2226.24  2237.27  2306.24  4355.50  4363.34
                             4367.18  4369.49  4373.75  4379.15  4380.47
                             4388.43  4408.79  4416.91  4423.89  4429.94
                             4435.58  4444.49  4452.22  4460.20  4469.36
                             4512.36  4514.89  4519.61  4528.42  4550.75
                             4700.48  5042.46

 Zero-point correction=                           0.368099 (Hartree/Particle)
 Thermal correction to Energy=                    0.387029
 Thermal correction to Enthalpy=                  0.387973
 Thermal correction to Gibbs Free Energy=         0.317605
 Sum of electronic and zero-point Energies=           -765.637253
 Sum of electronic and thermal Energies=              -765.618323
 Sum of electronic and thermal Enthalpies=            -765.617379
 Sum of electronic and thermal Free Energies=         -765.687747

                     E (Thermal)             CV                S
                      KCal/Mol        Cal/Mol-Kelvin    Cal/Mol-Kelvin
 Total                  242.865             69.517            148.102
 Electronic               0.000              0.000              0.000
 Translational            0.889              2.981             42.330
 Rotational               0.889              2.981             33.850
 Vibrational            241.087             63.555             71.922
 Vibration     1          0.593              1.986              6.586
 Vibration     2          0.593              1.985              6.355
 Vibration     3          0.593              1.985              6.079
 Vibration     4          0.595              1.979              4.983
 Vibration     5          0.595              1.978              4.863
 Vibration     6          0.596              1.974              4.493
 Vibration     7          0.601              1.960              3.791
 Vibration     8          0.608              1.935              3.141
 Vibration     9          0.612              1.924              2.959
 Vibration    10          0.619              1.899              2.627
 Vibration    11          0.627              1.873              2.377
 Vibration    12          0.646              1.815              1.984
 Vibration    13          0.651              1.798              1.893
 Vibration    14          0.662              1.765              1.740
 Vibration    15          0.675              1.725              1.583
 Vibration    16          0.679              1.714              1.544
 Vibration    17          0.709              1.625              1.285
 Vibration    18          0.717              1.603              1.230
 Vibration    19          0.733              1.558              1.130
 Vibration    20          0.743              1.532              1.077
 Vibration    21          0.746              1.524              1.060
 Vibration    22          0.770              1.459              0.944
 Vibration    23          0.795              1.396              0.846
 Vibration    24          0.818              1.338              0.765
 Vibration    25          0.866              1.227              0.632
 Vibration    26          0.906              1.139              0.544
 Vibration    27          0.934              1.080              0.490
 Vibration    28          0.978              0.993              0.419

 Optimization completed.
    -- Stationary point found.
 Normal termination of Gaussian 16 at Fri Dec 11 13:35:20 2020.

 ----------------------------------------------------------------------
 # B3LYP/6-311++G(d,p) empiricaldispersion=gd3bj scf=xqc pop=npa geom=c
 heck
 ----------------------------------------------------------------------

 ---------------------------------------
 CID_106598358_JID_7523_Energie_neutraal
 ---------------------------------------
 Structure from the checkpoint file:  "JID_7523.chk"
 Charge =  0 Multiplicity = 1

 SCF Done:  E(RB3LYP) =  -766.220872887     A.U. after   14 cycles
 Normal termination of Gaussian 16 at Fri Dec 11 13:41:56 2020.

 ----------------------------------------------------------------------
 # B3LYP/6-311++G(d,p) empiricaldispersion=gd3bj scf=xqc pop=npa geom=c
 heck
 ----------------------------------------------------------------------

 -------------------------------------
 CID_106598358_JID_7523_Energie_kation
 -------------------------------------
 Structure from the checkpoint file:  "JID_7523.chk"
 Charge =  1 Multiplicity = 2

 SCF Done:  E(UB3LYP) =  -765.939607544     A.U. after   28 cycles
 Normal termination of Gaussian 16 at Fri Dec 11 13:59:19 2020.
 Gaussian 16:  ES64L-G16RevA.03 25-Dec-2016

 ----------------------------------------------------------------------
 # B3LYP/6-311++G(d,p) empiricaldispersion=gd3bj scf=xqc pop=npa geom=c
 heck
 ----------------------------------------------------------------------

 ------------------------------------
 CID_106598358_JID_7523_Energie_anion
 ------------------------------------
 Structure from the checkpoint file:  "JID_7523.chk"
 Charge = -1 Multiplicity = 2

                         Standard orientation:
 ---------------------------------------------------------------------
 Center     Atomic      Atomic             Coordinates (Angstroms)
 Number     Number       Type             X           Y           Z
 ---------------------------------------------------------------------
      1          6           0       -5.735457    0.853071    0.808523
      2          6           0       -4.468717    0.731909   -0.047964
      3          6           0       -3.659469    2.040112    0.013859
      4          7           0       -3.737444   -0.471555    0.362337
      5          6           0       -2.946015   -1.178189   -0.638865
      6          6           0       -1.668347   -0.505099   -1.179592
      7          6           0       -0.651378   -0.104260   -0.101268
      8          6           0       -0.166357   -1.252056    0.800993
      9          6           0        0.463605   -2.446069    0.069937
     10          6           0        1.737070   -2.124872   -0.704649
     11          8           0        2.789470   -1.743228    0.207201
     12          6           0        3.170173   -0.462652    0.232773
     13          7           0        2.719366    0.483411   -0.587960
     14          7           0        3.413628    1.581133   -0.155096
     15          6           0        4.216946    1.230503    0.867826
     16          7           0        4.094711   -0.057525    1.146994
     17          6           0        3.209000    2.867958   -0.780546
     18          1           0       -5.469746    0.993372    1.864358
     19          1           0       -6.334159   -0.058882    0.732407
     20          1           0       -6.347126    1.709616    0.501089
     21          1           0       -4.774544    0.562828   -1.089587
     22          1           0       -3.313713    2.223269    1.040025
     23          1           0       -2.781901    2.012502   -0.637000
     24          1           0       -4.275317    2.897769   -0.282897
     25          1           0       -3.187987   -0.285504    1.198273
     26          1           0       -2.677147   -2.150083   -0.204529
     27          1           0       -3.613202   -1.400866   -1.481596
     28          1           0       -1.201516   -1.197398   -1.894549
     29          1           0       -1.937087    0.383434   -1.764320
     30          1           0        0.213444    0.368886   -0.578628
     31          1           0       -1.096341    0.666531    0.541878
     32          1           0        0.562747   -0.853419    1.517008
     33          1           0       -1.002221   -1.629225    1.404927
     34          1           0        0.698478   -3.231182    0.798951
     35          1           0       -0.253068   -2.883629   -0.637722
     36          1           0        2.106127   -3.018674   -1.216735
     37          1           0        1.584800   -1.336297   -1.444058
     38          1           0        4.865202    1.933415    1.374027
     39          1           0        3.457528    2.812974   -1.844156
     40          1           0        2.165304    3.177180   -0.672359
     41          1           0        3.857526    3.598823   -0.292506
 ---------------------------------------------------------------------

 SCF Done:  E(UB3LYP) =  -766.211754494     A.U. after   33 cycles
 SCF Done:  E(UB3LYP) =  -766.211754494     a.u. after    1 cycles

 The electronic state is 2-A.
 Alpha  occ. eigenvalues --  -19.07153 -14.30736 -14.23958 -14.21240 -14.20851
 Alpha  occ. eigenvalues --  -10.18544 -10.14864 -10.14310 -10.11727 -10.11622
 Alpha  occ. eigenvalues --  -10.10759 -10.09137 -10.08247 -10.07655 -10.07365
 Alpha  occ. eigenvalues --  -10.07155 -10.07074  -1.01118  -0.96983  -0.82138
 Alpha  occ. eigenvalues --   -0.81547  -0.75030  -0.72667  -0.69405  -0.66818
 Alpha  occ. eigenvalues --   -0.63510  -0.61426  -0.60020  -0.57531  -0.53404
 Alpha  occ. eigenvalues --   -0.53342  -0.50589  -0.49486  -0.46762  -0.45342
 Alpha  occ. eigenvalues --   -0.41582  -0.40479  -0.39950  -0.39410  -0.38522
 Alpha  occ. eigenvalues --   -0.37746  -0.36969  -0.35411  -0.34458  -0.33365
 Alpha  occ. eigenvalues --   -0.33131  -0.32398  -0.32278  -0.31713  -0.30257
 Alpha  occ. eigenvalues --   -0.29948  -0.29844  -0.28498  -0.27395  -0.27170
 Alpha  occ. eigenvalues --   -0.25926  -0.25460  -0.25026  -0.24410  -0.23531
 Alpha  occ. eigenvalues --   -0.23344  -0.23066  -0.19773  -0.19322  -0.14629
 Alpha  occ. eigenvalues --   -0.13547   0.03862
 Alpha virt. eigenvalues --    0.05422   0.06141   0.06723   0.07382   0.07810
 Alpha virt. eigenvalues --    0.08019   0.08460   0.08753   0.09258   0.10011
 Alpha virt. eigenvalues --    0.10201   0.10460   0.10752   0.11072   0.11806

  Beta  occ. eigenvalues --  -19.07153 -14.30736 -14.23948 -14.21239 -14.20846
  Beta  occ. eigenvalues --  -10.18543 -10.14841 -10.14306 -10.11651 -10.11614
  Beta  occ. eigenvalues --  -10.10754 -10.09134 -10.08244 -10.07646 -10.07349
  Beta  occ. eigenvalues --  -10.07147 -10.07049  -1.01114  -0.96977  -0.82126
  Beta  occ. eigenvalues --   -0.81536  -0.75008  -0.72655  -0.69388  -0.66798
  Beta  occ. eigenvalues --   -0.63463  -0.61387  -0.59979  -0.57511  -0.53354
  Beta  occ. eigenvalues --   -0.53326  -0.50555  -0.49461  -0.46735  -0.45303
  Beta  occ. eigenvalues --   -0.41566  -0.40451  -0.39913  -0.39376  -0.38497
  Beta  occ. eigenvalues --   -0.37720  -0.36946  -0.35390  -0.34434  -0.33342
  Beta  occ. eigenvalues --   -0.33104  -0.32324  -0.32248  -0.31696  -0.30237
  Beta  occ. eigenvalues --   -0.29929  -0.29826  -0.28485  -0.27384  -0.27154
  Beta  occ. eigenvalues --   -0.25908  -0.25440  -0.24999  -0.24394  -0.23518
  Beta  occ. eigenvalues --   -0.23330  -0.23052  -0.19761  -0.19312  -0.14618
  Beta  occ. eigenvalues --   -0.13538
  Beta virt. eigenvalues --    0.05574   0.06239   0.06811   0.06911   0.07861
  Beta virt. eigenvalues --    0.07955   0.08448   0.08619   0.09157   0.09338
  Beta virt. eigenvalues --    0.10099   0.10533   0.10688   0.10900   0.11349

 Mulliken charges and spin densities:
               1          2
     1  C    0.110804  -0.573714
     2  C   -0.900184   0.671863
     3  C    0.445140  -0.918785
     4  N    0.104772  -0.020485
     5  C   -0.460902  -0.283138
     6  C    0.027614  -0.026496
     7  C   -0.444021  -0.031640
     8  C    0.362950  -0.185781
     9  C   -0.458084  -0.040270
    10  C   -0.227792  -0.200242
    11  O   -0.074934   0.003722
    12  C    0.382709  -0.665504
    13  N   -0.403628   0.294283
    14  N   -0.062164   0.024807
    15  C    0.129964  -0.001965
    16  N   -0.237293   0.055848
    17  C    1.851051  -2.156632
    18  H    0.029213   0.097508
    19  H   -0.006337   0.159278
    20  H   -0.017944   0.139163
    21  H   -0.007129   0.132953
    22  H   -0.069818   0.214621
    23  H    0.111494   0.019683
    24  H   -0.200481   0.341336
    25  H    0.271139  -0.044495
    26  H    0.133451   0.050494
    27  H    0.002377   0.143182
    28  H    0.054413   0.093785
    29  H   -0.091036   0.270209
    30  H    0.301303  -0.119761
    31  H    0.100261   0.070552
    32  H    0.139789   0.054941
    33  H    0.061754   0.072451
    34  H    0.200537  -0.013535
    35  H    0.104764  -0.002290
    36  H    0.087794   0.093343
    37  H    0.148435   0.050374
    38  H   -0.803943   0.995772
    39  H   -0.353677   0.541064
    40  H   -0.478378   0.665682
    41  H   -0.863986   1.027818
 Sum of Mulliken charges =  -1.00000   1.00000

 Dipole moment (field-independent basis, Debye):
    X=             -4.9040    Y=             -9.1086    Z=             -0.4523  Tot=             10.3547
 Quadrupole moment (field-independent basis, Debye-Ang):
   XX=           -221.4289   YY=           -172.8294   ZZ=           -138.6009
   XY=            -19.0881   XZ=             -4.9026   YZ=              5.6705

 Summary of Natural Population Analysis:

                                       Natural Population
                Natural  -----------------------------------------------
    Atom  No    Charge         Core      Valence    Rydberg      Total
 -----------------------------------------------------------------------
      C    1   -0.28323      0.99965     2.27830    0.00528     3.28323
      C    2   -0.01413      0.99962     2.00270    0.01181     3.01413
      C    3   -0.29420      0.99965     2.28833    0.00622     3.29420
      N    4   -0.34663      0.99974     2.83517    0.01172     3.84663
      C    5   -0.08513      0.99962     2.07464    0.01087     3.08513
      C    6   -0.20189      0.99962     2.19410    0.00816     3.20189
      C    7   -0.20590      0.99962     2.19689    0.00939     3.20590
      C    8   -0.19320      0.99962     2.18624    0.00733     3.19320
      C    9   -0.20188      0.99962     2.19463    0.00763     3.20188
      C   10   -0.01428      0.99955     2.00424    0.01049     3.01428
      O   11   -0.27416      0.99984     3.26551    0.00880     4.27416
      C   12    0.32281      0.99957     1.65471    0.02290     2.67719
      N   13   -0.20302      0.99968     2.69302    0.01032     3.70302
      N   14   -0.11086      0.99967     2.59836    0.01283     3.61086
      C   15    0.12041      0.99962     1.86337    0.01659     2.87959
      N   16   -0.27552      0.99970     2.76630    0.00952     3.77552
      C   17   -0.17282      0.99963     2.16451    0.00867     3.17282
      H   18    0.09508      0.00000     0.40395    0.00097     0.40492
      H   19    0.10109      0.00000     0.39766    0.00125     0.39891
      H   20    0.09638      0.00000     0.40275    0.00087     0.40362
      H   21    0.08762      0.00000     0.41068    0.00170     0.41238
      H   22    0.09555      0.00000     0.40337    0.00108     0.40445
      H   23    0.10262      0.00000     0.39604    0.00134     0.39738
      H   24    0.09993      0.00000     0.39915    0.00092     0.40007
      H   25    0.17113      0.00000     0.32615    0.00272     0.32887
      H   26    0.08940      0.00000     0.40951    0.00109     0.41060
      H   27    0.09102      0.00000     0.40790    0.00108     0.40898
      H   28    0.09389      0.00000     0.40487    0.00123     0.40611
      H   29    0.09877      0.00000     0.40009    0.00114     0.40123
      H   30    0.11242      0.00000     0.38566    0.00192     0.38758
      H   31    0.09763      0.00000     0.40102    0.00135     0.40237
      H   32    0.10372      0.00000     0.39509    0.00119     0.39628
      H   33    0.09373      0.00000     0.40521    0.00106     0.40627
      H   34    0.09975      0.00000     0.39915    0.00110     0.40025
      H   35    0.09735      0.00000     0.40147    0.00118     0.40265
      H   36    0.08787      0.00000     0.41117    0.00095     0.41213
      H   37    0.09989      0.00000     0.39842    0.00169     0.40011
      H   38    0.10114      0.00000     0.39697    0.00190     0.39886
      H   39    0.10316      0.00000     0.39503    0.00181     0.39684
      H   40    0.10597      0.00000     0.39158    0.00246     0.39403
      H   41    0.10850      0.00000     0.38461    0.00689     0.39150
 =======================================================================
   * Total *    0.00000     16.99403    48.78853    0.21744    66.00000

 Normal termination of Gaussian 16 at Fri Dec 11 14:20:04 2020.
