 Gaussian 16, Revision A.03,

 -----------------------------------------------------------
 # opt freq B3LYP/6-31G(d) empiricaldispersion=gd3bj scf=xqc
 -----------------------------------------------------------

 ------------------------------
 CID_82472620_JID_6518_neutraal
 ------------------------------
 Symbolic Z-matrix:
 Charge =  0 Multiplicity = 1

 SCF Done:  E(RB3LYP) =  -726.888056265     A.U. after   15 cycles
 SCF Done:  E(RB3LYP) =  -726.892705190     A.U. after   13 cycles
 SCF Done:  E(RB3LYP) =  -726.892601643     A.U. after   16 cycles
 SCF Done:  E(RB3LYP) =  -726.894247334     A.U. after   12 cycles
 SCF Done:  E(RB3LYP) =  -726.895239947     A.U. after   13 cycles
 SCF Done:  E(RB3LYP) =  -726.895598925     A.U. after   14 cycles
 SCF Done:  E(RB3LYP) =  -726.895940723     A.U. after   13 cycles
 SCF Done:  E(RB3LYP) =  -726.896142873     A.U. after   12 cycles
 SCF Done:  E(RB3LYP) =  -726.896204286     A.U. after   12 cycles
 SCF Done:  E(RB3LYP) =  -726.896268488     A.U. after   12 cycles
 SCF Done:  E(RB3LYP) =  -726.896650905     A.U. after    9 cycles
 SCF Done:  E(RB3LYP) =  -726.896651009     A.U. after    8 cycles
 SCF Done:  E(RB3LYP) =  -726.896651445     A.U. after    8 cycles
 SCF Done:  E(RB3LYP) =  -726.896651315     A.U. after    8 cycles
 Optimization completed.
    -- Stationary point found.
 Normal termination of Gaussian 16 at Thu Dec 10 23:43:54 2020.

 --------------------------------------------------------------------
 #N Geom=AllCheck Guess=TCheck SCRF=Check GenChk RB3LYP/6-31G(d) Freq
 --------------------------------------------------------------------

 Structure from the checkpoint file:  "JID_6518.chk"
 ------------------------------
 CID_82472620_JID_6518_neutraal
 ------------------------------
 Charge =  0 Multiplicity = 1

 SCF Done:  E(RB3LYP) =  -726.896651315     A.U. after    1 cycles

  Exact polarizability: 122.872  -5.466 154.501 -12.927  -1.430 120.399
 Approx polarizability: 165.408  -4.980 240.880 -25.612  -9.621 201.067

                      1                      2                      3
                      A                      A                      A
 Frequencies --     30.4262                31.7656                40.4750
 Red. masses --      6.1717                 5.4555                 4.9012
 Frc consts  --      0.0034                 0.0032                 0.0047
 IR Inten    --      1.0216                 2.4967                 4.1670

                      4                      5                      6
                      A                      A                      A
 Frequencies --     79.1140               114.8167               130.6182
 Red. masses --      3.3140                 4.0877                 3.4601
 Frc consts  --      0.0122                 0.0317                 0.0348
 IR Inten    --      0.1596                 7.3925                 1.3711

                      7                      8                      9
                      A                      A                      A
 Frequencies --    151.3591               192.7473               223.1694
 Red. masses --      5.5610                 4.3768                 3.4060
 Frc consts  --      0.0751                 0.0958                 0.0999
 IR Inten    --      6.7359                 0.7977                 9.9095

                     10                     11                     12
                      A                      A                      A
 Frequencies --    238.7993               268.5649               355.4542
 Red. masses --      3.0661                 1.8932                 3.5439
 Frc consts  --      0.1030                 0.0805                 0.2638
 IR Inten    --      0.6284                 1.2431                 5.1059

                     13                     14                     15
                      A                      A                      A
 Frequencies --    374.8769               385.3641               403.4370
 Red. masses --      3.2311                 2.6785                 3.2073
 Frc consts  --      0.2675                 0.2344                 0.3076
 IR Inten    --      2.0347                 1.5502                 5.9198

                     16                     17                     18
                      A                      A                      A
 Frequencies --    467.2918               496.4892               500.9587
 Red. masses --      2.9798                 3.0352                 4.5668
 Frc consts  --      0.3834                 0.4408                 0.6753
 IR Inten    --     10.5108                 5.0940                 7.5182

                     19                     20                     21
                      A                      A                      A
 Frequencies --    534.7531               568.7039               583.7612
 Red. masses --      1.6901                 1.7406                 3.3591
 Frc consts  --      0.2848                 0.3317                 0.6744
 IR Inten    --     78.0048                 1.9949                 2.4750

                     22                     23                     24
                      A                      A                      A
 Frequencies --    600.8128               640.0722               657.0542
 Red. masses --      3.3688                 2.7396                 2.2178
 Frc consts  --      0.7165                 0.6613                 0.5641
 IR Inten    --      9.3752                 8.8638                 1.0019

                     25                     26                     27
                      A                      A                      A
 Frequencies --    702.7748               740.2406               742.7117
 Red. masses --      1.2667                 3.4103                 3.2794
 Frc consts  --      0.3686                 1.1010                 1.0658
 IR Inten    --     41.2173                 3.6570                 1.6611

                     28                     29                     30
                      A                      A                      A
 Frequencies --    749.5318               826.3763               842.8796
 Red. masses --      2.3059                 1.4326                 1.6162
 Frc consts  --      0.7633                 0.5764                 0.6765
 IR Inten    --     14.0890                18.0560                 5.8589

                     31                     32                     33
                      A                      A                      A
 Frequencies --    848.2942               894.4837               910.2250
 Red. masses --      1.3159                 3.6500                 4.7661
 Frc consts  --      0.5579                 1.7206                 2.3265
 IR Inten    --     20.3786                10.6598                 0.5919

                     34                     35                     36
                      A                      A                      A
 Frequencies --    917.4484               947.7108               968.6421
 Red. masses --      2.5649                 2.1338                 2.2609
 Frc consts  --      1.2720                 1.1291                 1.2499
 IR Inten    --      2.7451                18.2009                12.6109

                     37                     38                     39
                      A                      A                      A
 Frequencies --    972.9257              1003.9240              1039.5522
 Red. masses --      2.2201                 1.8109                 2.1202
 Frc consts  --      1.2382                 1.0753                 1.3500
 IR Inten    --      2.1277                12.4339                 3.0191

                     40                     41                     42
                      A                      A                      A
 Frequencies --   1043.4506              1067.7515              1108.4243
 Red. masses --      1.8519                 1.8906                 1.8016
 Frc consts  --      1.1880                 1.2700                 1.3041
 IR Inten    --      0.6962                14.2372                37.7867

                     43                     44                     45
                      A                      A                      A
 Frequencies --   1112.0292              1127.3571              1150.2613
 Red. masses --      2.0225                 1.7548                 2.6390
 Frc consts  --      1.4736                 1.3140                 2.0572
 IR Inten    --     11.3933                70.2493                38.8522

                     46                     47                     48
                      A                      A                      A
 Frequencies --   1159.7618              1172.4543              1208.8491
 Red. masses --      1.5130                 1.9105                 1.6547
 Frc consts  --      1.1990                 1.5474                 1.4247
 IR Inten    --      4.0097                57.7192                16.1540

                     49                     50                     51
                      A                      A                      A
 Frequencies --   1214.0021              1246.3069              1252.4230
 Red. masses --      1.3812                 1.3087                 1.4172
 Frc consts  --      1.1993                 1.1976                 1.3097
 IR Inten    --     21.8707                17.2763                11.5443

                     52                     53                     54
                      A                      A                      A
 Frequencies --   1268.3116              1272.0024              1325.8920
 Red. masses --      1.5111                 1.6229                 1.7706
 Frc consts  --      1.4322                 1.5471                 1.8339
 IR Inten    --     21.7206                 2.2958                24.3308

                     55                     56                     57
                      A                      A                      A
 Frequencies --   1336.1786              1359.2718              1360.5995
 Red. masses --      1.6706                 1.4262                 1.4411
 Frc consts  --      1.7573                 1.5525                 1.5718
 IR Inten    --      5.4617                 5.5930                 6.0584

                     58                     59                     60
                      A                      A                      A
 Frequencies --   1372.9300              1384.5927              1410.8538
 Red. masses --      1.8644                 1.6024                 1.6336
 Frc consts  --      2.0706                 1.8100                 1.9158
 IR Inten    --     66.4972                33.9159                41.2561

                     61                     62                     63
                      A                      A                      A
 Frequencies --   1420.5484              1431.1765              1440.5804
 Red. masses --      4.0523                 1.3645                 1.4373
 Frc consts  --      4.8179                 1.6467                 1.7574
 IR Inten    --     31.1711                 2.5587                15.7968

                     64                     65                     66
                      A                      A                      A
 Frequencies --   1470.5036              1471.6365              1485.0656
 Red. masses --      3.0042                 1.0996                 1.0907
 Frc consts  --      3.8275                 1.4031                 1.4172
 IR Inten    --     39.2708                 8.6215                 1.6738

                     67                     68                     69
                      A                      A                      A
 Frequencies --   1505.9146              1514.0620              1538.8749
 Red. masses --      1.1129                 1.1286                 3.2635
 Frc consts  --      1.4869                 1.5243                 4.5534
 IR Inten    --      6.1144                 5.2381                71.6841

                     70                     71                     72
                      A                      A                      A
 Frequencies --   1554.3225              1562.2294              1596.3674
 Red. masses --      1.0829                 1.0873                 3.5024
 Frc consts  --      1.5414                 1.5634                 5.2587
 IR Inten    --      0.7784                 5.3904                65.7280

                     73                     74                     75
                      A                      A                      A
 Frequencies --   1744.1998              1823.6798              2933.8323
 Red. masses --     10.8190                11.7768                 1.0734
 Frc consts  --     19.3924                23.0768                 5.4434
 IR Inten    --    166.5221               199.3853                75.3941

                     76                     77                     78
                      A                      A                      A
 Frequencies --   2992.6101              3034.6105              3042.1378
 Red. masses --      1.0758                 1.0673                 1.0698
 Frc consts  --      5.6768                 5.7910                 5.8333
 IR Inten    --     74.4571                49.2193                21.3467

                     79                     80                     81
                      A                      A                      A
 Frequencies --   3053.1635              3055.3163              3069.8439
 Red. masses --      1.0805                 1.0662                 1.0626
 Frc consts  --      5.9343                 5.8642                 5.9001
 IR Inten    --     42.2132                13.1769                20.2695

                     82                     83                     84
                      A                      A                      A
 Frequencies --   3100.9366              3113.9259              3115.5113
 Red. masses --      1.0981                 1.0917                 1.0952
 Frc consts  --      6.2211                 6.2367                 6.2634
 IR Inten    --      3.5703                17.0564                 6.1341

                     85                     86                     87
                      A                      A                      A
 Frequencies --   3120.7791              3127.1406              3270.0692
 Red. masses --      1.0975                 1.0995                 1.0902
 Frc consts  --      6.2980                 6.3350                 6.8686
 IR Inten    --     12.3133                33.2234                 1.3841

                     88                     89                     90
                      A                      A                      A
 Frequencies --   3291.1022              3301.1814              3658.9399
 Red. masses --      1.1028                 1.0977                 1.0809
 Frc consts  --      7.0375                 7.0481                 8.5259
 IR Inten    --      1.1729                 2.0219                76.2606

 - Thermochemistry -
 -------------------
 Temperature   298.150 Kelvin.  Pressure   1.00000 Atm.
 Atom     1 has atomic number  6 and mass  12.00000

 Molecular mass:   220.12118 amu.
 Principal axes and moments of inertia in atomic units:
                           1         2         3
     Eigenvalues --  2625.634803961.812335387.18398
           X            0.99880  -0.04868  -0.00561
           Y            0.04875   0.99873   0.01288
           Z            0.00497  -0.01314   0.99990
 This molecule is an asymmetric top.
 Rotational symmetry number  1.
 Warning -- assumption of classical behavior for rotation
           may cause significant error
 Rotational temperatures (Kelvin)      0.03299     0.02186     0.01608
 Rotational constants (GHZ):           0.68735     0.45553     0.33501
 Zero-point vibrational energy     711614.0 (Joules/Mol)
                                  170.07983 (Kcal/Mol)
 Warning -- explicit consideration of  22 degrees of freedom as
           vibrations may cause significant error
 Vibrational temperatures:     43.78    45.70    58.23   113.83   165.20
          (Kelvin)            187.93   217.77   277.32   321.09   343.58
                              386.41   511.42   539.36   554.45   580.46
                              672.33   714.34   720.77   769.39   818.24
                              839.90   864.44   920.92   945.35  1011.14
                             1065.04  1068.60  1078.41  1188.97  1212.72
                             1220.51  1286.96  1309.61  1320.00  1363.54
                             1393.66  1399.82  1444.42  1495.68  1501.29
                             1536.26  1594.78  1599.96  1622.02  1654.97
                             1668.64  1686.90  1739.26  1746.68  1793.16
                             1801.96  1824.82  1830.13  1907.66  1922.46
                             1955.69  1957.60  1975.34  1992.12  2029.90
                             2043.85  2059.14  2072.67  2115.73  2117.36
                             2136.68  2166.68  2178.40  2214.10  2236.32
                             2247.70  2296.82  2509.51  2623.87  4221.13
                             4305.70  4366.13  4376.96  4392.82  4395.92
                             4416.82  4461.56  4480.24  4482.53  4490.11
                             4499.26  4704.90  4735.16  4749.66  5264.40

 Zero-point correction=                           0.271039 (Hartree/Particle)
 Thermal correction to Energy=                    0.285689
 Thermal correction to Enthalpy=                  0.286633
 Thermal correction to Gibbs Free Energy=         0.227742
 Sum of electronic and zero-point Energies=           -726.625612
 Sum of electronic and thermal Energies=              -726.610962
 Sum of electronic and thermal Enthalpies=            -726.610018
 Sum of electronic and thermal Free Energies=         -726.668909

                     E (Thermal)             CV                S
                      KCal/Mol        Cal/Mol-Kelvin    Cal/Mol-Kelvin
 Total                  179.272             56.200            123.947
 Electronic               0.000              0.000              0.000
 Translational            0.889              2.981             42.070
 Rotational               0.889              2.981             32.394
 Vibrational            177.495             50.238             49.483
 Vibration     1          0.594              1.984              5.801
 Vibration     2          0.594              1.983              5.716
 Vibration     3          0.594              1.981              5.236
 Vibration     4          0.600              1.963              3.913
 Vibration     5          0.608              1.937              3.186
 Vibration     6          0.612              1.923              2.937
 Vibration     7          0.619              1.901              2.655
 Vibration     8          0.635              1.850              2.201
 Vibration     9          0.649              1.806              1.933
 Vibration    10          0.657              1.781              1.812
 Vibration    11          0.673              1.731              1.605
 Vibration    12          0.731              1.564              1.142
 Vibration    13          0.746              1.524              1.060
 Vibration    14          0.754              1.501              1.018
 Vibration    15          0.769              1.463              0.950
 Vibration    16          0.825              1.323              0.745
 Vibration    17          0.852              1.258              0.667
 Vibration    18          0.856              1.248              0.656
 Vibration    19          0.890              1.173              0.577
 Vibration    20          0.925              1.099              0.507
 Vibration    21          0.941              1.066              0.478
 Vibration    22          0.959              1.030              0.448

 Optimization completed.
    -- Stationary point found.
 Normal termination of Gaussian 16 at Thu Dec 10 23:55:59 2020.

 ----------------------------------------------------------------------
 # B3LYP/6-311++G(d,p) empiricaldispersion=gd3bj scf=xqc pop=npa geom=c
 heck
 ----------------------------------------------------------------------

 --------------------------------------
 CID_82472620_JID_6518_Energie_neutraal
 --------------------------------------
 Structure from the checkpoint file:  "JID_6518.chk"
 Charge =  0 Multiplicity = 1

 SCF Done:  E(RB3LYP) =  -727.103829481     A.U. after   15 cycles
 Normal termination of Gaussian 16 at Fri Dec 11 00:00:59 2020.

 ----------------------------------------------------------------------
 # B3LYP/6-311++G(d,p) empiricaldispersion=gd3bj scf=xqc pop=npa geom=c
 heck
 ----------------------------------------------------------------------

 ------------------------------------
 CID_82472620_JID_6518_Energie_kation
 ------------------------------------
 Structure from the checkpoint file:  "JID_6518.chk"
 Charge =  1 Multiplicity = 2

 SCF Done:  E(UB3LYP) =  -726.823393962     A.U. after   33 cycles
 SCF Done:  E(UB3LYP) =  -726.823393962     a.u. after    2 cycles
 Normal termination of Gaussian 16 at Fri Dec 11 00:26:57 2020.
 Gaussian 16:  ES64L-G16RevA.03 25-Dec-2016

 ----------------------------------------------------------------------
 # B3LYP/6-311++G(d,p) empiricaldispersion=gd3bj scf=xqc pop=npa geom=c
 heck
 ----------------------------------------------------------------------

 -----------------------------------
 CID_82472620_JID_6518_Energie_anion
 -----------------------------------
 Structure from the checkpoint file:  "JID_6518.chk"
 Charge = -1 Multiplicity = 2

                         Standard orientation:
 ---------------------------------------------------------------------
 Center     Atomic      Atomic             Coordinates (Angstroms)
 Number     Number       Type             X           Y           Z
 ---------------------------------------------------------------------
      1          6           0       -1.268034   -0.862972   -1.052510
      2          6           0       -1.221003    0.652914   -1.296051
      3          7           0       -1.422602    1.446987   -0.072932
      4          6           0       -1.893391    0.731087    1.100803
      5          6           0       -3.004115   -0.247746    0.715762
      6          6           0       -2.512210   -1.281331   -0.290034
      7          8           0       -3.065374   -2.351531   -0.453365
      8          6           0       -0.482259    2.518782    0.184004
      9          6           0        0.885800    2.138304    0.818510
     10          6           0        1.740277    1.322545   -0.138255
     11          8           0        2.158313    1.837665   -1.172740
     12          6           0        1.993072   -0.092369    0.161564
     13          6           0        2.602897   -0.959197   -0.737195
     14          7           0        2.628857   -2.197446   -0.172456
     15          6           0        2.051270   -2.162192    1.083514
     16          6           0        1.648039   -0.870270    1.318445
     17          1           0       -0.402214   -1.162484   -0.446458
     18          1           0       -1.217681   -1.419919   -1.992686
     19          1           0       -1.996019    0.913488   -2.033996
     20          1           0       -0.261296    0.907345   -1.753072
     21          1           0       -2.274671    1.466943    1.820550
     22          1           0       -1.095999    0.169209    1.624296
     23          1           0       -3.827317    0.307189    0.243894
     24          1           0       -3.416462   -0.767116    1.586451
     25          1           0       -0.280481    3.037095   -0.758823
     26          1           0       -0.967082    3.241375    0.854247
     27          1           0        1.423889    3.071644    1.021105
     28          1           0        0.733179    1.627228    1.772855
     29          1           0        2.992637   -0.759570   -1.723351
     30          1           0        3.007528   -3.024116   -0.610205
     31          1           0        1.984550   -3.052304    1.691011
     32          1           0        1.168077   -0.517186    2.219397
 ---------------------------------------------------------------------

 SCF Done:  E(UB3LYP) =  -727.100459324     A.U. after   33 cycles
 SCF Done:  E(UB3LYP) =  -727.100459662     a.u. after    2 cycles

 The electronic state is 2-A.
 Alpha  occ. eigenvalues --  -19.00748 -18.92723 -14.24725 -14.18386 -10.15305
 Alpha  occ. eigenvalues --  -10.08825 -10.08439 -10.08327 -10.07298 -10.07274
 Alpha  occ. eigenvalues --  -10.06831 -10.06417 -10.06383 -10.04582 -10.03107
 Alpha  occ. eigenvalues --  -10.03036  -0.93974  -0.87021  -0.86250  -0.81108
 Alpha  occ. eigenvalues --   -0.68260  -0.66677  -0.65475  -0.61799  -0.61059
 Alpha  occ. eigenvalues --   -0.54278  -0.53763  -0.49332  -0.47125  -0.46522
 Alpha  occ. eigenvalues --   -0.43482  -0.40738  -0.39477  -0.37862  -0.37082
 Alpha  occ. eigenvalues --   -0.35467  -0.33377  -0.32457  -0.31936  -0.31268
 Alpha  occ. eigenvalues --   -0.30846  -0.30257  -0.30092  -0.28893  -0.28408
 Alpha  occ. eigenvalues --   -0.28070  -0.26725  -0.26094  -0.24992  -0.24522
 Alpha  occ. eigenvalues --   -0.23556  -0.22360  -0.21877  -0.20777  -0.14416
 Alpha  occ. eigenvalues --   -0.13625  -0.10613  -0.09365  -0.08473   0.05062
 Alpha virt. eigenvalues --    0.06570   0.07314   0.07848   0.08916   0.09232
 Alpha virt. eigenvalues --    0.09853   0.10178   0.11338   0.11539   0.11912
 Alpha virt. eigenvalues --    0.12437   0.12962   0.13305   0.14222   0.14579

  Beta  occ. eigenvalues --  -19.00732 -18.92336 -14.24617 -14.18389 -10.15272
  Beta  occ. eigenvalues --  -10.08812 -10.08496 -10.08326 -10.07296 -10.06888
  Beta  occ. eigenvalues --  -10.06774 -10.06419 -10.06109 -10.04526 -10.03147
  Beta  occ. eigenvalues --  -10.03070  -0.93936  -0.86672  -0.85626  -0.81089
  Beta  occ. eigenvalues --   -0.68206  -0.66502  -0.65461  -0.61589  -0.60838
  Beta  occ. eigenvalues --   -0.54253  -0.53455  -0.49065  -0.47004  -0.46405
  Beta  occ. eigenvalues --   -0.43295  -0.40682  -0.39393  -0.37660  -0.36962
  Beta  occ. eigenvalues --   -0.35289  -0.33297  -0.32258  -0.31849  -0.31146
  Beta  occ. eigenvalues --   -0.30762  -0.30057  -0.29663  -0.28676  -0.28344
  Beta  occ. eigenvalues --   -0.27851  -0.26526  -0.26004  -0.24868  -0.24297
  Beta  occ. eigenvalues --   -0.23362  -0.22193  -0.21714  -0.19303  -0.14370
  Beta  occ. eigenvalues --   -0.13034  -0.09673  -0.09059  -0.08354
  Beta virt. eigenvalues --    0.06578   0.07625   0.08072   0.08848   0.09374
  Beta virt. eigenvalues --    0.09816   0.10160   0.11142   0.11382   0.11857
  Beta virt. eigenvalues --    0.11931   0.12429   0.13172   0.13607   0.14270

 Mulliken charges and spin densities:
               1          2
     1  C   -0.166403  -0.083478
     2  C   -0.289182  -0.008294
     3  N    0.109710   0.011157
     4  C    0.068293  -0.224932
     5  C    0.068664  -0.455343
     6  C   -0.340709   0.144597
     7  O   -0.290629   0.008224
     8  C    0.351133  -0.795924
     9  C   -0.235002   0.345687
    10  C   -0.812269  -0.000296
    11  O   -0.367103   0.151141
    12  C    0.145784  -0.008859
    13  C   -0.030994   0.220536
    14  N   -0.095373   0.023683
    15  C   -0.562229  -0.058913
    16  C    0.462898  -0.069734
    17  H    0.322429   0.005452
    18  H    0.187749   0.003360
    19  H    0.076506   0.080759
    20  H    0.212417  -0.013877
    21  H   -0.470938   0.652565
    22  H    0.164644  -0.123476
    23  H    0.065977   0.113384
    24  H    0.133750   0.052438
    25  H    0.186280  -0.000281
    26  H   -0.440290   0.578728
    27  H   -0.125954   0.323508
    28  H    0.048242   0.058573
    29  H    0.175452  -0.014137
    30  H    0.253518   0.027810
    31  H    0.116502   0.008049
    32  H    0.077128   0.047892
 Sum of Mulliken charges =  -1.00000   1.00000

 Dipole moment (field-independent basis, Debye):
    X=              0.4795    Y=             -6.1263    Z=             -0.1335  Tot=              6.1465
 Quadrupole moment (field-independent basis, Debye-Ang):
   XX=           -142.5001   YY=           -137.9067   ZZ=           -113.6940
   XY=            -15.9741   XZ=              3.5606   YZ=             -3.4669

 Summary of Natural Population Analysis:

                                       Natural Population
                Natural  -----------------------------------------------
    Atom  No    Charge         Core      Valence    Rydberg      Total
 -----------------------------------------------------------------------
      C    1   -0.25294      0.99957     2.24512    0.00825     3.25294
      C    2   -0.08354      0.99961     2.07271    0.01123     3.08354
      N    3   -0.28988      0.99971     2.77647    0.01370     3.78988
      C    4   -0.08395      0.99961     2.07303    0.01131     3.08395
      C    5   -0.24329      0.99958     2.23462    0.00909     3.24329
      C    6    0.30557      0.99965     1.67254    0.02223     2.69443
      O    7   -0.29569      0.99987     3.28855    0.00726     4.29569
      C    8   -0.06953      0.99961     2.05720    0.01273     3.06953
      C    9   -0.23879      0.99960     2.23047    0.00872     3.23879
      C   10    0.31500      0.99959     1.66395    0.02146     2.68500
      O   11   -0.28100      0.99988     3.27535    0.00576     4.28100
      C   12   -0.11534      0.99949     2.10422    0.01164     3.11534
      C   13    0.05735      0.99955     1.92995    0.01314     2.94265
      N   14   -0.25334      0.99969     2.74536    0.00829     3.75334
      C   15   -0.05386      0.99959     2.04256    0.01171     3.05386
      C   16   -0.13031      0.99953     2.12122    0.00956     3.13031
      H   17    0.12847      0.00000     0.37003    0.00150     0.37153
      H   18    0.10878      0.00000     0.39030    0.00092     0.39122
      H   19    0.08198      0.00000     0.41702    0.00101     0.41802
      H   20    0.11217      0.00000     0.38662    0.00121     0.38783
      H   21    0.09829      0.00000     0.39995    0.00176     0.40171
      H   22    0.08117      0.00000     0.41705    0.00178     0.41883
      H   23    0.11312      0.00000     0.38529    0.00160     0.38688
      H   24    0.10890      0.00000     0.39007    0.00103     0.39110
      H   25    0.09842      0.00000     0.40047    0.00112     0.40158
      H   26    0.09120      0.00000     0.40667    0.00212     0.40880
      H   27    0.10918      0.00000     0.38928    0.00153     0.39082
      H   28    0.09147      0.00000     0.40720    0.00132     0.40853
      H   29    0.10176      0.00000     0.39743    0.00082     0.39824
      H   30    0.19181      0.00000     0.30647    0.00172     0.30819
      H   31    0.09413      0.00000     0.40504    0.00083     0.40587
      H   32    0.10271      0.00000     0.39634    0.00095     0.39729
 =======================================================================
   * Total *    0.00000     15.99414    42.79857    0.20728    59.00000

 Normal termination of Gaussian 16 at Fri Dec 11 00:55:42 2020.
