 Gaussian 16, Revision A.03,

 -----------------------------------------------------------
 # opt freq B3LYP/6-31G(d) empiricaldispersion=gd3bj scf=xqc
 -----------------------------------------------------------

 ------------------------------
 CID_62487312_JID_9247_neutraal
 ------------------------------
 Symbolic Z-matrix:
 Charge =  0 Multiplicity = 1

 SCF Done:  E(RB3LYP) =  -816.288994518     A.U. after   15 cycles
 SCF Done:  E(RB3LYP) =  -816.297112411     A.U. after   13 cycles
 SCF Done:  E(RB3LYP) =  -816.298846162     A.U. after   12 cycles
 SCF Done:  E(RB3LYP) =  -816.300141780     A.U. after   13 cycles
 SCF Done:  E(RB3LYP) =  -816.300965273     A.U. after   13 cycles
 SCF Done:  E(RB3LYP) =  -816.301257881     A.U. after   12 cycles
 SCF Done:  E(RB3LYP) =  -816.301298097     A.U. after   11 cycles
 SCF Done:  E(RB3LYP) =  -816.301336480     A.U. after   10 cycles
 SCF Done:  E(RB3LYP) =  -816.301352691     A.U. after   10 cycles
 SCF Done:  E(RB3LYP) =  -816.301371716     A.U. after   11 cycles
 SCF Done:  E(RB3LYP) =  -816.302904175     A.U. after   10 cycles
 SCF Done:  E(RB3LYP) =  -816.302905522     A.U. after   10 cycles
 SCF Done:  E(RB3LYP) =  -816.302905969     A.U. after    9 cycles
 SCF Done:  E(RB3LYP) =  -816.302906022     A.U. after    8 cycles
 SCF Done:  E(RB3LYP) =  -816.302906039     A.U. after    7 cycles
 Optimization completed.
    -- Stationary point found.
 Normal termination of Gaussian 16 at Sun Dec 13 12:52:46 2020.

 --------------------------------------------------------------------
 #N Geom=AllCheck Guess=TCheck SCRF=Check GenChk RB3LYP/6-31G(d) Freq
 --------------------------------------------------------------------

 Structure from the checkpoint file:  "JID_9247.chk"
 ------------------------------
 CID_62487312_JID_9247_neutraal
 ------------------------------
 Charge =  0 Multiplicity = 1

 SCF Done:  E(RB3LYP) =  -816.302906039     A.U. after    1 cycles

  Exact polarizability: 255.060 -19.073 143.898  -7.456  -2.809 124.303
 Approx polarizability: 371.104 -44.993 248.914 -18.408  -1.879 211.897

                      1                      2                      3
                      A                      A                      A
 Frequencies --     24.5492                34.6975                62.8567
 Red. masses --      3.7973                 4.7236                 5.1206
 Frc consts  --      0.0013                 0.0034                 0.0119
 IR Inten    --      0.0577                 1.0811                 1.0708

                      4                      5                      6
                      A                      A                      A
 Frequencies --     94.3650               120.5488               144.5844
 Red. masses --      3.8449                 1.3384                 4.2739
 Frc consts  --      0.0202                 0.0115                 0.0526
 IR Inten    --      3.4700                 0.0068                 0.5340

                      7                      8                      9
                      A                      A                      A
 Frequencies --    150.7367               203.2754               228.7235
 Red. masses --      2.6252                 4.4803                 4.0728
 Frc consts  --      0.0351                 0.1091                 0.1255
 IR Inten    --      0.5401                 0.4896                 0.1236

                     10                     11                     12
                      A                      A                      A
 Frequencies --    254.6317               297.9488               308.5320
 Red. masses --      3.3693                 3.4013                 2.2677
 Frc consts  --      0.1287                 0.1779                 0.1272
 IR Inten    --      0.6132                 2.7921                24.2408

                     13                     14                     15
                      A                      A                      A
 Frequencies --    317.8422               325.3778               358.9343
 Red. masses --      1.6272                 1.2254                 2.6508
 Frc consts  --      0.0969                 0.0764                 0.2012
 IR Inten    --      4.1593                37.1401                18.5280

                     16                     17                     18
                      A                      A                      A
 Frequencies --    372.2392               403.7454               416.5500
 Red. masses --      2.3958                 3.8918                 2.9489
 Frc consts  --      0.1956                 0.3738                 0.3015
 IR Inten    --     11.5405                17.1800                 1.5993

                     19                     20                     21
                      A                      A                      A
 Frequencies --    434.2569               478.3341               487.1735
 Red. masses --      4.6700                 3.9612                 5.7578
 Frc consts  --      0.5189                 0.5340                 0.8051
 IR Inten    --      1.1764                 0.1680                12.0939

                     22                     23                     24
                      A                      A                      A
 Frequencies --    513.0424               520.1649               613.1194
 Red. masses --      4.5986                 4.3591                 4.7320
 Frc consts  --      0.7132                 0.6949                 1.0481
 IR Inten    --      1.1954                 6.1918                11.5228

                     25                     26                     27
                      A                      A                      A
 Frequencies --    617.5814               633.8516               637.4920
 Red. masses --      4.9980                 3.9867                 6.3596
 Frc consts  --      1.1232                 0.9437                 1.5227
 IR Inten    --      1.8476                 0.1028                 0.0480

                     28                     29                     30
                      A                      A                      A
 Frequencies --    673.9617               711.8390               723.3176
 Red. masses --      4.6455                 1.7695                 7.2004
 Frc consts  --      1.2432                 0.5283                 2.2195
 IR Inten    --      9.8287                28.9451                 2.8364

                     31                     32                     33
                      A                      A                      A
 Frequencies --    760.0607               761.8492               786.3986
 Red. masses --      6.8794                 3.4376                 3.3820
 Frc consts  --      2.3415                 1.1756                 1.2323
 IR Inten    --      0.2206                10.4341                23.3020

                     34                     35                     36
                      A                      A                      A
 Frequencies --    809.6456               825.8323               840.1764
 Red. masses --      3.4884                 1.4626                 4.1584
 Frc consts  --      1.3473                 0.5877                 1.7295
 IR Inten    --      5.1404                27.5909                 2.7556

                     37                     38                     39
                      A                      A                      A
 Frequencies --    858.9596               902.3085               935.0112
 Red. masses --      1.2510                 2.0344                 1.4314
 Frc consts  --      0.5438                 0.9759                 0.7373
 IR Inten    --      0.2436                72.0350                11.6037

                     40                     41                     42
                      A                      A                      A
 Frequencies --    966.7511               970.5388               973.5670
 Red. masses --      3.0048                 1.3418                 1.3664
 Frc consts  --      1.6546                 0.7446                 0.7631
 IR Inten    --      2.4145                 4.2528                21.4027

                     43                     44                     45
                      A                      A                      A
 Frequencies --    992.9635               996.0716              1023.5373
 Red. masses --      1.2836                 1.2544                 4.9927
 Frc consts  --      0.7457                 0.7333                 3.0817
 IR Inten    --      0.2338                 0.2392                 9.6992

                     46                     47                     48
                      A                      A                      A
 Frequencies --   1026.3505              1059.3729              1062.9090
 Red. masses --      2.6707                 2.4661                 3.0418
 Frc consts  --      1.6575                 1.6307                 2.0248
 IR Inten    --     21.9156                15.2264                18.2714

                     49                     50                     51
                      A                      A                      A
 Frequencies --   1073.8565              1084.1236              1093.9982
 Red. masses --      1.5243                 3.1549                 3.0304
 Frc consts  --      1.0356                 2.1847                 2.1369
 IR Inten    --      3.6466                17.0751                15.2927

                     52                     53                     54
                      A                      A                      A
 Frequencies --   1107.9847              1139.8249              1164.9356
 Red. masses --      2.1815                 1.8099                 1.3006
 Frc consts  --      1.5778                 1.3855                 1.0399
 IR Inten    --      3.4780                 2.4064                 4.1890

                     55                     56                     57
                      A                      A                      A
 Frequencies --   1172.6293              1194.3918              1221.5221
 Red. masses --      2.2291                 1.0963                 1.1388
 Frc consts  --      1.8060                 0.9215                 1.0012
 IR Inten    --      2.1066                 0.1042                 4.3422

                     58                     59                     60
                      A                      A                      A
 Frequencies --   1236.0397              1260.6663              1311.7679
 Red. masses --      2.6444                 3.6101                 3.9191
 Frc consts  --      2.3803                 3.3804                 3.9732
 IR Inten    --     21.4893                 2.1075                 0.5040

                     61                     62                     63
                      A                      A                      A
 Frequencies --   1349.0258              1352.6618              1359.8786
 Red. masses --      4.2909                 2.6968                 2.6379
 Frc consts  --      4.6009                 2.9072                 2.8741
 IR Inten    --     72.7672                 0.9146                55.9162

                     64                     65                     66
                      A                      A                      A
 Frequencies --   1370.4746              1413.9713              1417.8635
 Red. masses --      1.9520                 2.5224                 3.8986
 Frc consts  --      2.1601                 2.9713                 4.6177
 IR Inten    --      4.9123                 8.1341                 2.2957

                     67                     68                     69
                      A                      A                      A
 Frequencies --   1428.3614              1445.4682              1497.6011
 Red. masses --      1.2265                 1.5988                 1.8488
 Frc consts  --      1.4743                 1.9682                 2.4431
 IR Inten    --      5.4313                11.1837                 9.4819

                     70                     71                     72
                      A                      A                      A
 Frequencies --   1497.9057              1509.4128              1520.3525
 Red. masses --      1.5596                 1.0440                 1.6301
 Frc consts  --      2.0617                 1.4014                 2.2200
 IR Inten    --     19.7659                 7.1370                 1.9347

                     73                     74                     75
                      A                      A                      A
 Frequencies --   1523.3338              1542.5467              1546.3813
 Red. masses --      1.6988                 1.5833                 2.3622
 Frc consts  --      2.3226                 2.2197                 3.3281
 IR Inten    --      4.0020                 2.5594                 9.9416

                     76                     77                     78
                      A                      A                      A
 Frequencies --   1550.2965              1594.4436              1647.7780
 Red. masses --      1.9008                 5.4051                 5.3578
 Frc consts  --      2.6917                 8.0961                 8.5710
 IR Inten    --      4.3580                26.9550                 0.9726

                     79                     80                     81
                      A                      A                      A
 Frequencies --   1668.0575              1677.1301              1684.6038
 Red. masses --      4.3364                 6.3588                 1.1953
 Frc consts  --      7.1089                10.5380                 1.9986
 IR Inten    --      6.6271                21.0153                51.5740

                     82                     83                     84
                      A                      A                      A
 Frequencies --   3055.6626              3055.9104              3109.9442
 Red. masses --      1.0382                 1.0351                 1.1010
 Frc consts  --      5.7113                 5.6954                 6.2741
 IR Inten    --     14.8811                15.7039                10.4121

                     85                     86                     87
                      A                      A                      A
 Frequencies --   3128.6417              3137.9830              3163.3892
 Red. masses --      1.1030                 1.1025                 1.1006
 Frc consts  --      6.3615                 6.3965                 6.4891
 IR Inten    --     23.2537                21.9476                 6.2042

                     88                     89                     90
                      A                      A                      A
 Frequencies --   3180.7609              3191.3853              3204.7600
 Red. masses --      1.0850                 1.0897                 1.0950
 Frc consts  --      6.4676                 6.5388                 6.6259
 IR Inten    --      0.0950                19.2214                43.4249

                     91                     92                     93
                      A                      A                      A
 Frequencies --   3216.9255              3223.1021              3229.8402
 Red. masses --      1.0894                 1.0918                 1.0925
 Frc consts  --      6.6421                 6.6825                 6.7148
 IR Inten    --      2.4112                16.7176                 2.7406

                     94                     95                     96
                      A                      A                      A
 Frequencies --   3239.3940              3463.6234              3556.6578
 Red. masses --      1.0961                 1.0490                 1.0934
 Frc consts  --      6.7769                 7.4143                 8.1493
 IR Inten    --      2.9134                 7.7273                 2.4548

 - Thermochemistry -
 -------------------
 Temperature   298.150 Kelvin.  Pressure   1.00000 Atm.
 Atom     1 has atomic number  6 and mass  12.00000

 Molecular mass:   253.13275 amu.
 Principal axes and moments of inertia in atomic units:
                           1         2         3
     Eigenvalues --  1898.214157975.701288817.72795
           X            0.99995  -0.00949  -0.00252
           Y            0.00943   0.99968  -0.02358
           Z            0.00274   0.02355   0.99972
 This molecule is an asymmetric top.
 Rotational symmetry number  1.
 Warning -- assumption of classical behavior for rotation
           may cause significant error
 Rotational temperatures (Kelvin)      0.04563     0.01086     0.00982
 Rotational constants (GHZ):           0.95076     0.22628     0.20467
 Zero-point vibrational energy     726933.8 (Joules/Mol)
                                  173.74136 (Kcal/Mol)
 Warning -- explicit consideration of  25 degrees of freedom as
           vibrations may cause significant error
 Vibrational temperatures:     35.32    49.92    90.44   135.77   173.44
          (Kelvin)            208.02   216.88   292.47   329.08   366.36
                              428.68   443.91   457.30   468.15   516.43
                              535.57   580.90   599.32   624.80   688.22
                              700.93   738.15   748.40   882.14   888.56
                              911.97   917.21   969.68  1024.18  1040.69
                             1093.56  1096.13  1131.45  1164.90  1188.19
                             1208.83  1235.85  1298.22  1345.27  1390.94
                             1396.39  1400.75  1428.65  1433.12  1472.64
                             1476.69  1524.20  1529.29  1545.04  1559.81
                             1574.02  1594.14  1639.95  1676.08  1687.15
                             1718.46  1757.50  1778.39  1813.82  1887.34
                             1940.95  1946.18  1956.56  1971.81  2034.39
                             2039.99  2055.09  2079.71  2154.71  2155.15
                             2171.71  2187.45  2191.74  2219.38  2224.90
                             2230.53  2294.05  2370.79  2399.96  2413.02
                             2423.77  4396.42  4396.77  4474.52  4501.42
                             4514.86  4551.41  4576.41  4591.69  4610.93
                             4628.44  4637.33  4647.02  4660.77  4983.38
                             5117.24

 Zero-point correction=                           0.276874 (Hartree/Particle)
 Thermal correction to Energy=                    0.292877
 Thermal correction to Enthalpy=                  0.293821
 Thermal correction to Gibbs Free Energy=         0.232780
 Sum of electronic and zero-point Energies=           -816.026032
 Sum of electronic and thermal Energies=              -816.010029
 Sum of electronic and thermal Enthalpies=            -816.009085
 Sum of electronic and thermal Free Energies=         -816.070126

                     E (Thermal)             CV                S
                      KCal/Mol        Cal/Mol-Kelvin    Cal/Mol-Kelvin
 Total                  183.783             63.524            128.473
 Electronic               0.000              0.000              0.000
 Translational            0.889              2.981             42.486
 Rotational               0.889              2.981             33.256
 Vibrational            182.006             57.562             52.730
 Vibration     1          0.593              1.985              6.227
 Vibration     2          0.594              1.983              5.541
 Vibration     3          0.597              1.972              4.365
 Vibration     4          0.603              1.953              3.567
 Vibration     5          0.609              1.932              3.092
 Vibration     6          0.616              1.909              2.742
 Vibration     7          0.618              1.902              2.663
 Vibration     8          0.639              1.835              2.103
 Vibration     9          0.651              1.797              1.889
 Vibration    10          0.665              1.755              1.698
 Vibration    11          0.691              1.678              1.428
 Vibration    12          0.698              1.657              1.370
 Vibration    13          0.704              1.639              1.321
 Vibration    14          0.709              1.625              1.283
 Vibration    15          0.734              1.557              1.127
 Vibration    16          0.744              1.529              1.071
 Vibration    17          0.769              1.462              0.949
 Vibration    18          0.780              1.434              0.904
 Vibration    19          0.795              1.396              0.845
 Vibration    20          0.835              1.298              0.715
 Vibration    21          0.843              1.278              0.691
 Vibration    22          0.868              1.221              0.626
 Vibration    23          0.875              1.205              0.610
 Vibration    24          0.972              1.004              0.428
 Vibration    25          0.977              0.995              0.420

 Optimization completed.
    -- Stationary point found.
 Normal termination of Gaussian 16 at Sun Dec 13 13:10:51 2020.

 ----------------------------------------------------------------------
 # B3LYP/6-311++G(d,p) empiricaldispersion=gd3bj scf=xqc pop=npa geom=c
 heck
 ----------------------------------------------------------------------

 --------------------------------------
 CID_62487312_JID_9247_Energie_neutraal
 --------------------------------------
 Structure from the checkpoint file:  "JID_9247.chk"
 Charge =  0 Multiplicity = 1

 SCF Done:  E(RB3LYP) =  -816.517261519     A.U. after   16 cycles
 Normal termination of Gaussian 16 at Sun Dec 13 13:19:05 2020.

 ----------------------------------------------------------------------
 # B3LYP/6-311++G(d,p) empiricaldispersion=gd3bj scf=xqc pop=npa geom=c
 heck
 ----------------------------------------------------------------------

 ------------------------------------
 CID_62487312_JID_9247_Energie_kation
 ------------------------------------
 Structure from the checkpoint file:  "JID_9247.chk"
 Charge =  1 Multiplicity = 2

 SCF Done:  E(UB3LYP) =  -816.219708459     A.U. after   33 cycles
 SCF Done:  E(UB3LYP) =  -816.219708459     a.u. after    1 cycles
 Normal termination of Gaussian 16 at Sun Dec 13 13:42:16 2020.
 Gaussian 16:  ES64L-G16RevA.03 25-Dec-2016

 ----------------------------------------------------------------------
 # B3LYP/6-311++G(d,p) empiricaldispersion=gd3bj scf=xqc pop=npa geom=c
 heck
 ----------------------------------------------------------------------

 -----------------------------------
 CID_62487312_JID_9247_Energie_anion
 -----------------------------------
 Structure from the checkpoint file:  "JID_9247.chk"
 Charge = -1 Multiplicity = 2

                         Standard orientation:
 ---------------------------------------------------------------------
 Center     Atomic      Atomic             Coordinates (Angstroms)
 Number     Number       Type             X           Y           Z
 ---------------------------------------------------------------------
      1          6           0        4.463244   -1.789988   -0.351489
      2          6           0        3.577321   -0.588405   -0.176412
      3          7           0        2.288436   -0.821255   -0.098348
      4          7           0        1.510900    0.280311    0.058145
      5          6           0        1.952655    1.602027    0.147469
      6          7           0        0.914027    2.405937    0.307095
      7          7           0       -0.204912    1.614326    0.317105
      8          6           0        0.143722    0.346901    0.164122
      9          6           0       -0.767075   -0.864305    0.163114
     10          6           0       -0.524047   -1.648018    1.474751
     11          6           0       -2.218986   -0.396280    0.014064
     12          6           0       -3.109509   -0.358061    1.089502
     13          6           0       -4.426375    0.069600    0.908617
     14          6           0       -4.868253    0.467349   -0.351275
     15          6           0       -3.982666    0.437692   -1.430396
     16          6           0       -2.670141    0.010577   -1.248504
     17          7           0       -0.427536   -1.670133   -1.032113
     18          6           0        3.346744    1.821522    0.057585
     19          6           0        4.150356    0.728993   -0.103479
     20          1           0        3.862221   -2.700871   -0.377598
     21          1           0        5.036188   -1.716385   -1.283304
     22          1           0        5.184551   -1.863825    0.470813
     23          1           0       -0.678388   -1.027310    2.362924
     24          1           0       -1.201197   -2.507356    1.527169
     25          1           0        0.506420   -2.014242    1.493497
     26          1           0       -2.787870   -0.657270    2.080530
     27          1           0       -5.104145    0.091358    1.757596
     28          1           0       -5.892825    0.800545   -0.492074
     29          1           0       -4.314604    0.750886   -2.416555
     30          1           0       -1.978277   -0.018023   -2.082487
     31          1           0        0.513270   -2.044892   -0.917808
     32          1           0       -1.069981   -2.460256   -1.072822
     33          1           0        3.728718    2.834300    0.119614
     34          1           0        5.227572    0.831417   -0.178706
 ---------------------------------------------------------------------

 SCF Done:  E(UB3LYP) =  -816.538076512     A.U. after   23 cycles

 The electronic state is 2-A.
 Alpha  occ. eigenvalues --  -14.24567 -14.17985 -14.17336 -14.16925 -14.15812
 Alpha  occ. eigenvalues --  -10.11433 -10.08374 -10.07968 -10.07966 -10.07892
 Alpha  occ. eigenvalues --  -10.07670 -10.07548 -10.07436 -10.06779 -10.05986
 Alpha  occ. eigenvalues --  -10.05398 -10.04759 -10.01721 -10.00832  -0.92531
 Alpha  occ. eigenvalues --   -0.83609  -0.79265  -0.75223  -0.70496  -0.68015
 Alpha  occ. eigenvalues --   -0.66049  -0.64812  -0.63067  -0.61088  -0.59437
 Alpha  occ. eigenvalues --   -0.53669  -0.50520  -0.49396  -0.49319  -0.48215
 Alpha  occ. eigenvalues --   -0.44851  -0.41552  -0.39076  -0.37615  -0.36510
 Alpha  occ. eigenvalues --   -0.35135  -0.34819  -0.34242  -0.33058  -0.32467
 Alpha  occ. eigenvalues --   -0.31470  -0.30827  -0.29948  -0.29446  -0.28262
 Alpha  occ. eigenvalues --   -0.27620  -0.27283  -0.25898  -0.25223  -0.24546
 Alpha  occ. eigenvalues --   -0.24320  -0.23261  -0.22059  -0.17588  -0.17351
 Alpha  occ. eigenvalues --   -0.15695  -0.15456  -0.13924  -0.13474  -0.12303
 Alpha  occ. eigenvalues --   -0.10125  -0.08488   0.04210
 Alpha virt. eigenvalues --    0.06877   0.08060   0.08397   0.08579   0.08584
 Alpha virt. eigenvalues --    0.09009   0.10174   0.10549   0.10719   0.11570
 Alpha virt. eigenvalues --    0.11981   0.12723   0.13091   0.13510   0.14342

  Beta  occ. eigenvalues --  -14.24357 -14.17985 -14.16786 -14.16706 -14.15649
  Beta  occ. eigenvalues --  -10.11430 -10.08440 -10.07969 -10.07966 -10.07887
  Beta  occ. eigenvalues --  -10.07667 -10.07647 -10.07435 -10.06774 -10.05872
  Beta  occ. eigenvalues --  -10.05397 -10.04768 -10.01576 -10.00261  -0.92129
  Beta  occ. eigenvalues --   -0.83026  -0.79259  -0.75216  -0.70037  -0.67732
  Beta  occ. eigenvalues --   -0.65822  -0.64794  -0.62633  -0.60947  -0.59154
  Beta  occ. eigenvalues --   -0.53627  -0.50506  -0.49302  -0.48658  -0.47884
  Beta  occ. eigenvalues --   -0.44713  -0.41446  -0.38863  -0.37537  -0.36489
  Beta  occ. eigenvalues --   -0.35099  -0.34514  -0.33816  -0.32874  -0.32347
  Beta  occ. eigenvalues --   -0.31275  -0.30537  -0.29885  -0.29198  -0.28163
  Beta  occ. eigenvalues --   -0.27600  -0.27228  -0.25861  -0.24893  -0.24532
  Beta  occ. eigenvalues --   -0.24105  -0.23175  -0.20546  -0.17064  -0.15737
  Beta  occ. eigenvalues --   -0.15590  -0.15317  -0.13599  -0.13304  -0.10816
  Beta  occ. eigenvalues --   -0.09854  -0.06837
  Beta virt. eigenvalues --    0.06867   0.08038   0.08384   0.08556   0.08593
  Beta virt. eigenvalues --    0.08983   0.10131   0.10457   0.10683   0.11609
  Beta virt. eigenvalues --    0.11762   0.11967   0.12706   0.13087   0.13483

 Mulliken charges and spin densities:
               1          2
     1  C   -0.651910   0.007020
     2  C   -0.195212   0.053674
     3  N   -0.033190   0.354966
     4  N    0.095314   0.022439
     5  C    0.235559  -0.050133
     6  N    0.064317   0.068914
     7  N   -0.176724   0.061763
     8  C   -1.289086  -0.022690
     9  C    0.645391  -0.042218
    10  C   -0.297123  -0.013085
    11  C    0.843858   0.047810
    12  C   -0.451113  -0.021646
    13  C   -0.428171   0.007802
    14  C   -0.395526   0.001353
    15  C   -0.489770   0.008612
    16  C   -0.088109  -0.026366
    17  N   -0.338346   0.006655
    18  C   -0.231258   0.426238
    19  C   -0.078715   0.127109
    20  H    0.111636  -0.000824
    21  H    0.128118   0.001520
    22  H    0.126063   0.001477
    23  H    0.142414   0.005736
    24  H    0.120563  -0.000473
    25  H    0.170823   0.014394
    26  H    0.111681   0.001056
    27  H    0.153480   0.000194
    28  H    0.115921   0.000086
    29  H    0.156861  -0.000584
    30  H    0.172381   0.005338
    31  H    0.276420   0.000605
    32  H    0.212971  -0.000643
    33  H    0.133705  -0.036040
    34  H    0.126775  -0.010058
 Sum of Mulliken charges =  -1.00000   1.00000

 Dipole moment (field-independent basis, Debye):
    X=             -4.6573    Y=             -5.7713    Z=              0.2444  Tot=              7.4201
 Quadrupole moment (field-independent basis, Debye-Ang):
   XX=           -148.1812   YY=           -138.5254   ZZ=           -119.7959
   XY=             -3.5125   XZ=             -0.6832   YZ=             -3.7387

 Summary of Natural Population Analysis:

                                       Natural Population
                Natural  -----------------------------------------------
    Atom  No    Charge         Core      Valence    Rydberg      Total
 -----------------------------------------------------------------------
      C    1   -0.29239      0.99964     2.28844    0.00430     3.29239
      C    2    0.11169      0.99961     1.87556    0.01313     2.88831
      N    3   -0.08762      0.99964     2.57431    0.01368     3.58762
      N    4   -0.08179      0.99954     2.57045    0.01180     3.58179
      C    5    0.14411      0.99958     1.83846    0.01785     2.85589
      N    6   -0.15537      0.99969     2.64161    0.01407     3.65537
      N    7   -0.14361      0.99968     2.62983    0.01411     3.64361
      C    8    0.15287      0.99955     1.82607    0.02152     2.84713
      C    9    0.03220      0.99951     1.95348    0.01481     2.96780
      C   10   -0.29266      0.99964     2.28776    0.00526     3.29266
      C   11   -0.00124      0.99949     1.98753    0.01423     3.00124
      C   12   -0.09910      0.99951     2.09176    0.00784     3.09910
      C   13   -0.10359      0.99957     2.09500    0.00902     3.10359
      C   14   -0.11082      0.99957     2.10210    0.00914     3.11082
      C   15   -0.10319      0.99957     2.09457    0.00905     3.10319
      C   16   -0.08637      0.99951     2.07812    0.00873     3.08637
      N   17   -0.42356      0.99976     2.91465    0.00915     3.92356
      C   18    0.00919      0.99953     1.98237    0.00891     2.99081
      C   19   -0.10902      0.99954     2.10055    0.00893     3.10902
      H   20    0.10143      0.00000     0.39750    0.00107     0.39857
      H   21    0.09629      0.00000     0.40268    0.00103     0.40371
      H   22    0.09583      0.00000     0.40313    0.00104     0.40417
      H   23    0.10042      0.00000     0.39878    0.00080     0.39958
      H   24    0.09151      0.00000     0.40757    0.00092     0.40849
      H   25    0.11413      0.00000     0.38501    0.00086     0.38587
      H   26    0.10126      0.00000     0.39753    0.00121     0.39874
      H   27    0.09490      0.00000     0.40409    0.00102     0.40510
      H   28    0.09479      0.00000     0.40426    0.00095     0.40521
      H   29    0.09595      0.00000     0.40309    0.00097     0.40405
      H   30    0.11456      0.00000     0.38441    0.00103     0.38544
      H   31    0.19262      0.00000     0.30576    0.00162     0.30738
      H   32    0.16595      0.00000     0.33269    0.00136     0.33405
      H   33    0.09163      0.00000     0.40673    0.00165     0.40837
      H   34    0.08902      0.00000     0.40995    0.00103     0.41098
 =======================================================================
   * Total *    0.00000     18.99214    47.77578    0.23207    67.00000

 Normal termination of Gaussian 16 at Sun Dec 13 13:58:43 2020.
