 Gaussian 16, Revision A.03,

 -----------------------------------------------------------
 # opt freq B3LYP/6-31G(d) empiricaldispersion=gd3bj scf=xqc
 -----------------------------------------------------------

 -------------------------------
 CID_145692889_JID_2984_neutraal
 -------------------------------
 Symbolic Z-matrix:
 Charge =  0 Multiplicity = 1

 SCF Done:  E(RB3LYP) =  -466.916835472     A.U. after   14 cycles
 SCF Done:  E(RB3LYP) =  -466.918989097     A.U. after   12 cycles
 SCF Done:  E(RB3LYP) =  -466.919373527     A.U. after   11 cycles
 SCF Done:  E(RB3LYP) =  -466.919510556     A.U. after   11 cycles
 SCF Done:  E(RB3LYP) =  -466.919535544     A.U. after   10 cycles
 SCF Done:  E(RB3LYP) =  -466.919538690     A.U. after    9 cycles
 SCF Done:  E(RB3LYP) =  -466.919539070     A.U. after    7 cycles
 SCF Done:  E(RB3LYP) =  -466.919539184     A.U. after    7 cycles
 SCF Done:  E(RB3LYP) =  -466.919539219     A.U. after    7 cycles
 Optimization completed.
    -- Stationary point found.
 Normal termination of Gaussian 16 at Wed Dec  9 18:20:08 2020.

 --------------------------------------------------------------------
 #N Geom=AllCheck Guess=TCheck SCRF=Check GenChk RB3LYP/6-31G(d) Freq
 --------------------------------------------------------------------

 Structure from the checkpoint file:  "JID_2984.chk"
 -------------------------------
 CID_145692889_JID_2984_neutraal
 -------------------------------
 Charge =  0 Multiplicity = 1

 SCF Done:  E(RB3LYP) =  -466.919539219     A.U. after    1 cycles

  Exact polarizability: 146.920   1.098 120.898  -4.252   1.708  82.739
 Approx polarizability: 201.387  -1.482 184.113  -6.896   3.545 133.566

                      1                      2                      3
                      A                      A                      A
 Frequencies --     54.6445                86.2877               129.8106
 Red. masses --      2.9327                 2.5507                 2.5048
 Frc consts  --      0.0052                 0.0112                 0.0249
 IR Inten    --      0.0391                 0.0386                 0.0144

                      4                      5                      6
                      A                      A                      A
 Frequencies --    163.9078               178.8656               248.0124
 Red. masses --      2.3238                 3.1092                 1.3352
 Frc consts  --      0.0368                 0.0586                 0.0484
 IR Inten    --      0.0856                 0.0514                 0.0018

                      7                      8                      9
                      A                      A                      A
 Frequencies --    286.1087               338.2188               385.0544
 Red. masses --      2.7203                 2.3324                 2.7874
 Frc consts  --      0.1312                 0.1572                 0.2435
 IR Inten    --      0.1505                 0.9440                 0.3447

                     10                     11                     12
                      A                      A                      A
 Frequencies --    403.9019               450.9485               476.2658
 Red. masses --      2.6199                 2.9125                 3.5810
 Frc consts  --      0.2518                 0.3490                 0.4786
 IR Inten    --      1.5354                 1.2970                 0.4640

                     13                     14                     15
                      A                      A                      A
 Frequencies --    502.0254               550.1954               597.4435
 Red. masses --      3.0117                 3.5092                 4.5366
 Frc consts  --      0.4472                 0.6259                 0.9541
 IR Inten    --      4.3700                 0.7352                 5.5726

                     16                     17                     18
                      A                      A                      A
 Frequencies --    653.5278               699.2719               737.2548
 Red. masses --      3.1301                 1.6627                 2.2987
 Frc consts  --      0.7877                 0.4790                 0.7362
 IR Inten    --      3.5512                30.0724                 7.0323

                     19                     20                     21
                      A                      A                      A
 Frequencies --    749.7489               783.2616               799.5400
 Red. masses --      1.6855                 1.4588                 1.5211
 Frc consts  --      0.5582                 0.5273                 0.5729
 IR Inten    --     18.2708                 8.7799                 1.3708

                     22                     23                     24
                      A                      A                      A
 Frequencies --    818.0809               870.9182               922.8653
 Red. masses --      2.3398                 1.9650                 2.6888
 Frc consts  --      0.9226                 0.8782                 1.3492
 IR Inten    --      3.8926                 6.0049                 8.5098

                     25                     26                     27
                      A                      A                      A
 Frequencies --    936.3870               972.8395               974.3306
 Red. masses --      3.1063                 1.4958                 2.0880
 Frc consts  --      1.6047                 0.8341                 1.1679
 IR Inten    --      1.9413                 0.8287                 1.5263

                     28                     29                     30
                      A                      A                      A
 Frequencies --    984.5089               986.4802              1002.2142
 Red. masses --      2.0060                 1.3410                 1.4160
 Frc consts  --      1.1456                 0.7689                 0.8380
 IR Inten    --      2.9876                 0.2909                 1.6129

                     31                     32                     33
                      A                      A                      A
 Frequencies --   1010.6377              1017.7886              1050.2490
 Red. masses --      2.0595                 1.9033                 1.9826
 Frc consts  --      1.2394                 1.1616                 1.2884
 IR Inten    --      1.5931                 3.1721                 5.9597

                     34                     35                     36
                      A                      A                      A
 Frequencies --   1059.4113              1077.9094              1123.1701
 Red. masses --      2.2736                 2.0683                 1.6782
 Frc consts  --      1.5035                 1.4159                 1.2473
 IR Inten    --      0.1797                 2.4233                 1.8096

                     37                     38                     39
                      A                      A                      A
 Frequencies --   1127.1783              1143.4472              1204.9426
 Red. masses --      1.9230                 1.6887                 1.0466
 Frc consts  --      1.4395                 1.3009                 0.8953
 IR Inten    --      0.4936                 0.9906                 1.5772

                     40                     41                     42
                      A                      A                      A
 Frequencies --   1213.5235              1218.1738              1258.7224
 Red. masses --      1.1781                 1.1271                 1.2934
 Frc consts  --      1.0222                 0.9855                 1.2074
 IR Inten    --      0.1887                 2.1044                 1.1936

                     43                     44                     45
                      A                      A                      A
 Frequencies --   1288.9116              1298.8752              1307.4653
 Red. masses --      1.3761                 1.3284                 1.3608
 Frc consts  --      1.3469                 1.3204                 1.3706
 IR Inten    --      0.7290                 5.0937                 1.5443

                     46                     47                     48
                      A                      A                      A
 Frequencies --   1332.4921              1349.6643              1372.4516
 Red. masses --      1.2405                 1.4787                 1.4867
 Frc consts  --      1.2977                 1.5870                 1.6499
 IR Inten    --      6.4714                 1.9073                 0.6078

                     49                     50                     51
                      A                      A                      A
 Frequencies --   1383.6345              1397.9833              1399.5152
 Red. masses --      1.3962                 1.3934                 1.4683
 Frc consts  --      1.5749                 1.6044                 1.6944
 IR Inten    --      0.5947                 0.5194                 0.6825

                     52                     53                     54
                      A                      A                      A
 Frequencies --   1411.9309              1433.3490              1441.1833
 Red. masses --      1.6259                 1.5747                 1.2610
 Frc consts  --      1.9098                 1.9061                 1.5432
 IR Inten    --      0.7654                 2.6936                 2.7562

                     55                     56                     57
                      A                      A                      A
 Frequencies --   1459.0760              1514.1820              1518.3017
 Red. masses --      1.6701                 1.0747                 1.0692
 Frc consts  --      2.0948                 1.4518                 1.4522
 IR Inten    --      0.1397                 4.6610                 0.0977

                     58                     59                     60
                      A                      A                      A
 Frequencies --   1532.6764              1538.4947              1662.0335
 Red. masses --      1.0567                 1.0584                 7.8268
 Frc consts  --      1.4626                 1.4761                12.7384
 IR Inten    --      6.1017                 3.9595                 1.8023

                     61                     62                     63
                      A                      A                      A
 Frequencies --   1726.3170              1741.8892              2950.7407
 Red. masses --      5.6350                 6.8348                 1.0809
 Frc consts  --      9.8942                12.2185                 5.5448
 IR Inten    --      1.3801                 1.4182                32.2785

                     64                     65                     66
                      A                      A                      A
 Frequencies --   2997.2704              3035.7097              3045.0783
 Red. masses --      1.0822                 1.0634                 1.0798
 Frc consts  --      5.7281                 5.7736                 5.8990
 IR Inten    --     28.4916                18.5773                25.5120

                     67                     68                     69
                      A                      A                      A
 Frequencies --   3045.8905              3060.9528              3069.5017
 Red. masses --      1.0389                 1.0632                 1.0973
 Frc consts  --      5.6788                 5.8693                 6.0915
 IR Inten    --     24.6378                32.7856                30.4336

                     70                     71                     72
                      A                      A                      A
 Frequencies --   3096.6477              3111.0174              3118.7633
 Red. masses --      1.1043                 1.1015                 1.1015
 Frc consts  --      6.2389                 6.2814                 6.3124
 IR Inten    --     30.9016                46.1154                43.8388

                     73                     74                     75
                      A                      A                      A
 Frequencies --   3139.7398              3163.0949              3165.5015
 Red. masses --      1.0837                 1.0960                 1.0840
 Frc consts  --      6.2940                 6.4608                 6.3997
 IR Inten    --     10.8637                46.9627                 4.3370

                     76                     77                     78
                      A                      A                      A
 Frequencies --   3171.7431              3187.0148              3197.5696
 Red. masses --      1.0859                 1.0962                 1.0984
 Frc consts  --      6.4364                 6.5602                 6.6169
 IR Inten    --      6.1390                52.3241                35.9810

 - Thermochemistry -
 -------------------
 Temperature   298.150 Kelvin.  Pressure   1.00000 Atm.
 Atom     1 has atomic number  6 and mass  12.00000

 Molecular mass:   160.12520 amu.
 Principal axes and moments of inertia in atomic units:
                           1         2         3
     Eigenvalues --   996.394522715.417163383.25545
           X            0.99988  -0.01557  -0.00191
           Y            0.01557   0.99988  -0.00204
           Z            0.00194   0.00201   1.00000
 This molecule is an asymmetric top.
 Rotational symmetry number  1.
 Warning -- assumption of classical behavior for rotation
           may cause significant error
 Rotational temperatures (Kelvin)      0.08693     0.03190     0.02560
 Rotational constants (GHZ):           1.81127     0.66463     0.53343
 Zero-point vibrational energy     657436.1 (Joules/Mol)
                                  157.13101 (Kcal/Mol)
 Warning -- explicit consideration of  15 degrees of freedom as
           vibrations may cause significant error
 Vibrational temperatures:     78.62   124.15   186.77   235.83   257.35
          (Kelvin)            356.83   411.65   486.62   554.01   581.12
                              648.81   685.24   722.30   791.61   859.59
                              940.28  1006.10  1060.75  1078.72  1126.94
                             1150.36  1177.04  1253.06  1327.80  1347.25
                             1399.70  1401.84  1416.49  1419.32  1441.96
                             1454.08  1464.37  1511.07  1524.26  1550.87
                             1615.99  1621.76  1645.17  1733.64  1745.99
                             1752.68  1811.02  1854.46  1868.79  1881.15
                             1917.16  1941.87  1974.65  1990.74  2011.39
                             2013.59  2031.45  2062.27  2073.54  2099.28
                             2178.57  2184.50  2205.18  2213.55  2391.30
                             2483.79  2506.19  4245.46  4312.40  4367.71
                             4381.19  4382.36  4404.03  4416.33  4455.39
                             4476.06  4487.20  4517.39  4550.99  4554.45
                             4563.43  4585.40  4600.59

 Zero-point correction=                           0.250404 (Hartree/Particle)
 Thermal correction to Energy=                    0.261170
 Thermal correction to Enthalpy=                  0.262115
 Thermal correction to Gibbs Free Energy=         0.214014
 Sum of electronic and zero-point Energies=           -466.669135
 Sum of electronic and thermal Energies=              -466.658369
 Sum of electronic and thermal Enthalpies=            -466.657425
 Sum of electronic and thermal Free Energies=         -466.705525

                     E (Thermal)             CV                S
                      KCal/Mol        Cal/Mol-Kelvin    Cal/Mol-Kelvin
 Total                  163.887             43.416            101.235
 Electronic               0.000              0.000              0.000
 Translational            0.889              2.981             41.121
 Rotational               0.889              2.981             30.594
 Vibrational            162.109             37.455             29.521
 Vibration     1          0.596              1.976              4.642
 Vibration     2          0.601              1.959              3.743
 Vibration     3          0.612              1.923              2.949
 Vibration     4          0.623              1.887              2.504
 Vibration     5          0.629              1.868              2.340
 Vibration     6          0.662              1.766              1.745
 Vibration     7          0.684              1.699              1.497
 Vibration     8          0.719              1.599              1.221
 Vibration     9          0.754              1.502              1.019
 Vibration    10          0.769              1.462              0.948
 Vibration    11          0.810              1.359              0.793
 Vibration    12          0.833              1.303              0.720
 Vibration    13          0.857              1.246              0.653
 Vibration    14          0.905              1.139              0.544
 Vibration    15          0.955              1.037              0.454

 Optimization completed.
    -- Stationary point found.
 Normal termination of Gaussian 16 at Wed Dec  9 18:27:44 2020.

 ----------------------------------------------------------------------
 # B3LYP/6-311++G(d,p) empiricaldispersion=gd3bj scf=xqc pop=npa geom=c
 heck
 ----------------------------------------------------------------------

 ---------------------------------------
 CID_145692889_JID_2984_Energie_neutraal
 ---------------------------------------
 Structure from the checkpoint file:  "JID_2984.chk"
 Charge =  0 Multiplicity = 1

 SCF Done:  E(RB3LYP) =  -467.043909992     A.U. after   14 cycles
 Normal termination of Gaussian 16 at Wed Dec  9 18:30:59 2020.

 ----------------------------------------------------------------------
 # B3LYP/6-311++G(d,p) empiricaldispersion=gd3bj scf=xqc pop=npa geom=c
 heck
 ----------------------------------------------------------------------

 -------------------------------------
 CID_145692889_JID_2984_Energie_kation
 -------------------------------------
 Structure from the checkpoint file:  "JID_2984.chk"
 Charge =  1 Multiplicity = 2

 SCF Done:  E(UB3LYP) =  -466.756111653     A.U. after   19 cycles
 Normal termination of Gaussian 16 at Wed Dec  9 18:37:09 2020.
 Gaussian 16:  ES64L-G16RevA.03 25-Dec-2016

 ----------------------------------------------------------------------
 # B3LYP/6-311++G(d,p) empiricaldispersion=gd3bj scf=xqc pop=npa geom=c
 heck
 ----------------------------------------------------------------------

 ------------------------------------
 CID_145692889_JID_2984_Energie_anion
 ------------------------------------
 Structure from the checkpoint file:  "JID_2984.chk"
 Charge = -1 Multiplicity = 2

                         Standard orientation:
 ---------------------------------------------------------------------
 Center     Atomic      Atomic             Coordinates (Angstroms)
 Number     Number       Type             X           Y           Z
 ---------------------------------------------------------------------
      1          6           0        3.595283   -1.224960    0.105549
      2          6           0        2.796668   -0.008457   -0.369584
      3          6           0        1.646777    0.403606    0.579107
      4          6           0        0.504790   -0.625534    0.650736
      5          6           0       -0.440975   -0.529540   -0.565710
      6          6           0       -1.472814   -1.631036   -0.505274
      7          6           0       -2.682659   -1.425799    0.038135
      8          6           0       -3.061769   -0.102913    0.540831
      9          6           0       -2.319787    0.976850    0.253952
     10          6           0       -1.096526    0.868891   -0.639380
     11          6           0       -0.097485    1.963022   -0.345020
     12          6           0        1.107631    1.758691    0.191082
     13          1           0        4.018001   -1.051945    1.102890
     14          1           0        4.425532   -1.440015   -0.576312
     15          1           0        2.974748   -2.125895    0.161157
     16          1           0        3.477270    0.846545   -0.479075
     17          1           0        2.387862   -0.194013   -1.371407
     18          1           0        2.085966    0.492912    1.585142
     19          1           0       -0.087810   -0.449380    1.556047
     20          1           0        0.903360   -1.642989    0.729569
     21          1           0        0.161947   -0.654991   -1.473755
     22          1           0       -1.173426   -2.623175   -0.836657
     23          1           0       -3.393698   -2.242666    0.135158
     24          1           0       -3.959384   -0.013869    1.148138
     25          1           0       -2.596873    1.962351    0.621137
     26          1           0       -1.454209    1.013932   -1.675009
     27          1           0       -0.414660    2.977567   -0.585414
     28          1           0        1.770565    2.608690    0.351840
 ---------------------------------------------------------------------

 SCF Done:  E(UB3LYP) =  -467.029498713     A.U. after   33 cycles
 SCF Done:  E(UB3LYP) =  -467.029498713     a.u. after    1 cycles

 The electronic state is 2-A.
 Alpha  occ. eigenvalues --  -10.06491 -10.06346 -10.05904 -10.05602 -10.05576
 Alpha  occ. eigenvalues --  -10.05379 -10.05083 -10.04789 -10.04781 -10.04730
 Alpha  occ. eigenvalues --  -10.04621 -10.04450  -0.74432  -0.70137  -0.66116
 Alpha  occ. eigenvalues --   -0.64097  -0.61336  -0.59590  -0.52864  -0.49643
 Alpha  occ. eigenvalues --   -0.47859  -0.46634  -0.40976  -0.38785  -0.37386
 Alpha  occ. eigenvalues --   -0.35795  -0.35066  -0.32100  -0.31513  -0.30743
 Alpha  occ. eigenvalues --   -0.30134  -0.28973  -0.27244  -0.26688  -0.25700
 Alpha  occ. eigenvalues --   -0.24775  -0.22851  -0.22535  -0.21271  -0.20036
 Alpha  occ. eigenvalues --   -0.19292  -0.18464  -0.13725  -0.10043   0.04894
 Alpha virt. eigenvalues --    0.06913   0.07587   0.07763   0.08576   0.09191
 Alpha virt. eigenvalues --    0.09328   0.10337   0.10521   0.11374   0.11672
 Alpha virt. eigenvalues --    0.12103   0.12572   0.12900   0.13690   0.14203

  Beta  occ. eigenvalues --  -10.06502 -10.06336 -10.05901 -10.05589 -10.05554
  Beta  occ. eigenvalues --  -10.05370 -10.05051 -10.04766 -10.04746 -10.04682
  Beta  occ. eigenvalues --  -10.04493 -10.04290  -0.74335  -0.70027  -0.66037
  Beta  occ. eigenvalues --   -0.63942  -0.61249  -0.59456  -0.52777  -0.49581
  Beta  occ. eigenvalues --   -0.47654  -0.46487  -0.40881  -0.38704  -0.37301
  Beta  occ. eigenvalues --   -0.35731  -0.34957  -0.32031  -0.31441  -0.30690
  Beta  occ. eigenvalues --   -0.30045  -0.28879  -0.27191  -0.26629  -0.25652
  Beta  occ. eigenvalues --   -0.24655  -0.22789  -0.22473  -0.21119  -0.19967
  Beta  occ. eigenvalues --   -0.18869  -0.18368  -0.13686  -0.09386
  Beta virt. eigenvalues --    0.07124   0.07907   0.08227   0.08541   0.08946
  Beta virt. eigenvalues --    0.09515   0.09819   0.10730   0.10830   0.11552
  Beta virt. eigenvalues --    0.12036   0.12157   0.12860   0.13244   0.13884

 Mulliken charges and spin densities:
               1          2
     1  C    1.332651  -1.958099
     2  C   -0.863754   0.570550
     3  C    0.015969   0.556542
     4  C    0.162281  -0.969078
     5  C   -0.127822   0.283278
     6  C    0.120520  -0.151652
     7  C    0.293332  -0.574961
     8  C   -0.238780  -0.069521
     9  C   -0.401545   0.133260
    10  C   -0.430669   0.560191
    11  C    0.597519  -0.823464
    12  C    0.506797  -0.972014
    13  H   -0.150614   0.272296
    14  H   -0.337836   0.472365
    15  H   -0.319640   0.449462
    16  H   -0.293958   0.454462
    17  H   -0.150863   0.270199
    18  H   -0.077041   0.273755
    19  H   -0.048957   0.197913
    20  H    0.452350  -0.289594
    21  H    0.117345   0.077312
    22  H   -0.215674   0.366420
    23  H    0.013595   0.114995
    24  H   -0.074048   0.200265
    25  H   -0.048129   0.200391
    26  H   -0.125970   0.321299
    27  H   -0.255678   0.425026
    28  H   -0.451379   0.608402
 Sum of Mulliken charges =  -1.00000   1.00000

 Dipole moment (field-independent basis, Debye):
    X=             -3.0144    Y=             -0.4646    Z=              0.9204  Tot=              3.1858
 Quadrupole moment (field-independent basis, Debye-Ang):
   XX=           -140.7820   YY=           -113.4338   ZZ=            -99.9961
   XY=              0.8710   XZ=              1.0529   YZ=             -0.9827

 Summary of Natural Population Analysis:

                                       Natural Population
                Natural  -----------------------------------------------
    Atom  No    Charge         Core      Valence    Rydberg      Total
 -----------------------------------------------------------------------
      C    1   -0.28570      0.99967     2.28065    0.00539     3.28570
      C    2   -0.18447      0.99962     2.17656    0.00830     3.18447
      C    3   -0.12565      0.99957     2.11435    0.01173     3.12565
      C    4   -0.18309      0.99960     2.17518    0.00831     3.18309
      C    5   -0.12404      0.99958     2.11254    0.01191     3.12404
      C    6   -0.04869      0.99953     2.03844    0.01072     3.04869
      C    7   -0.12065      0.99952     2.11048    0.01065     3.12065
      C    8   -0.11615      0.99952     2.10595    0.01067     3.11615
      C    9   -0.05298      0.99952     2.04389    0.00957     3.05298
      C   10   -0.14203      0.99956     2.12999    0.01248     3.14203
      C   11   -0.08465      0.99951     2.07347    0.01166     3.08465
      C   12   -0.08824      0.99951     2.07764    0.01110     3.08824
      H   13    0.09396      0.00000     0.40474    0.00130     0.40604
      H   14    0.09925      0.00000     0.39962    0.00113     0.40075
      H   15    0.09638      0.00000     0.40229    0.00133     0.40362
      H   16    0.09611      0.00000     0.40236    0.00154     0.40389
      H   17    0.09531      0.00000     0.40312    0.00158     0.40469
      H   18    0.09778      0.00000     0.40061    0.00161     0.40222
      H   19    0.10226      0.00000     0.39648    0.00125     0.39774
      H   20    0.09979      0.00000     0.39890    0.00132     0.40021
      H   21    0.10266      0.00000     0.39494    0.00240     0.39734
      H   22    0.09233      0.00000     0.40666    0.00101     0.40767
      H   23    0.09421      0.00000     0.40492    0.00087     0.40579
      H   24    0.09448      0.00000     0.40454    0.00098     0.40552
      H   25    0.09228      0.00000     0.40667    0.00105     0.40772
      H   26    0.10807      0.00000     0.39004    0.00189     0.39193
      H   27    0.09515      0.00000     0.40376    0.00109     0.40485
      H   28    0.09631      0.00000     0.40246    0.00123     0.40369
 =======================================================================
   * Total *    0.00000     11.99471    31.86125    0.14405    44.00000

 Normal termination of Gaussian 16 at Wed Dec  9 18:47:47 2020.
