 Gaussian 16, Revision A.03,

 -----------------------------------------------------------
 # opt freq B3LYP/6-31G(d) empiricaldispersion=gd3bj scf=xqc
 -----------------------------------------------------------

 -------------------------------
 CID_61159452_JID_10300_neutraal
 -------------------------------
 Symbolic Z-matrix:
 Charge =  0 Multiplicity = 1

 SCF Done:  E(RB3LYP) =  -954.801702206     A.U. after   15 cycles
 SCF Done:  E(RB3LYP) =  -954.807147507     A.U. after   13 cycles
 SCF Done:  E(RB3LYP) =  -954.807176583     A.U. after   14 cycles
 SCF Done:  E(RB3LYP) =  -954.810444175     A.U. after   12 cycles
 SCF Done:  E(RB3LYP) =  -954.811069477     A.U. after   15 cycles
 SCF Done:  E(RB3LYP) =  -954.811793472     A.U. after   13 cycles
 SCF Done:  E(RB3LYP) =  -954.811937452     A.U. after   13 cycles
 SCF Done:  E(RB3LYP) =  -954.812576931     A.U. after   13 cycles
 SCF Done:  E(RB3LYP) =  -954.812769955     A.U. after   13 cycles
 SCF Done:  E(RB3LYP) =  -954.812823530     A.U. after   11 cycles
 SCF Done:  E(RB3LYP) =  -954.812894336     A.U. after    9 cycles
 SCF Done:  E(RB3LYP) =  -954.812895634     A.U. after    9 cycles
 SCF Done:  E(RB3LYP) =  -954.812897327     A.U. after    9 cycles
 SCF Done:  E(RB3LYP) =  -954.812899243     A.U. after    9 cycles
 SCF Done:  E(RB3LYP) =  -954.812900300     A.U. after    9 cycles
 SCF Done:  E(RB3LYP) =  -954.812900514     A.U. after    8 cycles
 Optimization completed.
    -- Stationary point found.
 Normal termination of Gaussian 16 at Thu Dec 17 20:29:36 2020.

 --------------------------------------------------------------------
 #N Geom=AllCheck Guess=TCheck SCRF=Check GenChk RB3LYP/6-31G(d) Freq
 --------------------------------------------------------------------

 Structure from the checkpoint file:  "JID_10300.chk"
 -------------------------------
 CID_61159452_JID_10300_neutraal
 -------------------------------
 Charge =  0 Multiplicity = 1

 SCF Done:  E(RB3LYP) =  -954.812900514     A.U. after    1 cycles

  Exact polarizability: 208.523 -31.631 153.677 -11.868 -16.293 142.587
 Approx polarizability: 300.393 -60.091 228.416 -27.543 -36.443 250.920

                      1                      2                      3
                      A                      A                      A
 Frequencies --     20.8616                34.4036                42.4363
 Red. masses --      5.3581                 6.4423                 4.4740
 Frc consts  --      0.0014                 0.0045                 0.0047
 IR Inten    --      0.2143                 1.6738                 0.1916

                      4                      5                      6
                      A                      A                      A
 Frequencies --     44.9486                54.8025                67.0893
 Red. masses --      2.6802                 4.1140                 4.1908
 Frc consts  --      0.0032                 0.0073                 0.0111
 IR Inten    --      0.7545                 1.8329                 1.8822

                      7                      8                      9
                      A                      A                      A
 Frequencies --     76.7001                95.9496               118.6726
 Red. masses --      4.5522                 3.0416                 5.2424
 Frc consts  --      0.0158                 0.0165                 0.0435
 IR Inten    --      1.0740                 0.8326                 0.5489

                     10                     11                     12
                      A                      A                      A
 Frequencies --    176.7270               177.4352               217.1825
 Red. masses --      3.0487                 3.7984                 6.6130
 Frc consts  --      0.0561                 0.0705                 0.1838
 IR Inten    --      2.4364                 2.7710                 2.0988

                     13                     14                     15
                      A                      A                      A
 Frequencies --    251.6719               288.6603               301.2125
 Red. masses --      4.7952                 3.5503                 5.8081
 Frc consts  --      0.1789                 0.1743                 0.3105
 IR Inten    --      4.0661                 2.3034                 3.1762

                     16                     17                     18
                      A                      A                      A
 Frequencies --    321.4538               331.4534               390.2456
 Red. masses --      4.4156                 4.1823                 5.5925
 Frc consts  --      0.2688                 0.2707                 0.5018
 IR Inten    --      3.6410                 4.4135                 2.9473

                     19                     20                     21
                      A                      A                      A
 Frequencies --    404.5551               414.5810               456.5318
 Red. masses --      3.1306                 1.2004                 3.0540
 Frc consts  --      0.3019                 0.1216                 0.3750
 IR Inten    --     28.2807                83.6601                 7.5004

                     22                     23                     24
                      A                      A                      A
 Frequencies --    459.9011               470.2734               507.5179
 Red. masses --      4.2683                 2.6517                 3.3599
 Frc consts  --      0.5319                 0.3455                 0.5099
 IR Inten    --      4.5176                19.3695                 5.0661

                     25                     26                     27
                      A                      A                      A
 Frequencies --    544.8991               560.0447               577.0523
 Red. masses --      2.7991                 4.1855                 2.9638
 Frc consts  --      0.4897                 0.7735                 0.5815
 IR Inten    --      6.5875                42.2763                46.2877

                     28                     29                     30
                      A                      A                      A
 Frequencies --    605.5735               613.0920               627.7425
 Red. masses --      2.3410                 1.7655                 2.6010
 Frc consts  --      0.5058                 0.3910                 0.6039
 IR Inten    --     77.3874                31.7257                 4.6958

                     31                     32                     33
                      A                      A                      A
 Frequencies --    643.1303               667.8060               713.0999
 Red. masses --      2.7154                 3.9202                 2.9051
 Frc consts  --      0.6617                 1.0300                 0.8704
 IR Inten    --     43.2284                33.4204                23.4215

                     34                     35                     36
                      A                      A                      A
 Frequencies --    750.4556               759.8233               775.4802
 Red. masses --      3.0756                 4.2827                 1.2165
 Frc consts  --      1.0205                 1.4568                 0.4310
 IR Inten    --     91.0804                29.2229                 2.8086

                     37                     38                     39
                      A                      A                      A
 Frequencies --    781.1675               788.2568               826.4580
 Red. masses --      3.2347                 2.9836                 1.8181
 Frc consts  --      1.1630                 1.0922                 0.7316
 IR Inten    --     23.3273                11.7768                18.5680

                     40                     41                     42
                      A                      A                      A
 Frequencies --    837.6330               845.0344               856.7202
 Red. masses --      1.7880                 1.6331                 1.9104
 Frc consts  --      0.7392                 0.6871                 0.8261
 IR Inten    --     16.7355                15.9832                92.0903

                     43                     44                     45
                      A                      A                      A
 Frequencies --    883.0187               887.4806               905.1901
 Red. masses --      3.2004                 3.6835                 2.5088
 Frc consts  --      1.4702                 1.7093                 1.2111
 IR Inten    --      9.1055                23.6363                 1.3378

                     46                     47                     48
                      A                      A                      A
 Frequencies --    963.9269               980.0682               988.4848
 Red. masses --      2.0162                 1.9068                 1.5500
 Frc consts  --      1.1037                 1.0791                 0.8923
 IR Inten    --      0.5806                 1.4851                 2.2353

                     49                     50                     51
                      A                      A                      A
 Frequencies --    989.8624              1005.5053              1030.9669
 Red. masses --      1.3168                 1.3979                 2.9407
 Frc consts  --      0.7602                 0.8327                 1.8416
 IR Inten    --      1.0487                 3.6581                11.5801

                     52                     53                     54
                      A                      A                      A
 Frequencies --   1055.3132              1076.1477              1117.7393
 Red. masses --      2.2451                 2.3082                 4.4932
 Frc consts  --      1.4731                 1.5749                 3.3074
 IR Inten    --      2.3697                 1.1945                 6.3041

                     55                     56                     57
                      A                      A                      A
 Frequencies --   1143.2690              1155.0795              1160.5249
 Red. masses --      1.9686                 1.9457                 3.6477
 Frc consts  --      1.5161                 1.5295                 2.8945
 IR Inten    --     27.1628               228.8484                18.3037

                     58                     59                     60
                      A                      A                      A
 Frequencies --   1210.9947              1214.2220              1221.7178
 Red. masses --      1.4342                 1.2908                 1.4452
 Frc consts  --      1.2392                 1.1213                 1.2710
 IR Inten    --      0.7884                76.9881                 0.3499

                     61                     62                     63
                      A                      A                      A
 Frequencies --   1228.7981              1232.3095              1250.9943
 Red. masses --      1.7917                 1.9626                 1.4364
 Frc consts  --      1.5940                 1.7560                 1.3245
 IR Inten    --     63.1528               127.7430                 3.7356

                     64                     65                     66
                      A                      A                      A
 Frequencies --   1255.6591              1285.2129              1304.4510
 Red. masses --      1.4445                 1.3886                 2.6707
 Frc consts  --      1.3419                 1.3514                 2.6775
 IR Inten    --     80.1147                46.4615                64.9061

                     67                     68                     69
                      A                      A                      A
 Frequencies --   1316.6021              1329.4580              1332.3158
 Red. masses --      1.3411                 1.2725                 1.4436
 Frc consts  --      1.3697                 1.3251                 1.5097
 IR Inten    --     18.4703                24.8934               144.6230

                     70                     71                     72
                      A                      A                      A
 Frequencies --   1342.0667              1350.5057              1360.1937
 Red. masses --      1.4370                 1.3698                 1.3571
 Frc consts  --      1.5250                 1.4720                 1.4793
 IR Inten    --     66.6156                 4.0816                 6.1292

                     73                     74                     75
                      A                      A                      A
 Frequencies --   1377.0379              1394.4811              1402.2758
 Red. masses --      1.4413                 1.9052                 2.3521
 Frc consts  --      1.6103                 2.1828                 2.7251
 IR Inten    --     12.2876                37.7883                26.9040

                     76                     77                     78
                      A                      A                      A
 Frequencies --   1407.8999              1429.5090              1457.1920
 Red. masses --      3.2922                 1.5081                 2.4568
 Frc consts  --      3.8448                 1.8157                 3.0736
 IR Inten    --    110.4287                29.9256                67.7977

                     79                     80                     81
                      A                      A                      A
 Frequencies --   1499.1956              1505.6580              1516.8099
 Red. masses --      2.5387                 1.1590                 1.0777
 Frc consts  --      3.3619                 1.5480                 1.4609
 IR Inten    --    143.5819                24.1649                 0.2927

                     82                     83                     84
                      A                      A                      A
 Frequencies --   1520.0636              1527.6282              1529.3465
 Red. masses --      1.2177                 1.1236                 1.0893
 Frc consts  --      1.6577                 1.5449                 1.5011
 IR Inten    --     16.4979                 1.8680                 4.9952

                     85                     86                     87
                      A                      A                      A
 Frequencies --   1551.8106              1567.4157              1640.7695
 Red. masses --      1.1095                 2.9285                 6.2471
 Frc consts  --      1.5742                 4.2391                 9.9089
 IR Inten    --      2.2608                22.2444                28.6260

                     88                     89                     90
                      A                      A                      A
 Frequencies --   1670.8444              1784.7855              1803.2272
 Red. masses --      6.3191                 8.3092                 9.4637
 Frc consts  --     10.3939                15.5949                18.1307
 IR Inten    --    336.3960               382.2374               301.7987

                     91                     92                     93
                      A                      A                      A
 Frequencies --   2932.8963              3051.8066              3055.7078
 Red. masses --      1.0805                 1.0649                 1.0652
 Frc consts  --      5.4762                 5.8437                 5.8599
 IR Inten    --     46.1597                22.9348                11.0807

                     94                     95                     96
                      A                      A                      A
 Frequencies --   3059.8765              3072.2558              3090.0207
 Red. masses --      1.0628                 1.0643                 1.0677
 Frc consts  --      5.8631                 5.9189                 6.0067
 IR Inten    --     38.5108                42.4007                20.7354

                     97                     98                     99
                      A                      A                      A
 Frequencies --   3090.2912              3103.1139              3117.9933
 Red. masses --      1.1017                 1.1021                 1.1028
 Frc consts  --      6.1986                 6.2525                 6.3170
 IR Inten    --     19.4733                 8.5104                55.3885

                    100                    101                    102
                      A                      A                      A
 Frequencies --   3129.2673              3170.7301              3188.4006
 Red. masses --      1.0987                 1.0967                 1.0909
 Frc consts  --      6.3388                 6.4964                 6.5343
 IR Inten    --     37.8841                17.2012                 6.4818

                    103                    104                    105
                      A                      A                      A
 Frequencies --   3209.3021              3235.3797              3482.9893
 Red. masses --      1.0901                 1.0928                 1.0736
 Frc consts  --      6.6149                 6.7394                 7.6734
 IR Inten    --      3.9567                 2.0177                 0.7244

                    106                    107                    108
                      A                      A                      A
 Frequencies --   3561.2272              3685.9471              3740.1527
 Red. masses --      1.0752                 1.0638                 1.0659
 Frc consts  --      8.0338                 8.5153                 8.7847
 IR Inten    --     26.1047                72.5689                44.4474

 - Thermochemistry -
 -------------------
 Temperature   298.150 Kelvin.  Pressure   1.00000 Atm.
 Atom     1 has atomic number  6 and mass  12.00000

 Molecular mass:   278.12666 amu.
 Principal axes and moments of inertia in atomic units:
                           1         2         3
     Eigenvalues --  3763.639697848.614459783.41667
           X            0.99964   0.02682   0.00081
           Y           -0.02681   0.99957  -0.01212
           Z           -0.00114   0.01210   0.99993
 This molecule is an asymmetric top.
 Rotational symmetry number  1.
 Warning -- assumption of classical behavior for rotation
           may cause significant error
 Rotational temperatures (Kelvin)      0.02301     0.01104     0.00885
 Rotational constants (GHZ):           0.47952     0.22994     0.18447
 Zero-point vibrational energy     829252.1 (Joules/Mol)
                                  198.19601 (Kcal/Mol)
 Warning -- explicit consideration of  29 degrees of freedom as
           vibrations may cause significant error
 Vibrational temperatures:     30.02    49.50    61.06    64.67    78.85
          (Kelvin)             96.53   110.35   138.05   170.74   254.27
                              255.29   312.48   362.10   415.32   433.38
                              462.50   476.89   561.48   582.06   596.49
                              656.85   661.70   676.62   730.21   783.99
                              805.78   830.25   871.29   882.10   903.18
                              925.32   960.82  1025.99  1079.74  1093.22
                             1115.74  1123.93  1134.13  1189.09  1205.17
                             1215.82  1232.63  1270.47  1276.89  1302.37
                             1386.88  1410.10  1422.21  1424.19  1446.70
                             1483.33  1518.36  1548.34  1608.18  1644.91
                             1661.90  1669.74  1742.35  1746.99  1757.78
                             1767.97  1773.02  1799.90  1806.61  1849.13
                             1876.81  1894.30  1912.79  1916.91  1930.93
                             1943.08  1957.02  1981.25  2006.35  2017.56
                             2025.65  2056.74  2096.57  2157.01  2166.31
                             2182.35  2187.03  2197.92  2200.39  2232.71
                             2255.16  2360.70  2403.97  2567.91  2594.44
                             4219.78  4390.87  4396.48  4402.48  4420.29
                             4445.85  4446.24  4464.69  4486.10  4502.32
                             4561.97  4587.40  4617.47  4654.99  5011.24
                             5123.81  5303.26  5381.25

 Zero-point correction=                           0.315845 (Hartree/Particle)
 Thermal correction to Energy=                    0.334616
 Thermal correction to Enthalpy=                  0.335560
 Thermal correction to Gibbs Free Energy=         0.266208
 Sum of electronic and zero-point Energies=           -954.497055
 Sum of electronic and thermal Energies=              -954.478285
 Sum of electronic and thermal Enthalpies=            -954.477341
 Sum of electronic and thermal Free Energies=         -954.546693

                     E (Thermal)             CV                S
                      KCal/Mol        Cal/Mol-Kelvin    Cal/Mol-Kelvin
 Total                  209.975             71.192            145.964
 Electronic               0.000              0.000              0.000
 Translational            0.889              2.981             42.767
 Rotational               0.889              2.981             34.024
 Vibrational            208.197             65.231             69.173
 Vibration     1          0.593              1.986              6.550
 Vibration     2          0.594              1.983              5.558
 Vibration     3          0.595              1.980              5.142
 Vibration     4          0.595              1.979              5.028
 Vibration     5          0.596              1.976              4.636
 Vibration     6          0.598              1.970              4.237
 Vibration     7          0.599              1.965              3.974
 Vibration     8          0.603              1.952              3.535
 Vibration     9          0.609              1.934              3.122
 Vibration    10          0.628              1.871              2.363
 Vibration    11          0.628              1.870              2.355
 Vibration    12          0.646              1.815              1.982
 Vibration    13          0.664              1.760              1.719
 Vibration    14          0.685              1.695              1.482
 Vibration    15          0.693              1.671              1.410
 Vibration    16          0.707              1.632              1.303
 Vibration    17          0.714              1.613              1.253
 Vibration    18          0.758              1.491              0.999
 Vibration    19          0.770              1.460              0.946
 Vibration    20          0.778              1.439              0.911
 Vibration    21          0.815              1.346              0.776
 Vibration    22          0.818              1.339              0.766
 Vibration    23          0.827              1.316              0.737
 Vibration    24          0.863              1.233              0.640
 Vibration    25          0.900              1.151              0.555
 Vibration    26          0.916              1.118              0.524
 Vibration    27          0.934              1.081              0.491
 Vibration    28          0.964              1.020              0.440
 Vibration    29          0.972              1.004              0.428

 Optimization completed.
    -- Stationary point found.
 Normal termination of Gaussian 16 at Thu Dec 17 20:51:32 2020.

 ----------------------------------------------------------------------
 # B3LYP/6-311++G(d,p) empiricaldispersion=gd3bj scf=xqc pop=npa geom=c
 heck
 ----------------------------------------------------------------------

 ---------------------------------------
 CID_61159452_JID_10300_Energie_neutraal
 ---------------------------------------
 Structure from the checkpoint file:  "JID_10300.chk"
 Charge =  0 Multiplicity = 1

 SCF Done:  E(RB3LYP) =  -955.101177045     A.U. after   16 cycles
 Normal termination of Gaussian 16 at Thu Dec 17 21:01:58 2020.

 ----------------------------------------------------------------------
 # B3LYP/6-311++G(d,p) empiricaldispersion=gd3bj scf=xqc pop=npa geom=c
 heck
 ----------------------------------------------------------------------

 -------------------------------------
 CID_61159452_JID_10300_Energie_kation
 -------------------------------------
 Structure from the checkpoint file:  "JID_10300.chk"
 Charge =  1 Multiplicity = 2

 SCF Done:  E(UB3LYP) =  -954.798545033     A.U. after   26 cycles
 Normal termination of Gaussian 16 at Thu Dec 17 21:25:14 2020.
 Gaussian 16:  ES64L-G16RevA.03 25-Dec-2016

 ----------------------------------------------------------------------
 # B3LYP/6-311++G(d,p) empiricaldispersion=gd3bj scf=xqc pop=npa geom=c
 heck
 ----------------------------------------------------------------------

 ------------------------------------
 CID_61159452_JID_10300_Energie_anion
 ------------------------------------
 Structure from the checkpoint file:  "JID_10300.chk"
 Charge = -1 Multiplicity = 2

                         Standard orientation:
 ---------------------------------------------------------------------
 Center     Atomic      Atomic             Coordinates (Angstroms)
 Number     Number       Type             X           Y           Z
 ---------------------------------------------------------------------
      1          6           0        0.976976    2.815045    0.090617
      2          6           0        2.419525    3.294639   -0.247563
      3          6           0        3.353087    2.120796    0.141132
      4          6           0        2.429231    0.900281    0.258307
      5          6           0        1.158021    1.503514    0.873375
      6          7           0        3.031739   -0.157237    1.073100
      7          6           0        2.267993   -1.404660    1.096940
      8          6           0        2.275791   -2.081791   -0.278302
      9          8           0        3.312731   -2.543177   -0.733646
     10          7           0        1.130922   -2.069332   -1.062251
     11          6           0       -0.104524   -1.430099   -0.819007
     12          6           0       -0.865593   -1.752112    0.304435
     13          6           0       -2.068090   -1.087385    0.576232
     14          6           0       -2.540068   -0.101198   -0.317488
     15          6           0       -1.778608    0.168969   -1.465602
     16          6           0       -0.579626   -0.472999   -1.726339
     17          6           0       -3.784606    0.694732   -0.165243
     18          8           0       -4.158606    1.515229   -0.984017
     19          8           0       -4.483682    0.450270    0.964253
     20          8           0       -2.791375   -1.403854    1.677980
     21          1           0        0.417138    2.616037   -0.830568
     22          1           0        0.404832    3.558796    0.653406
     23          1           0        2.508639    3.537021   -1.311651
     24          1           0        2.684359    4.202641    0.303050
     25          1           0        3.806106    2.292323    1.125151
     26          1           0        4.168239    1.965751   -0.574373
     27          1           0        2.182993    0.553587   -0.763733
     28          1           0        1.356784    1.699358    1.934878
     29          1           0        0.280107    0.855586    0.807389
     30          1           0        3.959560   -0.371735    0.708374
     31          1           0        2.751643   -2.097169    1.792672
     32          1           0        1.265748   -1.190388    1.465125
     33          1           0        1.335315   -2.311601   -2.026544
     34          1           0       -0.526781   -2.541735    0.969549
     35          1           0       -2.159733    0.926311   -2.141178
     36          1           0        0.009078   -0.218770   -2.601629
     37          1           0       -5.254857    1.046094    0.914576
     38          1           0       -2.317408   -2.090263    2.174025
 ---------------------------------------------------------------------

 SCF Done:  E(UB3LYP) =  -955.117247365     A.U. after   29 cycles

 The electronic state is 2-A.
 Alpha  occ. eigenvalues --  -19.03252 -19.01944 -18.97502 -18.94682 -14.22547
 Alpha  occ. eigenvalues --  -14.20155 -10.15266 -10.13554 -10.10718 -10.09301
 Alpha  occ. eigenvalues --  -10.09292 -10.07378 -10.07066 -10.06386 -10.06269
 Alpha  occ. eigenvalues --  -10.05296 -10.03632 -10.03469 -10.02833 -10.02706
 Alpha  occ. eigenvalues --   -0.96002  -0.94551  -0.92884  -0.86159  -0.81428
 Alpha  occ. eigenvalues --   -0.80885  -0.72611  -0.71134  -0.62535  -0.62070
 Alpha  occ. eigenvalues --   -0.61138  -0.60851  -0.56914  -0.52646  -0.50224
 Alpha  occ. eigenvalues --   -0.47607  -0.47404  -0.46212  -0.44743  -0.42861
 Alpha  occ. eigenvalues --   -0.40461  -0.38867  -0.38754  -0.37325  -0.36474
 Alpha  occ. eigenvalues --   -0.35545  -0.34428  -0.33442  -0.32785  -0.31648
 Alpha  occ. eigenvalues --   -0.31231  -0.31001  -0.29954  -0.29172  -0.28637
 Alpha  occ. eigenvalues --   -0.27923  -0.27142  -0.26727  -0.24966  -0.24560
 Alpha  occ. eigenvalues --   -0.23860  -0.23417  -0.23131  -0.22598  -0.22181
 Alpha  occ. eigenvalues --   -0.21945  -0.21709  -0.18330  -0.16406  -0.15935
 Alpha  occ. eigenvalues --   -0.13242  -0.12866  -0.11401  -0.10085   0.04115
 Alpha virt. eigenvalues --    0.07167   0.07909   0.08697   0.08864   0.09746
 Alpha virt. eigenvalues --    0.09827   0.10330   0.10988   0.11181   0.11665
 Alpha virt. eigenvalues --    0.11892   0.12304   0.12950   0.13282   0.13905

  Beta  occ. eigenvalues --  -19.03216 -19.01857 -18.97389 -18.94439 -14.22629
  Beta  occ. eigenvalues --  -14.20149 -10.15135 -10.13316 -10.10643 -10.09302
  Beta  occ. eigenvalues --  -10.09300 -10.07377 -10.07066 -10.06266 -10.05866
  Beta  occ. eigenvalues --  -10.05295 -10.03605 -10.03584 -10.02599 -10.02521
  Beta  occ. eigenvalues --   -0.95729  -0.94445  -0.92670  -0.85772  -0.81289
  Beta  occ. eigenvalues --   -0.80755  -0.72602  -0.70786  -0.62268  -0.61693
  Beta  occ. eigenvalues --   -0.61068  -0.60647  -0.56847  -0.51984  -0.50080
  Beta  occ. eigenvalues --   -0.47519  -0.47365  -0.46024  -0.44574  -0.42651
  Beta  occ. eigenvalues --   -0.40426  -0.38840  -0.38608  -0.37067  -0.36337
  Beta  occ. eigenvalues --   -0.35419  -0.34215  -0.33385  -0.32573  -0.31589
  Beta  occ. eigenvalues --   -0.31079  -0.30095  -0.29772  -0.28864  -0.28479
  Beta  occ. eigenvalues --   -0.27387  -0.26908  -0.26519  -0.24889  -0.24538
  Beta  occ. eigenvalues --   -0.23808  -0.23332  -0.23002  -0.22578  -0.22097
  Beta  occ. eigenvalues --   -0.21728  -0.20861  -0.17299  -0.16072  -0.15514
  Beta  occ. eigenvalues --   -0.12980  -0.12650  -0.10421  -0.08926
  Beta virt. eigenvalues --    0.07129   0.07847   0.08594   0.08819   0.09639
  Beta virt. eigenvalues --    0.09734   0.09825   0.10669   0.11101   0.11637
  Beta virt. eigenvalues --    0.11838   0.12105   0.12355   0.13011   0.13286

 Mulliken charges and spin densities:
               1          2
     1  C   -0.539440  -0.063689
     2  C   -0.493560   0.018579
     3  C   -0.396357  -0.049042
     4  C   -0.600928   0.038553
     5  C    0.324696   0.031814
     6  N    0.028345  -0.002732
     7  C   -0.114606  -0.011999
     8  C   -0.145283   0.048372
     9  O   -0.371573   0.039764
    10  N   -0.194465  -0.036209
    11  C    0.366001   0.277071
    12  C   -0.339001   0.067610
    13  C   -0.628076   0.064194
    14  C    0.514937   0.078869
    15  C   -0.663943   0.228012
    16  C   -0.411280  -0.075357
    17  C    0.189072   0.126898
    18  O   -0.406839   0.088234
    19  O   -0.213436   0.017207
    20  O   -0.162010   0.010572
    21  H    0.156356   0.008854
    22  H    0.131673   0.002488
    23  H    0.126986   0.004626
    24  H    0.127938  -0.001058
    25  H    0.146448   0.003419
    26  H    0.134327  -0.000366
    27  H    0.218582  -0.000954
    28  H    0.136198   0.012143
    29  H    0.363224  -0.021646
    30  H    0.235366  -0.001381
    31  H    0.180597   0.024201
    32  H    0.154800   0.009599
    33  H    0.232610   0.058526
    34  H    0.090243   0.001541
    35  H    0.203716  -0.013115
    36  H    0.100832   0.015302
    37  H    0.275050  -0.001862
    38  H    0.242802   0.002962
 Sum of Mulliken charges =  -1.00000   1.00000

 Dipole moment (field-independent basis, Debye):
    X=              4.1047    Y=              1.1181    Z=              2.5221  Tot=              4.9457
 Quadrupole moment (field-independent basis, Debye-Ang):
   XX=           -183.4560   YY=           -141.7187   ZZ=           -130.3331
   XY=             18.1834   XZ=             -7.6965   YZ=             -3.5625

 Summary of Natural Population Analysis:

                                       Natural Population
                Natural  -----------------------------------------------
    Atom  No    Charge         Core      Valence    Rydberg      Total
 -----------------------------------------------------------------------
      C    1   -0.19244      0.99965     2.18617    0.00662     3.19244
      C    2   -0.19245      0.99966     2.18662    0.00617     3.19245
      C    3   -0.19175      0.99962     2.18529    0.00683     3.19175
      C    4   -0.01624      0.99957     2.00508    0.01159     3.01624
      C    5   -0.19850      0.99962     2.19136    0.00752     3.19850
      N    6   -0.33460      0.99974     2.82103    0.01383     3.83460
      C    7   -0.13187      0.99959     2.12241    0.00988     3.13187
      C    8    0.35166      0.99969     1.62676    0.02190     2.64834
      O    9   -0.32645      0.99987     3.31970    0.00688     4.32645
      N   10   -0.32168      0.99965     2.81085    0.01119     3.82168
      C   11    0.16071      0.99947     1.82747    0.01235     2.83929
      C   12   -0.16739      0.99950     2.15740    0.01049     3.16739
      C   13    0.19567      0.99938     1.79341    0.01154     2.80433
      C   14   -0.09131      0.99942     2.07881    0.01308     3.09131
      C   15   -0.01946      0.99956     2.01180    0.00809     3.01946
      C   16   -0.16354      0.99953     2.15332    0.01069     3.16354
      C   17    0.42672      0.99967     1.54958    0.02402     2.57328
      O   18   -0.31703      0.99987     3.30999    0.00717     4.31703
      O   19   -0.33939      0.99988     3.33334    0.00617     4.33939
      O   20   -0.32733      0.99987     3.32094    0.00652     4.32733
      H   21    0.10380      0.00000     0.39515    0.00106     0.39620
      H   22    0.09662      0.00000     0.40240    0.00098     0.40338
      H   23    0.09395      0.00000     0.40504    0.00101     0.40605
      H   24    0.09261      0.00000     0.40637    0.00102     0.40739
      H   25    0.09643      0.00000     0.40225    0.00132     0.40357
      H   26    0.09521      0.00000     0.40381    0.00097     0.40479
      H   27    0.08527      0.00000     0.41292    0.00180     0.41473
      H   28    0.09281      0.00000     0.40605    0.00114     0.40719
      H   29    0.11636      0.00000     0.38213    0.00151     0.38364
      H   30    0.17524      0.00000     0.32264    0.00211     0.32476
      H   31    0.09986      0.00000     0.39911    0.00103     0.40014
      H   32    0.10725      0.00000     0.39166    0.00109     0.39275
      H   33    0.19520      0.00000     0.30288    0.00192     0.30480
      H   34    0.09177      0.00000     0.40686    0.00137     0.40823
      H   35    0.10607      0.00000     0.39294    0.00100     0.39393
      H   36    0.09479      0.00000     0.40431    0.00090     0.40521
      H   37    0.22799      0.00000     0.26894    0.00307     0.27201
      H   38    0.22544      0.00000     0.27220    0.00236     0.27456
 =======================================================================
   * Total *    0.00000     19.99279    53.76902    0.23819    74.00000

 Normal termination of Gaussian 16 at Thu Dec 17 21:49:40 2020.
