 Gaussian 16, Revision A.03,

 -----------------------------------------------------------
 # opt freq B3LYP/6-31G(d) empiricaldispersion=gd3bj scf=xqc
 -----------------------------------------------------------

 -------------------------------
 CID_117560517_JID_3318_neutraal
 -------------------------------
 Symbolic Z-matrix:
 Charge =  0 Multiplicity = 1

 SCF Done:  E(RB3LYP) =  -632.443762759     A.U. after   14 cycles
 SCF Done:  E(RB3LYP) =  -632.446508859     A.U. after   13 cycles
 SCF Done:  E(RB3LYP) =  -632.445460119     A.U. after   13 cycles
 SCF Done:  E(RB3LYP) =  -632.447936276     A.U. after   12 cycles
 SCF Done:  E(RB3LYP) =  -632.448334683     A.U. after   12 cycles
 SCF Done:  E(RB3LYP) =  -632.448579169     A.U. after   11 cycles
 SCF Done:  E(RB3LYP) =  -632.448689847     A.U. after   10 cycles
 SCF Done:  E(RB3LYP) =  -632.448726418     A.U. after   11 cycles
 SCF Done:  E(RB3LYP) =  -632.448742749     A.U. after    9 cycles
 SCF Done:  E(RB3LYP) =  -632.448748039     A.U. after    9 cycles
 SCF Done:  E(RB3LYP) =  -632.448749677     A.U. after    8 cycles
 SCF Done:  E(RB3LYP) =  -632.448750250     A.U. after    8 cycles
 SCF Done:  E(RB3LYP) =  -632.448750541     A.U. after    7 cycles
 SCF Done:  E(RB3LYP) =  -632.448750761     A.U. after    7 cycles
 SCF Done:  E(RB3LYP) =  -632.448750857     A.U. after    7 cycles
 Optimization completed.
    -- Stationary point found.
 Normal termination of Gaussian 16 at Wed Dec  9 22:55:49 2020.

 --------------------------------------------------------------------
 #N Geom=AllCheck Guess=TCheck SCRF=Check GenChk RB3LYP/6-31G(d) Freq
 --------------------------------------------------------------------

 Structure from the checkpoint file:  "JID_3318.chk"
 -------------------------------
 CID_117560517_JID_3318_neutraal
 -------------------------------
 Charge =  0 Multiplicity = 1

 SCF Done:  E(RB3LYP) =  -632.448750857     A.U. after    1 cycles

  Exact polarizability: 122.730   1.882 104.209  -0.469  -4.499  88.806
 Approx polarizability: 152.074   3.721 152.492  -3.185 -12.164 143.506

                      1                      2                      3
                      A                      A                      A
 Frequencies --     26.8992                50.8259                73.9349
 Red. masses --      4.1318                 3.6275                 2.6159
 Frc consts  --      0.0018                 0.0055                 0.0084
 IR Inten    --      1.7313                 1.2708                 0.4102

                      4                      5                      6
                      A                      A                      A
 Frequencies --     96.8473               116.9957               129.6540
 Red. masses --      5.4223                 3.7009                 4.5716
 Frc consts  --      0.0300                 0.0298                 0.0453
 IR Inten    --      0.2418                 0.5107                 1.6720

                      7                      8                      9
                      A                      A                      A
 Frequencies --    154.9189               208.6458               233.3348
 Red. masses --      4.2641                 1.0776                 3.6285
 Frc consts  --      0.0603                 0.0276                 0.1164
 IR Inten    --      0.9333                 0.0936                 7.3321

                     10                     11                     12
                      A                      A                      A
 Frequencies --    256.4446               262.3702               273.6725
 Red. masses --      1.0821                 2.6927                 1.2160
 Frc consts  --      0.0419                 0.1092                 0.0537
 IR Inten    --      0.2529                 7.1603                 0.8899

                     13                     14                     15
                      A                      A                      A
 Frequencies --    319.8044               340.5146               361.3296
 Red. masses --      3.0491                 4.2926                 3.0604
 Frc consts  --      0.1837                 0.2933                 0.2354
 IR Inten    --      7.5707                 0.6179                 2.7056

                     16                     17                     18
                      A                      A                      A
 Frequencies --    390.8856               417.3271               444.5748
 Red. masses --      3.8770                 2.5162                 2.7404
 Frc consts  --      0.3490                 0.2582                 0.3191
 IR Inten    --      3.0605                 0.9410                12.6904

                     19                     20                     21
                      A                      A                      A
 Frequencies --    472.3882               531.9425               571.1134
 Red. masses --      3.2223                 2.6913                 1.3249
 Frc consts  --      0.4237                 0.4487                 0.2546
 IR Inten    --      5.1540                 6.1003                77.8783

                     22                     23                     24
                      A                      A                      A
 Frequencies --    621.1791               709.2750               779.9888
 Red. masses --      3.4688                 6.0887                 4.6881
 Frc consts  --      0.7886                 1.8047                 1.6804
 IR Inten    --     18.6924                37.6812                11.9322

                     25                     26                     27
                      A                      A                      A
 Frequencies --    786.7716               810.4631               846.4601
 Red. masses --      1.1808                 5.2702                 1.6496
 Frc consts  --      0.4307                 2.0396                 0.6964
 IR Inten    --      2.6423                12.7412                23.9048

                     28                     29                     30
                      A                      A                      A
 Frequencies --    863.0637               866.7207               904.3844
 Red. masses --      2.3307                 4.0543                 4.5013
 Frc consts  --      1.0229                 1.7944                 2.1692
 IR Inten    --      3.0475                19.9450                14.3949

                     31                     32                     33
                      A                      A                      A
 Frequencies --    939.9944               942.9409               966.1831
 Red. masses --      1.6290                 1.6792                 3.0711
 Frc consts  --      0.8480                 0.8797                 1.6891
 IR Inten    --      0.1289                 1.0198                 0.9510

                     34                     35                     36
                      A                      A                      A
 Frequencies --    984.5296              1047.7591              1067.7017
 Red. masses --      1.1985                 2.0106                 1.4074
 Frc consts  --      0.6845                 1.3004                 0.9453
 IR Inten    --      0.2199                11.6716                 1.1788

                     37                     38                     39
                      A                      A                      A
 Frequencies --   1070.5363              1074.7919              1089.3620
 Red. masses --      1.3672                 1.4406                 1.3448
 Frc consts  --      0.9231                 0.9805                 0.9403
 IR Inten    --     14.1425                 3.6763                 3.0077

                     40                     41                     42
                      A                      A                      A
 Frequencies --   1136.9528              1204.6046              1207.6476
 Red. masses --      1.1612                 2.5255                 1.4577
 Frc consts  --      0.8844                 2.1592                 1.2525
 IR Inten    --      2.5033               295.0789                39.5147

                     43                     44                     45
                      A                      A                      A
 Frequencies --   1211.7671              1247.9779              1278.0679
 Red. masses --      2.0497                 2.2785                 2.6361
 Frc consts  --      1.7733                 2.0908                 2.5370
 IR Inten    --    107.4984                50.7820               143.5868

                     46                     47                     48
                      A                      A                      A
 Frequencies --   1288.3643              1302.3982              1399.6751
 Red. masses --      2.7200                 2.7714                 1.8094
 Frc consts  --      2.6601                 2.7697                 2.0885
 IR Inten    --     13.8545                13.5467                82.9119

                     49                     50                     51
                      A                      A                      A
 Frequencies --   1425.1180              1426.6381              1432.9290
 Red. masses --      1.3424                 1.4761                 1.6730
 Frc consts  --      1.6063                 1.7700                 2.0240
 IR Inten    --     15.8509                25.2612                 4.4769

                     52                     53                     54
                      A                      A                      A
 Frequencies --   1454.0765              1469.3194              1489.2137
 Red. masses --      1.2351                 2.4511                 1.1126
 Frc consts  --      1.5385                 3.1178                 1.4538
 IR Inten    --     15.6235                54.7862                 0.9308

                     55                     56                     57
                      A                      A                      A
 Frequencies --   1499.8306              1519.0566              1519.8416
 Red. masses --      1.0473                 1.0513                 1.0548
 Frc consts  --      1.3881                 1.4293                 1.4356
 IR Inten    --      0.3213                 1.1953                 0.9675

                     58                     59                     60
                      A                      A                      A
 Frequencies --   1525.5755              1530.2223              1533.7019
 Red. masses --      1.0739                 1.3354                 1.0567
 Frc consts  --      1.4726                 1.8424                 1.4645
 IR Inten    --      9.2742                 4.7054                 1.8386

                     61                     62                     63
                      A                      A                      A
 Frequencies --   1555.5959              1797.3608              1807.3307
 Red. masses --      1.0554                10.5570                11.0800
 Frc consts  --      1.5047                20.0937                21.3238
 IR Inten    --     12.2515               403.5117               146.3741

                     64                     65                     66
                      A                      A                      A
 Frequencies --   3060.2431              3062.3738              3069.2383
 Red. masses --      1.0358                 1.0375                 1.0381
 Frc consts  --      5.7153                 5.7324                 5.7614
 IR Inten    --      8.4246                20.4453                16.7201

                     67                     68                     69
                      A                      A                      A
 Frequencies --   3124.1181              3128.8950              3137.0414
 Red. masses --      1.1024                 1.1024                 1.1028
 Frc consts  --      6.3394                 6.3585                 6.3941
 IR Inten    --     13.1674                 8.2724                43.5097

                     70                     71                     72
                      A                      A                      A
 Frequencies --   3141.6427              3155.9348              3158.0378
 Red. masses --      1.1030                 1.0655                 1.0715
 Frc consts  --      6.4144                 6.2529                 6.2962
 IR Inten    --     28.7424                10.7463                18.3815

                     73                     74                     75
                      A                      A                      A
 Frequencies --   3164.9493              3170.6968              3173.7272
 Red. masses --      1.0611                 1.1004                 1.0998
 Frc consts  --      6.2625                 6.5177                 6.5269
 IR Inten    --      4.3346                 1.0360                12.9974

                     76                     77                     78
                      A                      A                      A
 Frequencies --   3236.8195              3251.4308              3577.4912
 Red. masses --      1.1201                 1.1170                 1.0758
 Frc consts  --      6.9144                 6.9573                 8.1124
 IR Inten    --      2.5459                11.3957                22.7410

 - Thermochemistry -
 -------------------
 Temperature   298.150 Kelvin.  Pressure   1.00000 Atm.
 Atom     1 has atomic number  6 and mass  12.00000

 Molecular mass:   185.10519 amu.
 Principal axes and moments of inertia in atomic units:
                           1         2         3
     Eigenvalues --  1454.824893362.930873958.60634
           X            0.99995   0.00991  -0.00152
           Y           -0.00989   0.99989   0.01091
           Z            0.00163  -0.01090   0.99994
 This molecule is an asymmetric top.
 Rotational symmetry number  1.
 Warning -- assumption of classical behavior for rotation
           may cause significant error
 Rotational temperatures (Kelvin)      0.05954     0.02576     0.02188
 Rotational constants (GHZ):           1.24052     0.53666     0.45590
 Zero-point vibrational energy     621953.1 (Joules/Mol)
                                  148.65035 (Kcal/Mol)
 Warning -- explicit consideration of  21 degrees of freedom as
           vibrations may cause significant error
 Vibrational temperatures:     38.70    73.13   106.38   139.34   168.33
          (Kelvin)            186.54   222.89   300.19   335.72   368.97
                              377.49   393.75   460.13   489.92   519.87
                              562.40   600.44   639.64   679.66   765.35
                              821.70   893.74  1020.49  1122.23  1131.99
                             1166.08  1217.87  1241.76  1247.02  1301.21
                             1352.44  1356.68  1390.12  1416.52  1507.49
                             1536.18  1540.26  1546.39  1567.35  1635.82
                             1733.16  1737.54  1743.46  1795.56  1838.85
                             1853.67  1873.86  2013.82  2050.43  2052.61
                             2061.67  2092.09  2114.02  2142.65  2157.92
                             2185.58  2186.71  2194.96  2201.65  2206.65
                             2238.16  2586.00  2600.35  4403.01  4406.07
                             4415.95  4494.91  4501.78  4513.50  4520.12
                             4540.69  4543.71  4553.66  4561.93  4566.29
                             4657.06  4678.08  5147.21

 Zero-point correction=                           0.236889 (Hartree/Particle)
 Thermal correction to Energy=                    0.251314
 Thermal correction to Enthalpy=                  0.252258
 Thermal correction to Gibbs Free Energy=         0.195132
 Sum of electronic and zero-point Energies=           -632.211861
 Sum of electronic and thermal Energies=              -632.197437
 Sum of electronic and thermal Enthalpies=            -632.196493
 Sum of electronic and thermal Free Energies=         -632.253619

                     E (Thermal)             CV                S
                      KCal/Mol        Cal/Mol-Kelvin    Cal/Mol-Kelvin
 Total                  157.702             52.946            120.231
 Electronic               0.000              0.000              0.000
 Translational            0.889              2.981             41.553
 Rotational               0.889              2.981             31.338
 Vibrational            155.924             46.985             47.339
 Vibration     1          0.593              1.984              6.046
 Vibration     2          0.595              1.977              4.785
 Vibration     3          0.599              1.966              4.046
 Vibration     4          0.603              1.951              3.517
 Vibration     5          0.608              1.935              3.149
 Vibration     6          0.612              1.924              2.951
 Vibration     7          0.620              1.897              2.611
 Vibration     8          0.642              1.828              2.055
 Vibration     9          0.654              1.790              1.853
 Vibration    10          0.666              1.752              1.686
 Vibration    11          0.670              1.742              1.646
 Vibration    12          0.676              1.722              1.573
 Vibration    13          0.706              1.636              1.311
 Vibration    14          0.720              1.595              1.210
 Vibration    15          0.736              1.552              1.116
 Vibration    16          0.759              1.490              0.997
 Vibration    17          0.780              1.433              0.901
 Vibration    18          0.804              1.373              0.812
 Vibration    19          0.829              1.311              0.731
 Vibration    20          0.887              1.179              0.583
 Vibration    21          0.927              1.094              0.502

 Optimization completed.
    -- Stationary point found.
 Normal termination of Gaussian 16 at Wed Dec  9 23:02:53 2020.

 ----------------------------------------------------------------------
 # B3LYP/6-311++G(d,p) empiricaldispersion=gd3bj scf=xqc pop=npa geom=c
 heck
 ----------------------------------------------------------------------

 ---------------------------------------
 CID_117560517_JID_3318_Energie_neutraal
 ---------------------------------------
 Structure from the checkpoint file:  "JID_3318.chk"
 Charge =  0 Multiplicity = 1

 SCF Done:  E(RB3LYP) =  -632.637758891     A.U. after   15 cycles
 Normal termination of Gaussian 16 at Wed Dec  9 23:05:32 2020.

 ----------------------------------------------------------------------
 # B3LYP/6-311++G(d,p) empiricaldispersion=gd3bj scf=xqc pop=npa geom=c
 heck
 ----------------------------------------------------------------------

 -------------------------------------
 CID_117560517_JID_3318_Energie_kation
 -------------------------------------
 Structure from the checkpoint file:  "JID_3318.chk"
 Charge =  1 Multiplicity = 2

 SCF Done:  E(UB3LYP) =  -632.305598092     A.U. after   30 cycles
 Normal termination of Gaussian 16 at Wed Dec  9 23:12:36 2020.
 Gaussian 16:  ES64L-G16RevA.03 25-Dec-2016

 ----------------------------------------------------------------------
 # B3LYP/6-311++G(d,p) empiricaldispersion=gd3bj scf=xqc pop=npa geom=c
 heck
 ----------------------------------------------------------------------

 ------------------------------------
 CID_117560517_JID_3318_Energie_anion
 ------------------------------------
 Structure from the checkpoint file:  "JID_3318.chk"
 Charge = -1 Multiplicity = 2

                         Standard orientation:
 ---------------------------------------------------------------------
 Center     Atomic      Atomic             Coordinates (Angstroms)
 Number     Number       Type             X           Y           Z
 ---------------------------------------------------------------------
      1          6           0        2.906332   -0.466359   -1.507362
      2          6           0        2.221022   -0.342341   -0.148666
      3          6           0        1.927437   -1.719815    0.447533
      4          6           0        3.029721    0.545944    0.796941
      5          8           0        0.949465    0.332894   -0.491456
      6          6           0        0.053472    0.639148    0.447104
      7          8           0        0.113939    0.400875    1.635080
      8          6           0       -1.099310    1.446890   -0.165896
      9          8           0       -0.907171    2.574669   -0.591088
     10          7           0       -2.314240    0.831519   -0.133404
     11          6           0       -2.575067   -0.466435    0.420705
     12          6           0       -3.395826   -1.425674   -0.400962
     13          6           0       -1.919798   -1.664938   -0.222012
     14          1           0        3.877672   -0.957896   -1.392020
     15          1           0        3.064042    0.521786   -1.949654
     16          1           0        2.295152   -1.059627   -2.194743
     17          1           0        2.868972   -2.260778    0.591118
     18          1           0        1.421343   -1.633216    1.409878
     19          1           0        1.300444   -2.303970   -0.234409
     20          1           0        3.151472    1.544364    0.365002
     21          1           0        2.541494    0.637208    1.768093
     22          1           0        4.024334    0.110372    0.941527
     23          1           0       -3.094169    1.417513   -0.409486
     24          1           0       -2.696664   -0.494721    1.501501
     25          1           0       -4.098324   -2.065632    0.123897
     26          1           0       -3.733010   -1.082189   -1.374605
     27          1           0       -1.270641   -1.475697   -1.070926
     28          1           0       -1.590205   -2.464177    0.434067
 ---------------------------------------------------------------------

 SCF Done:  E(UB3LYP) =  -632.624801716     A.U. after   33 cycles
 SCF Done:  E(UB3LYP) =  -632.624801716     a.u. after    1 cycles

 The electronic state is 2-A.
 Alpha  occ. eigenvalues --  -19.06617 -19.01274 -18.99767 -14.24913 -10.20117
 Alpha  occ. eigenvalues --  -10.17875 -10.14843 -10.12092 -10.08197 -10.07931
 Alpha  occ. eigenvalues --  -10.06614 -10.06602 -10.05917  -1.00796  -0.94516
 Alpha  occ. eigenvalues --   -0.92452  -0.84550  -0.74950  -0.72071  -0.60227
 Alpha  occ. eigenvalues --   -0.59830  -0.58897  -0.53601  -0.51828  -0.49916
 Alpha  occ. eigenvalues --   -0.43811  -0.42407  -0.41255  -0.39646  -0.38054
 Alpha  occ. eigenvalues --   -0.37251  -0.35717  -0.33796  -0.33529  -0.32584
 Alpha  occ. eigenvalues --   -0.31470  -0.30612  -0.29369  -0.28562  -0.27675
 Alpha  occ. eigenvalues --   -0.27376  -0.26220  -0.25628  -0.24393  -0.22973
 Alpha  occ. eigenvalues --   -0.21617  -0.20500  -0.20423  -0.16447  -0.15079
 Alpha  occ. eigenvalues --    0.04533
 Alpha virt. eigenvalues --    0.06281   0.07075   0.08046   0.08517   0.08909
 Alpha virt. eigenvalues --    0.09376   0.09437   0.11094   0.11486   0.11582
 Alpha virt. eigenvalues --    0.12222   0.12470   0.12689   0.13299   0.14277

  Beta  occ. eigenvalues --  -19.06598 -19.01215 -18.99704 -14.24920 -10.20043
  Beta  occ. eigenvalues --  -10.17812 -10.14841 -10.12079 -10.08160 -10.07909
  Beta  occ. eigenvalues --  -10.06600 -10.06572 -10.05877  -1.00709  -0.94404
  Beta  occ. eigenvalues --   -0.92363  -0.84514  -0.74913  -0.72036  -0.60184
  Beta  occ. eigenvalues --   -0.59768  -0.58729  -0.53541  -0.51753  -0.49836
  Beta  occ. eigenvalues --   -0.43759  -0.42331  -0.41182  -0.39549  -0.37963
  Beta  occ. eigenvalues --   -0.37141  -0.35653  -0.33722  -0.33380  -0.32501
  Beta  occ. eigenvalues --   -0.31400  -0.30486  -0.29290  -0.28449  -0.27632
  Beta  occ. eigenvalues --   -0.27338  -0.26177  -0.25538  -0.24349  -0.22886
  Beta  occ. eigenvalues --   -0.21556  -0.20399  -0.20320  -0.16339  -0.15008
  Beta virt. eigenvalues --    0.06947   0.07326   0.07747   0.08666   0.09082
  Beta virt. eigenvalues --    0.09438   0.09687   0.10066   0.11343   0.11816
  Beta virt. eigenvalues --    0.12199   0.12500   0.12746   0.13071   0.13507

 Mulliken charges and spin densities:
               1          2
     1  C    0.397972  -0.758130
     2  C   -1.078325   1.001714
     3  C    0.711438  -1.193757
     4  C    0.111902  -0.528294
     5  O    0.175613  -0.005663
     6  C   -0.653029   0.272892
     7  O   -0.181903   0.011779
     8  C    0.872848  -0.483417
     9  O   -0.340600   0.022169
    10  N   -0.161160  -0.043084
    11  C   -1.532532   1.421370
    12  C    2.454830  -2.993422
    13  C   -0.440639   0.279935
    14  H   -0.177002   0.327313
    15  H   -0.010130   0.165842
    16  H   -0.177267   0.329175
    17  H   -0.666779   0.835496
    18  H    0.089421   0.102659
    19  H   -0.134444   0.278914
    20  H    0.137783   0.003524
    21  H    0.132640   0.053714
    22  H   -0.142370   0.303240
    23  H    0.311340  -0.003292
    24  H   -0.042221   0.294725
    25  H   -0.608142   0.772970
    26  H   -0.083063   0.219335
    27  H    0.229328  -0.060828
    28  H   -0.195508   0.373121
 Sum of Mulliken charges =  -1.00000   1.00000

 Dipole moment (field-independent basis, Debye):
    X=             -0.2470    Y=              4.3806    Z=             -0.3158  Tot=              4.3989
 Quadrupole moment (field-independent basis, Debye-Ang):
   XX=           -142.2857   YY=           -131.7270   ZZ=           -109.0164
   XY=             -3.2808   XZ=              3.5698   YZ=              3.8752

 Summary of Natural Population Analysis:

                                       Natural Population
                Natural  -----------------------------------------------
    Atom  No    Charge         Core      Valence    Rydberg      Total
 -----------------------------------------------------------------------
      C    1   -0.28917      0.99960     2.28226    0.00731     3.28917
      C    2    0.13257      0.99953     1.85335    0.01455     2.86743
      C    3   -0.30188      0.99960     2.29499    0.00729     3.30188
      C    4   -0.30149      0.99960     2.29555    0.00634     3.30149
      O    5   -0.28306      0.99985     3.27290    0.01031     4.28306
      C    6    0.38614      0.99967     1.58884    0.02535     2.61386
      O    7   -0.29857      0.99987     3.29317    0.00553     4.29857
      C    8    0.31697      0.99964     1.66069    0.02270     2.68303
      O    9   -0.30474      0.99988     3.29902    0.00584     4.30474
      N   10   -0.31519      0.99966     2.80583    0.00970     3.81519
      C   11   -0.02670      0.99958     2.01458    0.01255     3.02670
      C   12   -0.19650      0.99962     2.18718    0.00970     3.19650
      C   13   -0.19702      0.99962     2.18713    0.01027     3.19702
      H   14    0.10345      0.00000     0.39532    0.00123     0.39655
      H   15    0.10288      0.00000     0.39615    0.00097     0.39712
      H   16    0.10514      0.00000     0.39374    0.00113     0.39486
      H   17    0.10505      0.00000     0.39327    0.00168     0.39495
      H   18    0.11376      0.00000     0.38495    0.00129     0.38624
      H   19    0.10399      0.00000     0.39449    0.00152     0.39601
      H   20    0.10249      0.00000     0.39668    0.00083     0.39751
      H   21    0.11302      0.00000     0.38609    0.00089     0.38698
      H   22    0.10361      0.00000     0.39554    0.00084     0.39639
      H   23    0.19214      0.00000     0.30535    0.00251     0.30786
      H   24    0.10350      0.00000     0.39514    0.00136     0.39650
      H   25    0.10908      0.00000     0.38771    0.00322     0.39092
      H   26    0.10298      0.00000     0.39585    0.00117     0.39702
      H   27    0.10763      0.00000     0.39058    0.00179     0.39237
      H   28    0.10992      0.00000     0.38822    0.00186     0.39008
 =======================================================================
   * Total *   -0.00000     12.99571    36.83455    0.16973    50.00000

 Normal termination of Gaussian 16 at Wed Dec  9 23:20:26 2020.
