 Gaussian 16, Revision A.03,

 -----------------------------------------------------------
 # opt freq B3LYP/6-31G(d) empiricaldispersion=gd3bj scf=xqc
 -----------------------------------------------------------

 -------------------------------
 CID_90358678_JID_10332_neutraal
 -------------------------------
 Symbolic Z-matrix:
 Charge =  0 Multiplicity = 1

 SCF Done:  E(RB3LYP) =  -1276.46730304     A.U. after   16 cycles
 SCF Done:  E(RB3LYP) =  -1276.47161955     A.U. after   13 cycles
 SCF Done:  E(RB3LYP) =  -1276.47254547     A.U. after   12 cycles
 SCF Done:  E(RB3LYP) =  -1276.47105955     A.U. after   14 cycles
 SCF Done:  E(RB3LYP) =  -1276.47395424     A.U. after   12 cycles
 SCF Done:  E(RB3LYP) =  -1276.47456543     A.U. after   12 cycles
 SCF Done:  E(RB3LYP) =  -1276.47471841     A.U. after   12 cycles
 SCF Done:  E(RB3LYP) =  -1276.47476547     A.U. after   11 cycles
 SCF Done:  E(RB3LYP) =  -1276.47478398     A.U. after   10 cycles
 SCF Done:  E(RB3LYP) =  -1276.47479060     A.U. after   10 cycles
 SCF Done:  E(RB3LYP) =  -1276.47479285     A.U. after    8 cycles
 SCF Done:  E(RB3LYP) =  -1276.47479613     A.U. after   10 cycles
 SCF Done:  E(RB3LYP) =  -1276.47479749     A.U. after    9 cycles
 SCF Done:  E(RB3LYP) =  -1276.47479833     A.U. after    9 cycles
 SCF Done:  E(RB3LYP) =  -1276.47479840     A.U. after    7 cycles
 Optimization completed.
    -- Stationary point found.
 Normal termination of Gaussian 16 at Sun Dec 13 20:21:06 2020.

 --------------------------------------------------------------------
 #N Geom=AllCheck Guess=TCheck SCRF=Check GenChk RB3LYP/6-31G(d) Freq
 --------------------------------------------------------------------

 Structure from the checkpoint file:  "JID_10332.chk"
 -------------------------------
 CID_90358678_JID_10332_neutraal
 -------------------------------
 Charge =  0 Multiplicity = 1

 SCF Done:  E(RB3LYP) =  -1276.47479840     A.U. after    1 cycles

  Exact polarizability: 212.172  -0.949 174.259  -6.133 -12.143 159.862
 Approx polarizability: 283.842  12.614 280.182  -6.778 -26.314 277.511

                      1                      2                      3
                      A                      A                      A
 Frequencies --     13.5327                23.2112                24.9553
 Red. masses --      3.9870                 1.8801                 3.5429
 Frc consts  --      0.0004                 0.0006                 0.0013
 IR Inten    --      0.6129                 0.4482                 1.4616

                      4                      5                      6
                      A                      A                      A
 Frequencies --     33.8089                66.6018                76.3876
 Red. masses --      1.7355                 4.2771                 3.4485
 Frc consts  --      0.0012                 0.0112                 0.0119
 IR Inten    --      0.1244                 0.7621                 0.1995

                      7                      8                      9
                      A                      A                      A
 Frequencies --     78.4416                95.5622               119.0773
 Red. masses --      2.1410                 4.3869                 3.9498
 Frc consts  --      0.0078                 0.0236                 0.0330
 IR Inten    --      3.7452                 4.3471                 2.7085

                     10                     11                     12
                      A                      A                      A
 Frequencies --    148.9004               165.3241               193.3906
 Red. masses --      5.9671                 5.8503                 4.2028
 Frc consts  --      0.0779                 0.0942                 0.0926
 IR Inten    --      1.5986                 0.3361                 0.7292

                     13                     14                     15
                      A                      A                      A
 Frequencies --    224.6608               241.0589               262.2381
 Red. masses --      5.7772                 4.5810                 1.2471
 Frc consts  --      0.1718                 0.1568                 0.0505
 IR Inten    --      5.5617                 0.4191                 1.0752

                     16                     17                     18
                      A                      A                      A
 Frequencies --    282.7411               284.7718               316.0466
 Red. masses --      9.1723                 7.7701                 4.5660
 Frc consts  --      0.4320                 0.3713                 0.2687
 IR Inten    --      2.9125                 3.8472                 0.2496

                     19                     20                     21
                      A                      A                      A
 Frequencies --    330.4580               339.6308               378.0656
 Red. masses --      3.6133                 5.3397                 3.6619
 Frc consts  --      0.2325                 0.3629                 0.3084
 IR Inten    --      0.3195                 0.6620                 0.8529

                     22                     23                     24
                      A                      A                      A
 Frequencies --    414.0434               427.4955               475.8371
 Red. masses --      3.0122                 5.7301                 6.6554
 Frc consts  --      0.3042                 0.6170                 0.8879
 IR Inten    --      0.0075                 6.2198                 1.0009

                     25                     26                     27
                      A                      A                      A
 Frequencies --    489.4493               531.9391               554.8472
 Red. masses --      3.4944                 7.7742                 4.1774
 Frc consts  --      0.4932                 1.2961                 0.7577
 IR Inten    --      0.8180                53.8595                51.9424

                     28                     29                     30
                      A                      A                      A
 Frequencies --    584.0679               605.7394               612.8430
 Red. masses --      5.7131                 4.9939                 5.9567
 Frc consts  --      1.1483                 1.0796                 1.3181
 IR Inten    --     74.9465                31.2464                75.0189

                     31                     32                     33
                      A                      A                      A
 Frequencies --    645.5438               649.9258               671.6194
 Red. masses --      3.7089                 6.9338                 7.3382
 Frc consts  --      0.9106                 1.7256                 1.9502
 IR Inten    --     37.2237                 0.1400               212.7047

                     34                     35                     36
                      A                      A                      A
 Frequencies --    707.1878               711.5642               721.0355
 Red. masses --      2.5536                 3.6295                 1.3763
 Frc consts  --      0.7525                 1.0827                 0.4216
 IR Inten    --     41.2326                10.4328                11.0067

                     37                     38                     39
                      A                      A                      A
 Frequencies --    813.0697               821.1289               829.5573
 Red. masses --      1.2635                 2.8942                 1.6751
 Frc consts  --      0.4921                 1.1497                 0.6792
 IR Inten    --     87.8573                 6.3540                14.0137

                     40                     41                     42
                      A                      A                      A
 Frequencies --    853.6312               859.6282               890.4909
 Red. masses --      1.2492                 1.2912                 1.3249
 Frc consts  --      0.5363                 0.5621                 0.6190
 IR Inten    --      2.1040                27.8188                 5.6177

                     43                     44                     45
                      A                      A                      A
 Frequencies --    959.5354               972.7154               975.6777
 Red. masses --      4.6878                 1.7202                 1.3485
 Frc consts  --      2.5430                 0.9589                 0.7563
 IR Inten    --     33.7164                 6.4035                 0.0618

                     46                     47                     48
                      A                      A                      A
 Frequencies --    976.0838               996.3921              1004.3854
 Red. masses --      2.4103                 2.0488                 2.2410
 Frc consts  --      1.3530                 1.1984                 1.3320
 IR Inten    --     11.0644                17.7850                13.7357

                     49                     50                     51
                      A                      A                      A
 Frequencies --   1023.9782              1037.3588              1051.1331
 Red. masses --      1.3980                 3.4853                 1.7003
 Frc consts  --      0.8637                 2.2097                 1.1068
 IR Inten    --      0.0180                 6.7291               168.6924

                     52                     53                     54
                      A                      A                      A
 Frequencies --   1075.9096              1090.0225              1100.5718
 Red. masses --      1.5621                 1.5638                 3.4014
 Frc consts  --      1.0654                 1.0947                 2.4274
 IR Inten    --     18.9759               124.4592                20.3515

                     55                     56                     57
                      A                      A                      A
 Frequencies --   1129.0659              1152.1572              1156.8884
 Red. masses --      2.0794                 1.3018                 4.9056
 Frc consts  --      1.5618                 1.0181                 3.8684
 IR Inten    --    149.1501                 7.4772               113.9211

                     58                     59                     60
                      A                      A                      A
 Frequencies --   1160.1767              1171.0851              1194.2486
 Red. masses --      3.0153                 1.7546                 1.8619
 Frc consts  --      2.3912                 1.4177                 1.5645
 IR Inten    --    143.2943                49.2455                 7.6500

                     61                     62                     63
                      A                      A                      A
 Frequencies --   1220.8846              1238.5207              1243.9304
 Red. masses --      1.1721                 1.3989                 3.1113
 Frc consts  --      1.0294                 1.2643                 2.8365
 IR Inten    --      2.2620                23.1108                 2.1478

                     64                     65                     66
                      A                      A                      A
 Frequencies --   1289.5462              1322.5832              1345.1176
 Red. masses --      1.4073                 6.0893                 1.3297
 Frc consts  --      1.3788                 6.2758                 1.4175
 IR Inten    --      4.5060                56.4525                15.4069

                     67                     68                     69
                      A                      A                      A
 Frequencies --   1354.0468              1361.4803              1370.2830
 Red. masses --     10.6853                 3.0500                10.0588
 Frc consts  --     11.5426                 3.3310                11.1280
 IR Inten    --     60.0132                41.9271                84.9699

                     70                     71                     72
                      A                      A                      A
 Frequencies --   1379.5270              1424.7947              1443.2157
 Red. masses --      1.4935                 5.3872                 1.2419
 Frc consts  --      1.6746                 6.4434                 1.5240
 IR Inten    --      1.0950                22.5267                 0.3175

                     73                     74                     75
                      A                      A                      A
 Frequencies --   1450.8646              1481.7596              1506.7862
 Red. masses --      2.5918                 1.1736                 1.2100
 Frc consts  --      3.2145                 1.5182                 1.6186
 IR Inten    --     11.9502                 3.1458                 6.3297

                     76                     77                     78
                      A                      A                      A
 Frequencies --   1514.2794              1517.9416              1519.1250
 Red. masses --      1.1363                 1.0541                 1.1041
 Frc consts  --      1.5352                 1.4310                 1.5012
 IR Inten    --     18.8427                 7.0675                13.7958

                     79                     80                     81
                      A                      A                      A
 Frequencies --   1520.7580              1527.6400              1544.5377
 Red. masses --      2.2990                 1.2749                 2.2953
 Frc consts  --      3.1327                 1.7530                 3.2262
 IR Inten    --     92.9759                12.3952                 7.9047

                     82                     83                     84
                      A                      A                      A
 Frequencies --   1546.4363              1591.4901              1635.0340
 Red. masses --      1.0474                 5.7576                 6.0666
 Frc consts  --      1.4758                 8.5921                 9.5555
 IR Inten    --      7.9820                38.7045                 0.4825

                     85                     86                     87
                      A                      A                      A
 Frequencies --   1659.2636              1758.9711              2969.6729
 Red. masses --      5.5952                11.8483                 1.0582
 Frc consts  --      9.0760                21.5985                 5.4985
 IR Inten    --     22.9543               238.2513               101.2747

                     88                     89                     90
                      A                      A                      A
 Frequencies --   2987.1042              3034.7351              3048.8289
 Red. masses --      1.0647                 1.0953                 1.0406
 Frc consts  --      5.5974                 5.9430                 5.6990
 IR Inten    --     64.3938                24.2795                19.6436

                     91                     92                     93
                      A                      A                      A
 Frequencies --   3076.9374              3108.7816              3126.5088
 Red. masses --      1.0768                 1.0955                 1.1021
 Frc consts  --      6.0064                 6.2379                 6.3472
 IR Inten    --     31.3730                14.6063                28.4666

                     94                     95                     96
                      A                      A                      A
 Frequencies --   3136.2009              3194.7441              3195.8595
 Red. masses --      1.1033                 1.0896                 1.0898
 Frc consts  --      6.3936                 6.5520                 6.5580
 IR Inten    --     11.9961                11.8881                10.4415

                     97                     98                     99
                      A                      A                      A
 Frequencies --   3230.7150              3231.5199              3282.8690
 Red. masses --      1.0924                 1.0933                 1.0916
 Frc consts  --      6.7181                 6.7265                 6.9312
 IR Inten    --      0.7417                 1.0319                 3.2145

                    100                    101                    102
                      A                      A                      A
 Frequencies --   3308.4888              3327.1159              3491.7130
 Red. masses --      1.1022                 1.0974                 1.0743
 Frc consts  --      7.1086                 7.1576                 7.7169
 IR Inten    --      1.6367                16.9902                 0.5569

 - Thermochemistry -
 -------------------
 Temperature   298.150 Kelvin.  Pressure   1.00000 Atm.
 Atom     1 has atomic number  6 and mass  12.00000

 Molecular mass:   292.08816 amu.
 Principal axes and moments of inertia in atomic units:
                           1         2         3
     Eigenvalues --  4167.941169939.11052**********
           X            0.99965  -0.00557  -0.02572
           Y            0.00346   0.99667  -0.08149
           Z            0.02609   0.08138   0.99634
 This molecule is an asymmetric top.
 Rotational symmetry number  1.
 Warning -- assumption of classical behavior for rotation
           may cause significant error
 Rotational temperatures (Kelvin)      0.02078     0.00871     0.00806
 Rotational constants (GHZ):           0.43301     0.18158     0.16790
 Zero-point vibrational energy     749565.2 (Joules/Mol)
                                  179.15037 (Kcal/Mol)
 Warning -- explicit consideration of  30 degrees of freedom as
           vibrations may cause significant error
 Vibrational temperatures:     19.47    33.40    35.91    48.64    95.83
          (Kelvin)            109.90   112.86   137.49   171.33   214.23
                              237.86   278.25   323.24   346.83   377.30
                              406.80   409.72   454.72   475.46   488.65
                              543.95   595.72   615.07   684.62   704.21
                              765.34   798.30   840.34   871.52   881.74
                              928.79   935.10   966.31  1017.49  1023.78
                             1037.41  1169.83  1181.42  1193.55  1228.18
                             1236.81  1281.22  1380.56  1399.52  1403.78
                             1404.37  1433.59  1445.09  1473.28  1492.53
                             1512.35  1547.99  1568.30  1583.48  1624.47
                             1657.70  1664.50  1669.24  1684.93  1718.26
                             1756.58  1781.96  1789.74  1855.37  1902.90
                             1935.32  1948.17  1958.87  1971.53  1984.83
                             2049.96  2076.47  2087.47  2131.92  2167.93
                             2178.71  2183.98  2185.68  2188.03  2197.93
                             2222.25  2224.98  2289.80  2352.45  2387.31
                             2530.77  4272.70  4297.78  4366.31  4386.58
                             4427.03  4472.84  4498.35  4512.29  4596.52
                             4598.13  4648.28  4649.44  4723.32  4760.18
                             4786.98  5023.80

 Zero-point correction=                           0.285494 (Hartree/Particle)
 Thermal correction to Energy=                    0.305135
 Thermal correction to Enthalpy=                  0.306079
 Thermal correction to Gibbs Free Energy=         0.233499
 Sum of electronic and zero-point Energies=          -1276.189304
 Sum of electronic and thermal Energies=             -1276.169663
 Sum of electronic and thermal Enthalpies=           -1276.168719
 Sum of electronic and thermal Free Energies=        -1276.241300

                     E (Thermal)             CV                S
                      KCal/Mol        Cal/Mol-Kelvin    Cal/Mol-Kelvin
 Total                  191.475             72.096            152.759
 Electronic               0.000              0.000              0.000
 Translational            0.889              2.981             42.913
 Rotational               0.889              2.981             34.453
 Vibrational            189.698             66.134             75.392
 Vibration     1          0.593              1.986              7.410
 Vibration     2          0.593              1.985              6.339
 Vibration     3          0.593              1.985              6.195
 Vibration     4          0.594              1.983              5.592
 Vibration     5          0.598              1.970              4.251
 Vibration     6          0.599              1.965              3.982
 Vibration     7          0.600              1.964              3.929
 Vibration     8          0.603              1.952              3.543
 Vibration     9          0.609              1.933              3.115
 Vibration    10          0.618              1.904              2.686
 Vibration    11          0.624              1.885              2.488
 Vibration    12          0.635              1.849              2.195
 Vibration    13          0.649              1.803              1.921
 Vibration    14          0.658              1.777              1.795
 Vibration    15          0.670              1.742              1.647
 Vibration    16          0.682              1.706              1.517
 Vibration    17          0.683              1.702              1.505
 Vibration    18          0.703              1.643              1.330
 Vibration    19          0.713              1.615              1.258
 Vibration    20          0.720              1.596              1.214
 Vibration    21          0.748              1.517              1.047
 Vibration    22          0.778              1.440              0.912
 Vibration    23          0.789              1.410              0.867
 Vibration    24          0.832              1.304              0.721
 Vibration    25          0.845              1.273              0.685
 Vibration    26          0.887              1.179              0.583
 Vibration    27          0.910              1.129              0.534
 Vibration    28          0.941              1.066              0.478
 Vibration    29          0.964              1.020              0.440
 Vibration    30          0.972              1.005              0.428

                           ! Non-Optimized Parameters !
 Normal termination of Gaussian 16 at Sun Dec 13 20:40:06 2020.

 ----------------------------------------------------------------------
 # B3LYP/6-311++G(d,p) empiricaldispersion=gd3bj scf=xqc pop=npa geom=c
 heck
 ----------------------------------------------------------------------

 ---------------------------------------
 CID_90358678_JID_10332_Energie_neutraal
 ---------------------------------------
 Structure from the checkpoint file:  "JID_10332.chk"
 Charge =  0 Multiplicity = 1

 SCF Done:  E(RB3LYP) =  -1276.74485000     A.U. after   17 cycles
 Normal termination of Gaussian 16 at Sun Dec 13 20:49:52 2020.

 ----------------------------------------------------------------------
 # B3LYP/6-311++G(d,p) empiricaldispersion=gd3bj scf=xqc pop=npa geom=c
 heck
 ----------------------------------------------------------------------

 -------------------------------------
 CID_90358678_JID_10332_Energie_kation
 -------------------------------------
 Structure from the checkpoint file:  "JID_10332.chk"
 Charge =  1 Multiplicity = 2

 SCF Done:  E(UB3LYP) =  -1276.44091082     A.U. after   33 cycles
 SCF Done:  E(UB3LYP) =  -1276.44091082     a.u. after    2 cycles
 Normal termination of Gaussian 16 at Sun Dec 13 21:43:21 2020.
 Gaussian 16:  ES64L-G16RevA.03 25-Dec-2016

 ----------------------------------------------------------------------
 # B3LYP/6-311++G(d,p) empiricaldispersion=gd3bj scf=xqc pop=npa geom=c
 heck
 ----------------------------------------------------------------------

 ------------------------------------
 CID_90358678_JID_10332_Energie_anion
 ------------------------------------
 Structure from the checkpoint file:  "JID_10332.chk"
 Charge = -1 Multiplicity = 2

                         Standard orientation:
 ---------------------------------------------------------------------
 Center     Atomic      Atomic             Coordinates (Angstroms)
 Number     Number       Type             X           Y           Z
 ---------------------------------------------------------------------
      1          6           0       -4.733621    2.744014    0.999965
      2          6           0       -3.789848    1.676805    0.506620
      3          6           0       -3.837362    0.379635    1.035533
      4          6           0       -2.989421   -0.619849    0.567675
      5          6           0       -2.081291   -0.309987   -0.444327
      6          6           0       -2.009630    0.970231   -0.993745
      7          6           0       -2.866481    1.954547   -0.511221
      8         16           0       -0.956104   -1.563996   -1.016566
      9          8           0       -1.503557   -2.877932   -0.695304
     10          8           0       -0.475445   -1.199413   -2.344890
     11          7           0        0.395736   -1.370823    0.028762
     12          6           0        0.511083   -1.955281    1.295301
     13          6           0        1.602554   -1.401995    1.896913
     14          6           0        2.167892   -0.434971    0.989702
     15          6           0        1.389770   -0.433296   -0.153578
     16          6           0        3.351319    0.378564    1.303798
     17          8           0        3.925578    0.257520    2.378674
     18          6           0        3.842103    1.439959    0.316558
     19          7           0        3.731046    1.061465   -1.087800
     20          6           0        4.240702    2.094568   -1.983291
     21          1           0       -5.653562    2.756771    0.401227
     22          1           0       -5.023257    2.571629    2.041036
     23          1           0       -4.283985    3.739262    0.928739
     24          1           0       -4.549612    0.149415    1.823048
     25          1           0       -3.033419   -1.626506    0.967991
     26          1           0       -1.303202    1.180711   -1.788939
     27          1           0       -2.820577    2.955070   -0.932488
     28          1           0       -0.182034   -2.723218    1.599848
     29          1           0        1.999969   -1.640382    2.872500
     30          1           0        1.492348    0.120029   -1.071732
     31          1           0        3.219645    2.334599    0.471009
     32          1           0        4.864237    1.709042    0.632283
     33          1           0        4.247554    0.197171   -1.241418
     34          1           0        5.278288    2.406255   -1.766451
     35          1           0        4.194059    1.736460   -3.016266
     36          1           0        3.604520    2.984051   -1.905335
 ---------------------------------------------------------------------

 SCF Done:  E(UB3LYP) =  -1276.76484231     A.U. after   31 cycles

 The electronic state is 2-A.
 Alpha  occ. eigenvalues --  -88.94656 -19.00583 -19.00532 -18.96775 -14.25589
 Alpha  occ. eigenvalues --  -14.20954 -10.12009 -10.10582 -10.09245 -10.08669
 Alpha  occ. eigenvalues --  -10.07532 -10.07292 -10.07150 -10.06489 -10.06183
 Alpha  occ. eigenvalues --  -10.06123 -10.06026 -10.05973 -10.05168 -10.04694
 Alpha  occ. eigenvalues --   -8.00769  -5.97116  -5.97039  -5.96804  -1.00895
 Alpha  occ. eigenvalues --   -0.90578  -0.90215  -0.86664  -0.81481  -0.75188
 Alpha  occ. eigenvalues --   -0.69029  -0.67070  -0.63813  -0.63489  -0.61287
 Alpha  occ. eigenvalues --   -0.60181  -0.55685  -0.54672  -0.50237  -0.49949
 Alpha  occ. eigenvalues --   -0.48054  -0.44729  -0.43971  -0.41941  -0.40687
 Alpha  occ. eigenvalues --   -0.38240  -0.36540  -0.36275  -0.35650  -0.34968
 Alpha  occ. eigenvalues --   -0.34246  -0.33474  -0.33242  -0.32455  -0.31786
 Alpha  occ. eigenvalues --   -0.31573  -0.31129  -0.30109  -0.29775  -0.29029
 Alpha  occ. eigenvalues --   -0.28920  -0.28114  -0.25688  -0.25512  -0.25367
 Alpha  occ. eigenvalues --   -0.24278  -0.23563  -0.23472  -0.21631  -0.20290
 Alpha  occ. eigenvalues --   -0.19723  -0.15650  -0.14991  -0.14110  -0.13342
 Alpha  occ. eigenvalues --   -0.12663  -0.11670   0.03045
 Alpha virt. eigenvalues --    0.06532   0.06939   0.07075   0.08849   0.09145
 Alpha virt. eigenvalues --    0.09269   0.09547   0.09671   0.10221   0.10566
 Alpha virt. eigenvalues --    0.11093   0.12014   0.12275   0.12479   0.12770

  Beta  occ. eigenvalues --  -88.94624 -19.00543 -19.00491 -18.96511 -14.25562
  Beta  occ. eigenvalues --  -14.20944 -10.11845 -10.10580 -10.09259 -10.08668
  Beta  occ. eigenvalues --  -10.07270 -10.07178 -10.07099 -10.06386 -10.06246
  Beta  occ. eigenvalues --  -10.06044 -10.05975 -10.05628 -10.05180 -10.04701
  Beta  occ. eigenvalues --   -8.00736  -5.97024  -5.97013  -5.96778  -1.00731
  Beta  occ. eigenvalues --   -0.90122  -0.90107  -0.86535  -0.81455  -0.74837
  Beta  occ. eigenvalues --   -0.68750  -0.66710  -0.63571  -0.63330  -0.61101
  Beta  occ. eigenvalues --   -0.59948  -0.55491  -0.54521  -0.50121  -0.49560
  Beta  occ. eigenvalues --   -0.47774  -0.44514  -0.43798  -0.41818  -0.40576
  Beta  occ. eigenvalues --   -0.38037  -0.36411  -0.36170  -0.35384  -0.34890
  Beta  occ. eigenvalues --   -0.34147  -0.33334  -0.33080  -0.32074  -0.31592
  Beta  occ. eigenvalues --   -0.31486  -0.31027  -0.29916  -0.29624  -0.28869
  Beta  occ. eigenvalues --   -0.28849  -0.27956  -0.25450  -0.25374  -0.24722
  Beta  occ. eigenvalues --   -0.23601  -0.23455  -0.23043  -0.21545  -0.20111
  Beta  occ. eigenvalues --   -0.19536  -0.14809  -0.14307  -0.14051  -0.12476
  Beta  occ. eigenvalues --   -0.12435  -0.10885
  Beta virt. eigenvalues --    0.06532   0.06992   0.07767   0.08747   0.08847
  Beta virt. eigenvalues --    0.09161   0.09488   0.09538   0.09828   0.10389
  Beta virt. eigenvalues --    0.10535   0.11152   0.12006   0.12361   0.12495

 Mulliken charges and spin densities:
               1          2
     1  C   -0.547782  -0.035969
     2  C    0.519531   0.189278
     3  C   -0.623436   0.038365
     4  C   -0.262516   0.188889
     5  C    0.442235   0.111609
     6  C   -0.328001   0.175638
     7  C   -0.616134   0.053022
     8  S    0.282266  -0.321299
     9  O   -0.216896   0.013770
    10  O   -0.166789  -0.015804
    11  N    0.234733   0.069069
    12  C   -0.206434  -0.014657
    13  C    0.310925   0.046053
    14  C    0.433992   0.198344
    15  C   -0.957486   0.074989
    16  C   -0.761823   0.004283
    17  O   -0.348719   0.091215
    18  C   -0.179093   0.004243
    19  N   -0.118224   0.004105
    20  C   -0.341288  -0.009272
    21  H    0.113078   0.042769
    22  H    0.121829   0.007299
    23  H    0.123781   0.007659
    24  H    0.127233   0.000072
    25  H    0.183139   0.005858
    26  H    0.177863   0.001335
    27  H    0.128908   0.006132
    28  H    0.178805   0.007473
    29  H    0.173387   0.000534
    30  H    0.311985  -0.013747
    31  H    0.115278   0.047653
    32  H    0.162254  -0.010234
    33  H    0.188948   0.009215
    34  H    0.099449   0.003485
    35  H    0.121488   0.002225
    36  H    0.123515   0.016405
 Sum of Mulliken charges =  -1.00000   1.00000

 Dipole moment (field-independent basis, Debye):
    X=             -0.5218    Y=              2.8080    Z=             -1.4167  Tot=              3.1881
 Quadrupole moment (field-independent basis, Debye-Ang):
   XX=           -173.6337   YY=           -145.2840   ZZ=           -151.7846
   XY=             -1.5295   XZ=            -23.2020   YZ=             -9.7286

 Summary of Natural Population Analysis:

                                       Natural Population
                Natural  -----------------------------------------------
    Atom  No    Charge         Core      Valence    Rydberg      Total
 -----------------------------------------------------------------------
      C    1   -0.29406      0.99965     2.28995    0.00446     3.29406
      C    2    0.04818      0.99953     1.94284    0.00945     2.95182
      C    3   -0.11592      0.99953     2.10808    0.00832     3.11592
      C    4   -0.06783      0.99952     2.05887    0.00945     3.06783
      C    5   -0.11995      0.99936     2.10427    0.01631     3.11995
      C    6   -0.05703      0.99952     2.04802    0.00950     3.05703
      C    7   -0.12227      0.99953     2.11447    0.00827     3.12227
      S    8    1.13743      4.99913     1.76507    0.09837     6.86257
      O    9   -0.46316      0.99990     3.45733    0.00592     4.46316
      O   10   -0.45953      0.99990     3.45381    0.00582     4.45953
      N   11   -0.31189      0.99963     2.79757    0.01469     3.81189
      C   12   -0.02205      0.99956     2.01082    0.01168     3.02205
      C   13   -0.12227      0.99954     2.11360    0.00914     3.12227
      C   14   -0.11488      0.99949     2.10452    0.01088     3.11488
      C   15    0.06514      0.99952     1.92301    0.01233     2.93486
      C   16    0.28490      0.99960     1.69472    0.02078     2.71510
      O   17   -0.27901      0.99988     3.27277    0.00636     4.27901
      C   18   -0.12317      0.99960     2.11335    0.01022     3.12317
      N   19   -0.33303      0.99976     2.82397    0.00930     3.83303
      C   20   -0.17593      0.99968     2.16995    0.00630     3.17593
      H   21    0.10273      0.00000     0.39623    0.00104     0.39727
      H   22    0.09857      0.00000     0.40058    0.00085     0.40143
      H   23    0.09895      0.00000     0.40020    0.00086     0.40105
      H   24    0.09346      0.00000     0.40562    0.00092     0.40654
      H   25    0.10691      0.00000     0.39207    0.00103     0.39309
      H   26    0.10803      0.00000     0.39097    0.00100     0.39197
      H   27    0.09404      0.00000     0.40505    0.00091     0.40596
      H   28    0.10717      0.00000     0.39182    0.00101     0.39283
      H   29    0.10984      0.00000     0.38922    0.00094     0.39016
      H   30    0.11751      0.00000     0.38037    0.00212     0.38249
      H   31    0.09899      0.00000     0.39928    0.00174     0.40101
      H   32    0.08388      0.00000     0.41323    0.00289     0.41612
      H   33    0.16948      0.00000     0.32811    0.00241     0.33052
      H   34    0.07402      0.00000     0.42420    0.00178     0.42598
      H   35    0.09240      0.00000     0.40686    0.00075     0.40760
      H   36    0.09037      0.00000     0.40847    0.00116     0.40963
 =======================================================================
   * Total *   -0.00000     23.99180    52.69926    0.30893    77.00000

 Normal termination of Gaussian 16 at Sun Dec 13 22:08:49 2020.
