 Gaussian 16, Revision A.03,

 -----------------------------------------------------------
 # opt freq B3LYP/6-31G(d) empiricaldispersion=gd3bj scf=xqc
 -----------------------------------------------------------

 ------------------------------
 CID_66395798_JID_7047_neutraal
 ------------------------------
 Symbolic Z-matrix:
 Charge =  0 Multiplicity = 1

 SCF Done:  E(RB3LYP) =  -722.839808123     A.U. after   14 cycles
 SCF Done:  E(RB3LYP) =  -722.846767423     A.U. after   12 cycles
 SCF Done:  E(RB3LYP) =  -722.847838888     A.U. after   12 cycles
 SCF Done:  E(RB3LYP) =  -722.848136313     A.U. after   12 cycles
 SCF Done:  E(RB3LYP) =  -722.848186860     A.U. after   11 cycles
 SCF Done:  E(RB3LYP) =  -722.848209149     A.U. after   10 cycles
 SCF Done:  E(RB3LYP) =  -722.848213753     A.U. after    9 cycles
 SCF Done:  E(RB3LYP) =  -722.848215096     A.U. after    9 cycles
 SCF Done:  E(RB3LYP) =  -722.848215230     A.U. after    8 cycles
 SCF Done:  E(RB3LYP) =  -722.848215272     A.U. after    8 cycles
 SCF Done:  E(RB3LYP) =  -722.848215260     A.U. after    7 cycles
 Optimization completed.
    -- Stationary point found.
 Normal termination of Gaussian 16 at Fri Dec 11 11:45:04 2020.

 --------------------------------------------------------------------
 #N Geom=AllCheck Guess=TCheck SCRF=Check GenChk RB3LYP/6-31G(d) Freq
 --------------------------------------------------------------------

 Structure from the checkpoint file:  "JID_7047.chk"
 ------------------------------
 CID_66395798_JID_7047_neutraal
 ------------------------------
 Charge =  0 Multiplicity = 1

 SCF Done:  E(RB3LYP) =  -722.848215260     A.U. after    1 cycles

  Exact polarizability: 215.512  -9.649 160.995  19.339  14.014  95.608
 Approx polarizability: 297.210 -22.717 278.391  36.124  33.934 162.600

                      1                      2                      3
                      A                      A                      A
 Frequencies --     16.4731                42.8232                49.7792
 Red. masses --      5.5490                 4.6493                 4.5424
 Frc consts  --      0.0009                 0.0050                 0.0066
 IR Inten    --      0.4019                 0.3138                 1.5273

                      4                      5                      6
                      A                      A                      A
 Frequencies --     89.7415               102.2120               152.9880
 Red. masses --      4.6723                 5.6135                 4.6515
 Frc consts  --      0.0222                 0.0346                 0.0641
 IR Inten    --      0.3113                 4.5186                 0.8106

                      7                      8                      9
                      A                      A                      A
 Frequencies --    181.3321               213.3587               262.1072
 Red. masses --      1.0547                 2.9048                 2.6297
 Frc consts  --      0.0204                 0.0779                 0.1064
 IR Inten    --     21.4255                 6.4360                 0.4672

                     10                     11                     12
                      A                      A                      A
 Frequencies --    300.4488               359.4199               364.9612
 Red. masses --      3.9245                 3.9707                 2.9489
 Frc consts  --      0.2087                 0.3022                 0.2314
 IR Inten    --      0.3454                 0.9524                 1.8155

                     13                     14                     15
                      A                      A                      A
 Frequencies --    399.8049               413.2913               423.2865
 Red. masses --      4.2697                 3.0381                 4.3411
 Frc consts  --      0.4021                 0.3057                 0.4583
 IR Inten    --     13.6027                 5.5174                 0.7337

                     16                     17                     18
                      A                      A                      A
 Frequencies --    452.9437               505.7436               512.2852
 Red. masses --      3.5246                 3.1561                 2.5778
 Frc consts  --      0.4260                 0.4756                 0.3986
 IR Inten    --      4.5664                18.0841                40.2833

                     19                     20                     21
                      A                      A                      A
 Frequencies --    528.7380               555.1396               591.4760
 Red. masses --      3.6178                 3.6470                 2.7804
 Frc consts  --      0.5959                 0.6622                 0.5731
 IR Inten    --      0.2378                 8.8557                63.4946

                     22                     23                     24
                      A                      A                      A
 Frequencies --    641.6546               654.9618               675.8232
 Red. masses --      2.1214                 5.3479                 5.7278
 Frc consts  --      0.5146                 1.3517                 1.5414
 IR Inten    --    175.1787                 1.8178                31.6545

                     25                     26                     27
                      A                      A                      A
 Frequencies --    698.5937               734.0056               762.9736
 Red. masses --      1.4798                 2.3165                 1.5532
 Frc consts  --      0.4255                 0.7353                 0.5327
 IR Inten    --    254.6620                 7.6373                16.9352

                     28                     29                     30
                      A                      A                      A
 Frequencies --    785.4288               803.6658               807.1091
 Red. masses --      2.9564                 8.3268                 2.8549
 Frc consts  --      1.0745                 3.1687                 1.0957
 IR Inten    --      3.1947                26.1367                29.2224

                     31                     32                     33
                      A                      A                      A
 Frequencies --    832.7453               868.9025               888.6234
 Red. masses --      3.3932                 3.6677                 1.4322
 Frc consts  --      1.3864                 1.6315                 0.6663
 IR Inten    --      4.3976                 1.8314                 0.0654

                     34                     35                     36
                      A                      A                      A
 Frequencies --    901.3767               923.3885               936.2527
 Red. masses --      2.4447                 1.6094                 1.4546
 Frc consts  --      1.1703                 0.8085                 0.7512
 IR Inten    --      0.6725                21.0660                 1.3096

                     37                     38                     39
                      A                      A                      A
 Frequencies --    957.7181               973.8240               984.4661
 Red. masses --      1.3462                 2.3558                 1.2434
 Frc consts  --      0.7275                 1.3163                 0.7100
 IR Inten    --      0.0777                 1.4622                 0.0296

                     40                     41                     42
                      A                      A                      A
 Frequencies --   1015.2795              1034.3006              1050.9153
 Red. masses --      2.5624                 2.0967                 3.6126
 Frc consts  --      1.5562                 1.3215                 2.3507
 IR Inten    --      2.2401                 3.9851                 9.0924

                     43                     44                     45
                      A                      A                      A
 Frequencies --   1080.9582              1113.4865              1121.3695
 Red. masses --      2.0370                 2.0727                 1.5553
 Frc consts  --      1.4023                 1.5141                 1.1523
 IR Inten    --      0.9506                 0.0695                10.6273

                     46                     47                     48
                      A                      A                      A
 Frequencies --   1129.2876              1156.1728              1172.9549
 Red. masses --      2.4100                 1.7659                 1.9463
 Frc consts  --      1.8108                 1.3908                 1.5777
 IR Inten    --     33.3534                 2.9690                 0.8291

                     49                     50                     51
                      A                      A                      A
 Frequencies --   1187.7510              1221.3376              1231.6466
 Red. masses --      1.1779                 1.8723                 1.7860
 Frc consts  --      0.9790                 1.6455                 1.5963
 IR Inten    --      0.3419                 0.7907                 7.6621

                     52                     53                     54
                      A                      A                      A
 Frequencies --   1240.3695              1253.7655              1287.1144
 Red. masses --      1.5084                 1.5995                 3.0402
 Frc consts  --      1.3674                 1.4814                 2.9675
 IR Inten    --      4.3726                 0.8377                28.7884

                     55                     56                     57
                      A                      A                      A
 Frequencies --   1313.6970              1321.0805              1328.9899
 Red. masses --      1.4753                 1.6325                 2.0912
 Frc consts  --      1.5001                 1.6786                 2.1761
 IR Inten    --      0.0554                29.5373                60.9814

                     58                     59                     60
                      A                      A                      A
 Frequencies --   1355.0977              1379.3853              1400.3731
 Red. masses --      1.4698                 1.7857                 3.1553
 Frc consts  --      1.5902                 2.0018                 3.6457
 IR Inten    --      1.8754                55.0307                 5.6784

                     61                     62                     63
                      A                      A                      A
 Frequencies --   1413.8241              1458.6042              1494.0422
 Red. masses --      1.5492                 2.1670                 1.6679
 Frc consts  --      1.8245                 2.7164                 2.1936
 IR Inten    --     32.9945                33.8177               140.0766

                     64                     65                     66
                      A                      A                      A
 Frequencies --   1499.6641              1505.9437              1508.1136
 Red. masses --      1.4727                 1.9668                 1.5191
 Frc consts  --      1.9515                 2.6280                 2.0356
 IR Inten    --     19.8119                15.7810                 3.2380

                     67                     68                     69
                      A                      A                      A
 Frequencies --   1514.0742              1568.2440              1616.2624
 Red. masses --      1.8934                 3.0627                 4.4969
 Frc consts  --      2.5573                 4.4380                 6.9213
 IR Inten    --     22.5791               581.9387                76.4135

                     70                     71                     72
                      A                      A                      A
 Frequencies --   1654.0459              1663.2930              1672.2204
 Red. masses --      6.5968                 6.7345                 3.5635
 Frc consts  --     10.6336                10.9773                 5.8711
 IR Inten    --      0.0120                 0.9248               106.6930

                     73                     74                     75
                      A                      A                      A
 Frequencies --   1695.2179              3057.6953              3069.8422
 Red. masses --      1.2929                 1.0590                 1.0642
 Frc consts  --      2.1892                 5.8337                 5.9089
 IR Inten    --     23.7279                33.5556                45.4974

                     76                     77                     78
                      A                      A                      A
 Frequencies --   3088.3111              3107.7112              3128.6709
 Red. masses --      1.0852                 1.1039                 1.1034
 Frc consts  --      6.0983                 6.2814                 6.3637
 IR Inten    --     14.3521                29.5973                21.0989

                     79                     80                     81
                      A                      A                      A
 Frequencies --   3144.9455              3147.5934              3177.0952
 Red. masses --      1.0902                 1.0906                 1.0853
 Frc consts  --      6.3531                 6.3659                 6.4544
 IR Inten    --     35.9427                45.3798                 0.1000

                     82                     83                     84
                      A                      A                      A
 Frequencies --   3186.8404              3195.8732              3204.8596
 Red. masses --      1.0890                 1.0937                 1.0967
 Frc consts  --      6.5160                 6.5818                 6.6369
 IR Inten    --      7.3507                37.2789                29.9766

                     85                     86                     87
                      A                      A                      A
 Frequencies --   3529.1606              3603.2890              3623.4335
 Red. masses --      1.0484                 1.0756                 1.0968
 Frc consts  --      7.6932                 8.2279                 8.4843
 IR Inten    --      8.2325                26.0605                 6.8264

 - Thermochemistry -
 -------------------
 Temperature   298.150 Kelvin.  Pressure   1.00000 Atm.
 Atom     1 has atomic number  6 and mass  12.00000

 Molecular mass:   226.12185 amu.
 Principal axes and moments of inertia in atomic units:
                           1         2         3
     Eigenvalues --  1644.921607586.156268314.93038
           X            0.99998  -0.00386   0.00439
           Y            0.00380   0.99989   0.01441
           Z           -0.00445  -0.01439   0.99989
 This molecule is an asymmetric top.
 Rotational symmetry number  1.
 Warning -- assumption of classical behavior for rotation
           may cause significant error
 Rotational temperatures (Kelvin)      0.05266     0.01142     0.01042
 Rotational constants (GHZ):           1.09716     0.23790     0.21705
 Zero-point vibrational energy     671548.1 (Joules/Mol)
                                  160.50384 (Kcal/Mol)
 Warning -- explicit consideration of  21 degrees of freedom as
           vibrations may cause significant error
 Vibrational temperatures:     23.70    61.61    71.62   129.12   147.06
          (Kelvin)            220.12   260.90   306.98   377.11   432.28
                              517.13   525.10   575.23   594.63   609.01
                              651.69   727.65   737.06   760.74   798.72
                              851.00   923.20   942.34   972.36  1005.12
                             1056.07  1097.75  1130.06  1156.30  1161.25
                             1198.13  1250.16  1278.53  1296.88  1328.55
                             1347.06  1377.94  1401.12  1416.43  1460.76
                             1488.13  1512.03  1555.26  1602.06  1613.40
                             1624.79  1663.47  1687.62  1708.91  1757.23
                             1772.06  1784.62  1803.89  1851.87  1890.12
                             1900.74  1912.12  1949.68  1984.63  2014.82
                             2034.18  2098.61  2149.59  2157.68  2166.72
                             2169.84  2178.42  2256.35  2325.44  2379.80
                             2393.11  2405.95  2439.04  4399.34  4416.82
                             4443.39  4471.30  4501.46  4524.88  4528.68
                             4571.13  4585.15  4598.15  4611.08  5077.67
                             5184.33  5213.31

 Zero-point correction=                           0.255779 (Hartree/Particle)
 Thermal correction to Energy=                    0.270008
 Thermal correction to Enthalpy=                  0.270952
 Thermal correction to Gibbs Free Energy=         0.212687
 Sum of electronic and zero-point Energies=           -722.592436
 Sum of electronic and thermal Energies=              -722.578208
 Sum of electronic and thermal Enthalpies=            -722.577263
 Sum of electronic and thermal Free Energies=         -722.635529

                     E (Thermal)             CV                S
                      KCal/Mol        Cal/Mol-Kelvin    Cal/Mol-Kelvin
 Total                  169.432             55.984            122.630
 Electronic               0.000              0.000              0.000
 Translational            0.889              2.981             42.150
 Rotational               0.889              2.981             33.006
 Vibrational            167.655             50.023             47.474
 Vibration     1          0.593              1.986              7.019
 Vibration     2          0.595              1.980              5.124
 Vibration     3          0.595              1.978              4.826
 Vibration     4          0.602              1.956              3.666
 Vibration     5          0.604              1.947              3.412
 Vibration     6          0.619              1.899              2.635
 Vibration     7          0.630              1.865              2.315
 Vibration     8          0.644              1.821              2.015
 Vibration     9          0.669              1.742              1.648
 Vibration    10          0.693              1.673              1.414
 Vibration    11          0.734              1.556              1.125
 Vibration    12          0.738              1.544              1.101
 Vibration    13          0.766              1.471              0.963
 Vibration    14          0.777              1.441              0.915
 Vibration    15          0.785              1.420              0.881
 Vibration    16          0.811              1.354              0.787
 Vibration    17          0.861              1.237              0.644
 Vibration    18          0.867              1.223              0.628
 Vibration    19          0.884              1.186              0.590
 Vibration    20          0.911              1.128              0.534
 Vibration    21          0.949              1.050              0.465

                           ! Non-Optimized Parameters !
 Normal termination of Gaussian 16 at Fri Dec 11 11:55:08 2020.

 ----------------------------------------------------------------------
 # B3LYP/6-311++G(d,p) empiricaldispersion=gd3bj scf=xqc pop=npa geom=c
 heck
 ----------------------------------------------------------------------

 --------------------------------------
 CID_66395798_JID_7047_Energie_neutraal
 --------------------------------------
 Structure from the checkpoint file:  "JID_7047.chk"
 Charge =  0 Multiplicity = 1

 SCF Done:  E(RB3LYP) =  -723.042820640     A.U. after   15 cycles
 Normal termination of Gaussian 16 at Fri Dec 11 12:00:27 2020.

 ----------------------------------------------------------------------
 # B3LYP/6-311++G(d,p) empiricaldispersion=gd3bj scf=xqc pop=npa geom=c
 heck
 ----------------------------------------------------------------------

 ------------------------------------
 CID_66395798_JID_7047_Energie_kation
 ------------------------------------
 Structure from the checkpoint file:  "JID_7047.chk"
 Charge =  1 Multiplicity = 2

 SCF Done:  E(UB3LYP) =  -722.776541601     A.U. after   22 cycles
 Normal termination of Gaussian 16 at Fri Dec 11 12:11:26 2020.
 Gaussian 16:  ES64L-G16RevA.03 25-Dec-2016

 ----------------------------------------------------------------------
 # B3LYP/6-311++G(d,p) empiricaldispersion=gd3bj scf=xqc pop=npa geom=c
 heck
 ----------------------------------------------------------------------

 -----------------------------------
 CID_66395798_JID_7047_Energie_anion
 -----------------------------------
 Structure from the checkpoint file:  "JID_7047.chk"
 Charge = -1 Multiplicity = 2

                         Standard orientation:
 ---------------------------------------------------------------------
 Center     Atomic      Atomic             Coordinates (Angstroms)
 Number     Number       Type             X           Y           Z
 ---------------------------------------------------------------------
      1          6           0        2.510293   -1.957423   -0.600432
      2          6           0        1.142992   -1.219256   -0.286665
      3          6           0        1.961743    0.061788   -0.205682
      4          6           0        1.882554    1.426994    0.027361
      5          6           0        3.101290    2.125246   -0.009788
      6          6           0        4.314822    1.473911   -0.270461
      7          6           0        4.377291    0.090022   -0.507263
      8          6           0        3.169463   -0.589513   -0.463802
      9          6           0        0.443338   -1.626591    1.015158
     10          7           0       -0.477443   -0.610766    1.504080
     11          6           0       -1.608804   -0.270514    0.798023
     12          7           0       -2.132601    0.943529    1.060975
     13          6           0       -3.256867    1.255345    0.422707
     14          6           0       -3.890645    0.397029   -0.487312
     15          6           0       -3.238368   -0.823793   -0.691606
     16          7           0       -2.112375   -1.167700   -0.066260
     17          7           0       -5.040096    0.771895   -1.201524
     18          1           0        2.566166   -2.416928   -1.592985
     19          1           0        2.802698   -2.705011    0.146679
     20          1           0        0.421559   -1.250038   -1.109680
     21          1           0        0.944151    1.941681    0.218135
     22          1           0        3.107281    3.198054    0.164261
     23          1           0        5.230883    2.058531   -0.290308
     24          1           0        5.327305   -0.398023   -0.708842
     25          1           0       -0.109496   -2.558600    0.871402
     26          1           0        1.187860   -1.789569    1.802049
     27          1           0       -0.050809    0.189708    1.952868
     28          1           0       -3.677899    2.239372    0.633646
     29          1           0       -3.642458   -1.552086   -1.395982
     30          1           0       -5.622004    1.440445   -0.708887
     31          1           0       -5.602249   -0.015716   -1.504690
 ---------------------------------------------------------------------

 SCF Done:  E(UB3LYP) =  -723.033516448     A.U. after   33 cycles
 SCF Done:  E(UB3LYP) =  -723.033699704     a.u. after    9 cycles

 The electronic state is 2-A.
 Alpha  occ. eigenvalues --  -14.21573 -14.20598 -14.18341 -14.18339 -10.14329
 Alpha  occ. eigenvalues --  -10.10686 -10.09350 -10.09330 -10.08942 -10.08745
 Alpha  occ. eigenvalues --  -10.08715 -10.08665 -10.08598 -10.08540 -10.08450
 Alpha  occ. eigenvalues --  -10.08268 -10.08024  -0.88228  -0.81660  -0.79584
 Alpha  occ. eigenvalues --   -0.78456  -0.76399  -0.72317  -0.66157  -0.64546
 Alpha  occ. eigenvalues --   -0.61251  -0.58588  -0.54558  -0.53758  -0.51325
 Alpha  occ. eigenvalues --   -0.49635  -0.46721  -0.44241  -0.42657  -0.41268
 Alpha  occ. eigenvalues --   -0.39164  -0.38546  -0.37778  -0.36120  -0.35746
 Alpha  occ. eigenvalues --   -0.33750  -0.33003  -0.32129  -0.31597  -0.30642
 Alpha  occ. eigenvalues --   -0.29560  -0.28748  -0.27875  -0.26963  -0.25622
 Alpha  occ. eigenvalues --   -0.24128  -0.23422  -0.22139  -0.19872  -0.19694
 Alpha  occ. eigenvalues --   -0.16906  -0.16580  -0.15300  -0.13099  -0.08644
 Alpha  occ. eigenvalues --    0.04379
 Alpha virt. eigenvalues --    0.05395   0.06418   0.06608   0.07009   0.07793
 Alpha virt. eigenvalues --    0.08169   0.08480   0.09100   0.09607   0.09905
 Alpha virt. eigenvalues --    0.10663   0.11421   0.11928   0.12556   0.12744

  Beta  occ. eigenvalues --  -14.21578 -14.20546 -14.18219 -14.18171 -10.14355
  Beta  occ. eigenvalues --  -10.10684 -10.09401 -10.09327 -10.08940 -10.08725
  Beta  occ. eigenvalues --  -10.08699 -10.08651 -10.08538 -10.08444 -10.08428
  Beta  occ. eigenvalues --  -10.08075 -10.08020  -0.88073  -0.81588  -0.79529
  Beta  occ. eigenvalues --   -0.78394  -0.76058  -0.72285  -0.66105  -0.64418
  Beta  occ. eigenvalues --   -0.61155  -0.58543  -0.54271  -0.53645  -0.51266
  Beta  occ. eigenvalues --   -0.49585  -0.46691  -0.44147  -0.42600  -0.41196
  Beta  occ. eigenvalues --   -0.39089  -0.38469  -0.37748  -0.36062  -0.35683
  Beta  occ. eigenvalues --   -0.33635  -0.32907  -0.31929  -0.31531  -0.30447
  Beta  occ. eigenvalues --   -0.29490  -0.28611  -0.27820  -0.26889  -0.25606
  Beta  occ. eigenvalues --   -0.24025  -0.23402  -0.22084  -0.19656  -0.18634
  Beta  occ. eigenvalues --   -0.16740  -0.16448  -0.15220  -0.12929  -0.08228
  Beta virt. eigenvalues --    0.06081   0.06715   0.07120   0.07344   0.07926
  Beta virt. eigenvalues --    0.08248   0.08330   0.08942   0.09098   0.09950
  Beta virt. eigenvalues --    0.10140   0.10632   0.11330   0.12091   0.12571

 Mulliken charges and spin densities:
               1          2
     1  C   -0.212973  -0.564109
     2  C    0.577703   0.060721
     3  C    0.799861   0.109343
     4  C   -0.588353   0.215029
     5  C   -0.218988  -0.158123
     6  C    0.668199  -0.928013
     7  C   -0.679870  -0.051637
     8  C   -0.198851   0.390706
     9  C   -0.620748  -0.110650
    10  N    0.014603   0.001067
    11  C   -0.293488  -0.406341
    12  N   -0.135816   0.082402
    13  C   -0.362965   0.551559
    14  C    0.802352  -1.247751
    15  C   -0.001553   0.318620
    16  N   -0.120763   0.044375
    17  N   -0.297459  -0.044409
    18  H    0.070890   0.087875
    19  H    0.164916  -0.004176
    20  H    0.230612   0.007788
    21  H    0.176218  -0.011357
    22  H    0.020160   0.148893
    23  H   -0.375024   0.528677
    24  H   -0.359035   0.518023
    25  H    0.205526  -0.004328
    26  H    0.135271   0.008182
    27  H    0.272493  -0.002459
    28  H   -0.078768   0.237913
    29  H   -0.160826   0.318221
    30  H   -0.120783   0.348534
    31  H   -0.312541   0.555425
 Sum of Mulliken charges =  -1.00000   1.00000

 Dipole moment (field-independent basis, Debye):
    X=              5.9018    Y=             -1.9170    Z=              2.4563  Tot=              6.6738
 Quadrupole moment (field-independent basis, Debye-Ang):
   XX=           -222.2927   YY=           -124.9626   ZZ=           -125.2049
   XY=             -7.1516   XZ=             -7.5919   YZ=              0.9389

 Summary of Natural Population Analysis:

                                       Natural Population
                Natural  -----------------------------------------------
    Atom  No    Charge         Core      Valence    Rydberg      Total
 -----------------------------------------------------------------------
      C    1   -0.18637      0.99962     2.18006    0.00669     3.18637
      C    2   -0.11707      0.99957     2.10734    0.01015     3.11707
      C    3   -0.01118      0.99944     2.00018    0.01156     3.01118
      C    4   -0.10335      0.99950     2.09537    0.00848     3.10335
      C    5   -0.10314      0.99958     2.09311    0.01045     3.10314
      C    6   -0.10349      0.99958     2.09367    0.01024     3.10349
      C    7   -0.10237      0.99950     2.09329    0.00958     3.10237
      C    8   -0.01568      0.99945     2.00632    0.00991     3.01568
      C    9   -0.08382      0.99960     2.07322    0.01100     3.08382
      N   10   -0.31954      0.99968     2.80888    0.01099     3.81954
      C   11    0.27800      0.99961     1.70355    0.01885     2.72200
      N   12   -0.24739      0.99968     2.73761    0.01010     3.74739
      C   13    0.05173      0.99956     1.93376    0.01495     2.94827
      C   14    0.01896      0.99947     1.97054    0.01103     2.98104
      C   15    0.05979      0.99955     1.92541    0.01525     2.94021
      N   16   -0.25847      0.99967     2.74926    0.00953     3.75847
      N   17   -0.40267      0.99973     2.89130    0.01165     3.90267
      H   18    0.10231      0.00000     0.39658    0.00110     0.39769
      H   19    0.09808      0.00000     0.40083    0.00109     0.40192
      H   20    0.11326      0.00000     0.38554    0.00119     0.38674
      H   21    0.10871      0.00000     0.38986    0.00143     0.39129
      H   22    0.09917      0.00000     0.40007    0.00077     0.40083
      H   23    0.09994      0.00000     0.39891    0.00115     0.40006
      H   24    0.10141      0.00000     0.39746    0.00113     0.39859
      H   25    0.10568      0.00000     0.39320    0.00112     0.39432
      H   26    0.09116      0.00000     0.40786    0.00098     0.40884
      H   27    0.19007      0.00000     0.30757    0.00236     0.30993
      H   28    0.08273      0.00000     0.41583    0.00144     0.41727
      H   29    0.08458      0.00000     0.41409    0.00133     0.41542
      H   30    0.18206      0.00000     0.31526    0.00268     0.31794
      H   31    0.18691      0.00000     0.30605    0.00704     0.31309
 =======================================================================
   * Total *   -0.00000     16.99279    42.79198    0.21524    60.00000

 Normal termination of Gaussian 16 at Fri Dec 11 14:20:12 2020.
