 Gaussian 16, Revision A.03,

 -----------------------------------------------------------
 # opt freq B3LYP/6-31G(d) empiricaldispersion=gd3bj scf=xqc
 -----------------------------------------------------------

 --------------------------------
 CID_118062548_JID_10407_neutraal
 --------------------------------
 Symbolic Z-matrix:
 Charge =  0 Multiplicity = 1

 SCF Done:  E(RB3LYP) =  -864.536145130     A.U. after   15 cycles
 SCF Done:  E(RB3LYP) =  -864.540360567     A.U. after   12 cycles
 SCF Done:  E(RB3LYP) =  -864.540697189     A.U. after   12 cycles
 SCF Done:  E(RB3LYP) =  -864.540502705     A.U. after   12 cycles
 SCF Done:  E(RB3LYP) =  -864.540714764     A.U. after   12 cycles
 SCF Done:  E(RB3LYP) =  -864.540799496     A.U. after   11 cycles
 SCF Done:  E(RB3LYP) =  -864.540842728     A.U. after   12 cycles
 SCF Done:  E(RB3LYP) =  -864.540848311     A.U. after   10 cycles
 SCF Done:  E(RB3LYP) =  -864.540849056     A.U. after    8 cycles
 SCF Done:  E(RB3LYP) =  -864.540849265     A.U. after    7 cycles
 SCF Done:  E(RB3LYP) =  -864.541051671     A.U. after    9 cycles
 SCF Done:  E(RB3LYP) =  -864.541051755     A.U. after    7 cycles
 SCF Done:  E(RB3LYP) =  -864.541051806     A.U. after    7 cycles
 SCF Done:  E(RB3LYP) =  -864.541051848     A.U. after    6 cycles
 SCF Done:  E(RB3LYP) =  -864.541051856     A.U. after    6 cycles
 Optimization completed.
    -- Stationary point found.
 Normal termination of Gaussian 16 at Sat Dec 12 16:16:10 2020.

 --------------------------------------------------------------------
 #N Geom=AllCheck Guess=TCheck SCRF=Check GenChk RB3LYP/6-31G(d) Freq
 --------------------------------------------------------------------

 Structure from the checkpoint file:  "JID_10407.chk"
 --------------------------------
 CID_118062548_JID_10407_neutraal
 --------------------------------
 Charge =  0 Multiplicity = 1

 SCF Done:  E(RB3LYP) =  -864.541051856     A.U. after    1 cycles

  Exact polarizability: 276.980  -0.096 150.708  -0.861  -6.553 120.693
 Approx polarizability: 353.828  -3.810 257.780  -6.408 -12.706 193.491

                      1                      2                      3
                      A                      A                      A
 Frequencies --     32.6401                38.5782                54.7090
 Red. masses --      5.6425                 6.0258                 3.4898
 Frc consts  --      0.0035                 0.0053                 0.0062
 IR Inten    --      1.2326                 1.1956                 0.4807

                      4                      5                      6
                      A                      A                      A
 Frequencies --     65.0562               102.6581               106.5385
 Red. masses --      4.6866                 1.9267                 4.3971
 Frc consts  --      0.0117                 0.0120                 0.0294
 IR Inten    --      0.7793                 0.1310                 2.9667

                      7                      8                      9
                      A                      A                      A
 Frequencies --    119.3411               138.1424               164.1260
 Red. masses --      4.1172                 1.1434                 4.7054
 Frc consts  --      0.0345                 0.0129                 0.0747
 IR Inten    --      4.2328                 0.0917                 0.2487

                     10                     11                     12
                      A                      A                      A
 Frequencies --    171.4043               215.7043               226.5005
 Red. masses --      4.6355                 6.7410                 2.9243
 Frc consts  --      0.0802                 0.1848                 0.0884
 IR Inten    --      0.4397                 0.9877                 4.0476

                     13                     14                     15
                      A                      A                      A
 Frequencies --    275.0284               277.2643               298.7656
 Red. masses --      2.4114                 2.6737                 3.0578
 Frc consts  --      0.1075                 0.1211                 0.1608
 IR Inten    --      4.1384                 2.1356                 5.5988

                     16                     17                     18
                      A                      A                      A
 Frequencies --    347.6853               360.0067               370.5400
 Red. masses --      3.4384                 3.1026                 4.1615
 Frc consts  --      0.2449                 0.2369                 0.3366
 IR Inten    --      6.6699                 2.6996                 2.0234

                     19                     20                     21
                      A                      A                      A
 Frequencies --    381.6130               413.2337               432.5017
 Red. masses --      2.9229                 3.0328                 2.9948
 Frc consts  --      0.2508                 0.3051                 0.3301
 IR Inten    --      2.7218                 0.0136                 0.1601

                     22                     23                     24
                      A                      A                      A
 Frequencies --    476.1829               504.2904               524.9997
 Red. masses --      4.5429                 5.6668                 3.8252
 Frc consts  --      0.6069                 0.8491                 0.6212
 IR Inten    --      3.7180                 0.2448                 0.2657

                     25                     26                     27
                      A                      A                      A
 Frequencies --    531.1883               543.0877               563.4782
 Red. masses --      3.7603                 6.4672                 7.2140
 Frc consts  --      0.6251                 1.1238                 1.3495
 IR Inten    --      1.0413                 0.0198                 0.0548

                     28                     29                     30
                      A                      A                      A
 Frequencies --    585.6563               665.5974               687.2109
 Red. masses --      2.8742                 7.3566                 5.7087
 Frc consts  --      0.5808                 1.9202                 1.5884
 IR Inten    --     17.5471                 0.0949                 0.5138

                     31                     32                     33
                      A                      A                      A
 Frequencies --    749.2872               759.0259               787.7154
 Red. masses --      4.5528                 7.1581                 2.0081
 Frc consts  --      1.5060                 2.4298                 0.7341
 IR Inten    --      0.4431                 5.4248                 0.7388

                     34                     35                     36
                      A                      A                      A
 Frequencies --    792.7910               800.4415               838.1796
 Red. masses --      4.4816                 2.2005                 1.4218
 Frc consts  --      1.6596                 0.8307                 0.5885
 IR Inten    --      4.9278                 1.3744                 1.4659

                     37                     38                     39
                      A                      A                      A
 Frequencies --    844.2985               851.5033               857.3534
 Red. masses --      1.4678                 1.4524                 2.9567
 Frc consts  --      0.6165                 0.6204                 1.2805
 IR Inten    --      2.2359                21.4184                11.3950

                     40                     41                     42
                      A                      A                      A
 Frequencies --    857.9106               927.0783               954.3332
 Red. masses --      1.3916                 4.6220                 1.6043
 Frc consts  --      0.6034                 2.3405                 0.8609
 IR Inten    --     11.6413                 6.2736                 0.6155

                     43                     44                     45
                      A                      A                      A
 Frequencies --    969.9932               974.1855               985.6538
 Red. masses --      1.4430                 1.4094                 2.8504
 Frc consts  --      0.7999                 0.7881                 1.6316
 IR Inten    --      0.5867                 0.4379                 5.6445

                     46                     47                     48
                      A                      A                      A
 Frequencies --    995.2795              1006.0081              1014.0489
 Red. masses --      2.7278                 2.5818                 2.3074
 Frc consts  --      1.5920                 1.5395                 1.3979
 IR Inten    --      0.3663                 0.4095                 1.0532

                     49                     50                     51
                      A                      A                      A
 Frequencies --   1027.1115              1043.8648              1059.7338
 Red. masses --      2.9769                 3.0082                 2.4784
 Frc consts  --      1.8503                 1.9313                 1.6399
 IR Inten    --      0.0593                12.5914                10.2170

                     52                     53                     54
                      A                      A                      A
 Frequencies --   1080.3030              1089.0640              1105.5035
 Red. masses --      2.7163                 2.6760                 3.7609
 Frc consts  --      1.8678                 1.8700                 2.7081
 IR Inten    --      3.3659                 5.5849               115.5645

                     55                     56                     57
                      A                      A                      A
 Frequencies --   1155.2863              1171.1601              1186.3288
 Red. masses --      1.4477                 1.0344                 1.2752
 Frc consts  --      1.1384                 0.8359                 1.0574
 IR Inten    --      3.0349                 2.1820                 0.9255

                     58                     59                     60
                      A                      A                      A
 Frequencies --   1193.8697              1200.9939              1219.1404
 Red. masses --      2.3822                 2.6654                 1.6894
 Frc consts  --      2.0005                 2.2651                 1.4794
 IR Inten    --      3.4028                22.0594                 2.0222

                     61                     62                     63
                      A                      A                      A
 Frequencies --   1220.8341              1239.6474              1253.9597
 Red. masses --      1.4973                 2.6445                 2.0369
 Frc consts  --      1.3149                 2.3944                 1.8871
 IR Inten    --      4.0117                26.0453                34.7369

                     64                     65                     66
                      A                      A                      A
 Frequencies --   1280.1064              1292.4294              1295.6966
 Red. masses --      2.3647                 1.4942                 1.3073
 Frc consts  --      2.2830                 1.4705                 1.2931
 IR Inten    --    173.6796                94.9308                12.7093

                     67                     68                     69
                      A                      A                      A
 Frequencies --   1299.9938              1317.5980              1330.5377
 Red. masses --      1.3112                 1.7488                 1.6584
 Frc consts  --      1.3055                 1.7888                 1.7298
 IR Inten    --     42.0939                 0.1994                 6.9898

                     70                     71                     72
                      A                      A                      A
 Frequencies --   1335.0188              1339.9960              1350.9812
 Red. masses --      1.4628                 1.2576                 1.7444
 Frc consts  --      1.5360                 1.3305                 1.8758
 IR Inten    --      0.3610                 1.2775                 0.4489

                     73                     74                     75
                      A                      A                      A
 Frequencies --   1354.6538              1366.4801              1369.6162
 Red. masses --      1.6579                 1.5648                 1.5292
 Frc consts  --      1.7926                 1.7215                 1.6901
 IR Inten    --      2.1281                 0.6895                 0.4675

                     76                     77                     78
                      A                      A                      A
 Frequencies --   1400.5438              1410.7602              1455.9692
 Red. masses --      1.8048                 1.5432                 2.7733
 Frc consts  --      2.0858                 1.8096                 3.4638
 IR Inten    --     17.3463                 4.4954                 6.7644

                     79                     80                     81
                      A                      A                      A
 Frequencies --   1492.2676              1512.5459              1513.5760
 Red. masses --      1.2008                 1.0482                 1.0761
 Frc consts  --      1.5754                 1.4130                 1.4525
 IR Inten    --      6.8211                 5.7492                 0.2623

                     82                     83                     84
                      A                      A                      A
 Frequencies --   1516.9295              1525.1193              1528.2804
 Red. masses --      1.0811                 1.0484                 1.0857
 Frc consts  --      1.4656                 1.4368                 1.4941
 IR Inten    --      0.8416                 8.1632                 2.8169

                     85                     86                     87
                      A                      A                      A
 Frequencies --   1529.3564              1533.9529              1556.4754
 Red. masses --      1.0883                 1.0927                 1.1084
 Frc consts  --      1.4997                 1.5149                 1.5820
 IR Inten    --      5.0915                 2.7542                 0.5712

                     88                     89                     90
                      A                      A                      A
 Frequencies --   1560.4998              1611.3761              1670.7101
 Red. masses --      2.2479                 6.1075                 5.6291
 Frc consts  --      3.2252                 9.3434                 9.2575
 IR Inten    --     20.2162                 1.0466                34.9318

                     91                     92                     93
                      A                      A                      A
 Frequencies --   1816.7264              2350.0510              3047.3248
 Red. masses --     11.8879                12.6795                 1.0603
 Frc consts  --     23.1171                41.2579                 5.8014
 IR Inten    --    207.5811                50.2604                25.6663

                     94                     95                     96
                      A                      A                      A
 Frequencies --   3055.0633              3057.1080              3059.4718
 Red. masses --      1.0636                 1.0622                 1.0678
 Frc consts  --      5.8489                 5.8492                 5.8886
 IR Inten    --     33.0000                30.0376                37.0122

                     97                     98                     99
                      A                      A                      A
 Frequencies --   3066.6656              3073.8102              3075.8435
 Red. masses --      1.0636                 1.0676                 1.0298
 Frc consts  --      5.8935                 5.9433                 5.7403
 IR Inten    --     28.1924                18.1326                41.5092

                    100                    101                    102
                      A                      A                      A
 Frequencies --   3086.7966              3094.3655              3104.6056
 Red. masses --      1.1045                 1.1006                 1.0950
 Frc consts  --      6.2004                 6.2088                 6.2185
 IR Inten    --      7.2360                15.0521                13.9536

                    103                    104                    105
                      A                      A                      A
 Frequencies --   3114.9698              3121.6506              3123.3339
 Red. masses --      1.1028                 1.1024                 1.1018
 Frc consts  --      6.3045                 6.3296                 6.3324
 IR Inten    --     15.4698                32.5583                42.0015

                    106                    107                    108
                      A                      A                      A
 Frequencies --   3150.2210              3182.2714              3202.5704
 Red. masses --      1.1074                 1.1072                 1.0873
 Frc consts  --      6.4752                 6.6065                 6.5707
 IR Inten    --     20.1982                16.9709                 9.6421

                    109                    110                    111
                      A                      A                      A
 Frequencies --   3213.2999              3221.0026              3235.7504
 Red. masses --      1.0895                 1.0946                 1.0922
 Frc consts  --      6.6281                 6.6912                 6.7373
 IR Inten    --      3.4408                 7.9900                 6.3948

 - Thermochemistry -
 -------------------
 Temperature   298.150 Kelvin.  Pressure   1.00000 Atm.
 Atom     1 has atomic number  6 and mass  12.00000

 Molecular mass:   269.14158 amu.
 Principal axes and moments of inertia in atomic units:
                           1         2         3
     Eigenvalues --  1272.82197********************
           X            0.99999   0.00288   0.00349
           Y           -0.00265   0.99798  -0.06355
           Z           -0.00367   0.06354   0.99797
 This molecule is an asymmetric top.
 Rotational symmetry number  1.
 Warning -- assumption of classical behavior for rotation
           may cause significant error
 Rotational temperatures (Kelvin)      0.06805     0.00646     0.00636
 Rotational constants (GHZ):           1.41791     0.13456     0.13249
 Zero-point vibrational energy     867830.9 (Joules/Mol)
                                  207.41655 (Kcal/Mol)
 Warning -- explicit consideration of  28 degrees of freedom as
           vibrations may cause significant error
 Vibrational temperatures:     46.96    55.51    78.71    93.60   147.70
          (Kelvin)            153.29   171.71   198.76   236.14   246.61
                              310.35   325.88   395.70   398.92   429.86
                              500.24   517.97   533.12   549.06   594.55
                              622.27   685.12   725.56   755.36   764.26
                              781.38   810.72   842.63   957.65   988.74
                             1078.06  1092.07  1133.35  1140.65  1151.66
                             1205.95  1214.76  1225.12  1233.54  1234.34
                             1333.86  1373.07  1395.60  1401.64  1418.14
                             1431.99  1447.42  1458.99  1477.78  1501.89
                             1524.72  1554.32  1566.92  1590.57  1662.20
                             1685.04  1706.86  1717.71  1727.96  1754.07
                             1756.51  1783.58  1804.17  1841.79  1859.52
                             1864.22  1870.40  1895.73  1914.35  1920.79
                             1927.96  1943.76  1949.04  1966.06  1970.57
                             2015.07  2029.77  2094.81  2147.04  2176.22
                             2177.70  2182.52  2194.31  2198.85  2200.40
                             2207.02  2239.42  2245.21  2318.41  2403.78
                             2613.86  3381.20  4384.42  4395.55  4398.50
                             4401.90  4412.25  4422.53  4425.45  4441.21
                             4452.10  4466.83  4481.75  4491.36  4493.78
                             4532.47  4578.58  4607.78  4623.22  4634.30
                             4655.52

 Zero-point correction=                           0.330539 (Hartree/Particle)
 Thermal correction to Energy=                    0.348355
 Thermal correction to Enthalpy=                  0.349299
 Thermal correction to Gibbs Free Energy=         0.283988
 Sum of electronic and zero-point Energies=           -864.210513
 Sum of electronic and thermal Energies=              -864.192697
 Sum of electronic and thermal Enthalpies=            -864.191752
 Sum of electronic and thermal Free Energies=         -864.257064

                     E (Thermal)             CV                S
                      KCal/Mol        Cal/Mol-Kelvin    Cal/Mol-Kelvin
 Total                  218.596             69.051            137.461
 Electronic               0.000              0.000              0.000
 Translational            0.889              2.981             42.669
 Rotational               0.889              2.981             33.808
 Vibrational            216.819             63.090             60.984
 Vibration     1          0.594              1.983              5.662
 Vibration     2          0.594              1.981              5.331
 Vibration     3          0.596              1.976              4.639
 Vibration     4          0.597              1.971              4.298
 Vibration     5          0.605              1.947              3.403
 Vibration     6          0.605              1.944              3.331
 Vibration     7          0.609              1.933              3.111
 Vibration     8          0.614              1.915              2.829
 Vibration     9          0.623              1.887              2.502
 Vibration    10          0.626              1.878              2.420
 Vibration    11          0.645              1.817              1.995
 Vibration    12          0.650              1.801              1.907
 Vibration    13          0.677              1.720              1.564
 Vibration    14          0.678              1.716              1.550
 Vibration    15          0.692              1.676              1.424
 Vibration    16          0.725              1.580              1.177
 Vibration    17          0.735              1.555              1.122
 Vibration    18          0.743              1.533              1.078
 Vibration    19          0.751              1.509              1.033
 Vibration    20          0.777              1.441              0.915
 Vibration    21          0.793              1.399              0.851
 Vibration    22          0.833              1.303              0.720
 Vibration    23          0.860              1.240              0.647
 Vibration    24          0.880              1.195              0.598
 Vibration    25          0.886              1.181              0.585
 Vibration    26          0.898              1.155              0.559
 Vibration    27          0.919              1.110              0.517
 Vibration    28          0.943              1.062              0.475

 Optimization completed.
    -- Stationary point found.
 Normal termination of Gaussian 16 at Sat Dec 12 16:37:57 2020.

 ----------------------------------------------------------------------
 # B3LYP/6-311++G(d,p) empiricaldispersion=gd3bj scf=xqc pop=npa geom=c
 heck
 ----------------------------------------------------------------------

 ----------------------------------------
 CID_118062548_JID_10407_Energie_neutraal
 ----------------------------------------
 Structure from the checkpoint file:  "JID_10407.chk"
 Charge =  0 Multiplicity = 1

 SCF Done:  E(RB3LYP) =  -864.770383842     A.U. after   15 cycles
 Normal termination of Gaussian 16 at Sat Dec 12 16:48:05 2020.

 ----------------------------------------------------------------------
 # B3LYP/6-311++G(d,p) empiricaldispersion=gd3bj scf=xqc pop=npa geom=c
 heck
 ----------------------------------------------------------------------

 --------------------------------------
 CID_118062548_JID_10407_Energie_kation
 --------------------------------------
 Structure from the checkpoint file:  "JID_10407.chk"
 Charge =  1 Multiplicity = 2

 SCF Done:  E(UB3LYP) =  -864.447242899     A.U. after   28 cycles
 Normal termination of Gaussian 16 at Sat Dec 12 17:14:59 2020.
 Gaussian 16:  ES64L-G16RevA.03 25-Dec-2016

 ----------------------------------------------------------------------
 # B3LYP/6-311++G(d,p) empiricaldispersion=gd3bj scf=xqc pop=npa geom=c
 heck
 ----------------------------------------------------------------------

 -------------------------------------
 CID_118062548_JID_10407_Energie_anion
 -------------------------------------
 Structure from the checkpoint file:  "JID_10407.chk"
 Charge = -1 Multiplicity = 2

                         Standard orientation:
 ---------------------------------------------------------------------
 Center     Atomic      Atomic             Coordinates (Angstroms)
 Number     Number       Type             X           Y           Z
 ---------------------------------------------------------------------
      1          6           0        5.913539    0.517940    0.743960
      2          8           0        4.478023    0.538373    0.734196
      3          6           0        3.896079   -0.218793   -0.226371
      4          8           0        4.533198   -0.870788   -1.025998
      5          6           0        2.381879   -0.130403   -0.161584
      6          6           0        1.750700   -0.950851   -1.298428
      7          6           0        0.213700   -1.004825   -1.113148
      8          6           0       -0.250927    0.030337   -0.053028
      9          6           0        0.374728    1.391281   -0.426817
     10          6           0        1.919408    1.338571   -0.298160
     11          6           0        0.342339   -0.383652    1.318634
     12          6           0        1.860748   -0.669251    1.191817
     13          6           0       -1.773399    0.062253   -0.000874
     14          6           0       -2.482611   -1.095606    0.363960
     15          6           0       -3.869533   -1.119120    0.406345
     16          6           0       -4.598763    0.035116    0.077312
     17          6           0       -3.910541    1.197351   -0.294518
     18          6           0       -2.518881    1.202058   -0.331811
     19          6           0       -6.029835    0.023023    0.120053
     20          7           0       -7.192577    0.012558    0.155294
     21          1           0        6.210293    1.170754    1.565129
     22          1           0        6.308429    0.888284   -0.205640
     23          1           0        6.281224   -0.498505    0.906778
     24          1           0        2.182354   -1.955286   -1.310708
     25          1           0        2.014659   -0.492688   -2.257432
     26          1           0       -0.298983   -0.805516   -2.060281
     27          1           0       -0.098356   -2.006226   -0.796840
     28          1           0        0.087192    1.652736   -1.451924
     29          1           0       -0.021066    2.176899    0.225789
     30          1           0        2.390898    1.796880   -1.174570
     31          1           0        2.259354    1.902754    0.575003
     32          1           0        0.156862    0.424474    2.036028
     33          1           0       -0.173179   -1.266275    1.707682
     34          1           0        2.056605   -1.747023    1.241999
     35          1           0        2.412646   -0.204196    2.012823
     36          1           0       -1.940898   -2.000876    0.618079
     37          1           0       -4.396915   -2.023361    0.691640
     38          1           0       -4.468568    2.091292   -0.552852
     39          1           0       -2.016063    2.114723   -0.627409
 ---------------------------------------------------------------------

 SCF Done:  E(UB3LYP) =  -864.776259432     A.U. after   33 cycles
 SCF Done:  E(UB3LYP) =  -864.776259432     a.u. after    1 cycles

 The electronic state is 2-A.
 Alpha  occ. eigenvalues --  -19.08756 -19.03149 -14.17296 -10.21606 -10.14244
 Alpha  occ. eigenvalues --  -10.10869 -10.09030 -10.08751 -10.08560 -10.07927
 Alpha  occ. eigenvalues --  -10.07914 -10.07675 -10.07464 -10.07460 -10.06959
 Alpha  occ. eigenvalues --  -10.06400 -10.05982 -10.05926 -10.05904 -10.05486
 Alpha  occ. eigenvalues --   -1.02744  -0.93974  -0.78586  -0.77689  -0.74551
 Alpha  occ. eigenvalues --   -0.70175  -0.66102  -0.65877  -0.65201  -0.63624
 Alpha  occ. eigenvalues --   -0.62843  -0.54536  -0.53791  -0.53031  -0.50458
 Alpha  occ. eigenvalues --   -0.49240  -0.47784  -0.44557  -0.43250  -0.40948
 Alpha  occ. eigenvalues --   -0.40709  -0.40380  -0.39337  -0.38673  -0.36669
 Alpha  occ. eigenvalues --   -0.34862  -0.34059  -0.32899  -0.32351  -0.32182
 Alpha  occ. eigenvalues --   -0.31523  -0.30663  -0.29520  -0.29383  -0.29023
 Alpha  occ. eigenvalues --   -0.28949  -0.28278  -0.27100  -0.27028  -0.26789
 Alpha  occ. eigenvalues --   -0.24309  -0.24172  -0.23775  -0.22852  -0.22303
 Alpha  occ. eigenvalues --   -0.21853  -0.20573  -0.20474  -0.19839  -0.19276
 Alpha  occ. eigenvalues --   -0.14952  -0.13579   0.03553
 Alpha virt. eigenvalues --    0.04652   0.06599   0.07407   0.07760   0.08109
 Alpha virt. eigenvalues --    0.08609   0.08942   0.09148   0.09401   0.09970
 Alpha virt. eigenvalues --    0.10251   0.10517   0.10546   0.11941   0.12625

  Beta  occ. eigenvalues --  -19.08752 -19.03145 -14.17052 -10.21606 -10.14205
  Beta  occ. eigenvalues --  -10.10869 -10.09058 -10.08748 -10.08551 -10.07926
  Beta  occ. eigenvalues --  -10.07909 -10.07655 -10.07454 -10.07430 -10.06719
  Beta  occ. eigenvalues --  -10.06318 -10.06023 -10.05929 -10.05790 -10.05103
  Beta  occ. eigenvalues --   -1.02736  -0.93965  -0.78517  -0.77320  -0.74223
  Beta  occ. eigenvalues --   -0.70009  -0.66083  -0.65813  -0.64980  -0.63373
  Beta  occ. eigenvalues --   -0.62578  -0.54278  -0.53756  -0.52982  -0.50076
  Beta  occ. eigenvalues --   -0.49160  -0.47696  -0.44528  -0.43110  -0.40872
  Beta  occ. eigenvalues --   -0.40663  -0.40336  -0.39312  -0.38650  -0.36609
  Beta  occ. eigenvalues --   -0.34693  -0.33880  -0.32832  -0.32303  -0.32165
  Beta  occ. eigenvalues --   -0.31468  -0.30535  -0.29490  -0.29326  -0.28992
  Beta  occ. eigenvalues --   -0.28789  -0.28134  -0.27054  -0.26781  -0.26089
  Beta  occ. eigenvalues --   -0.24233  -0.24112  -0.23416  -0.22827  -0.21803
  Beta  occ. eigenvalues --   -0.21457  -0.20461  -0.20177  -0.19783  -0.19252
  Beta  occ. eigenvalues --   -0.14223  -0.11971
  Beta virt. eigenvalues --    0.05433   0.06686   0.07421   0.07933   0.08102
  Beta virt. eigenvalues --    0.08421   0.08606   0.09104   0.09396   0.09479
  Beta virt. eigenvalues --    0.09914   0.10250   0.10487   0.10593   0.11949

 Mulliken charges and spin densities:
               1          2
     1  C    0.768232  -0.957674
     2  O   -0.029830   0.043590
     3  C   -0.152689   0.361130
     4  O   -0.230511   0.004293
     5  C    0.213510  -0.026288
     6  C   -0.592554  -0.149893
     7  C   -0.690989   0.078015
     8  C    0.853397  -0.008546
     9  C   -0.524822  -0.100756
    10  C   -0.546569  -0.120799
    11  C   -0.569838   0.038663
    12  C   -0.211865  -0.354148
    13  C    0.754018   0.234573
    14  C   -0.420157   0.014245
    15  C   -0.323103   0.081237
    16  C    1.922381   0.148239
    17  C   -0.658944   0.176751
    18  C   -0.100133  -0.020335
    19  C   -1.703643  -0.076573
    20  N   -0.295719   0.131611
    21  H   -0.398572   0.556256
    22  H   -0.120709   0.292308
    23  H   -0.152699   0.327321
    24  H    0.167279   0.029420
    25  H    0.156293   0.013348
    26  H    0.189910   0.002693
    27  H    0.115936  -0.013908
    28  H    0.184074  -0.013326
    29  H    0.116768   0.026108
    30  H    0.099724   0.083080
    31  H    0.157042   0.018852
    32  H    0.179762   0.009089
    33  H    0.115620   0.016781
    34  H    0.117055   0.061344
    35  H    0.080988   0.083932
    36  H    0.093248   0.011660
    37  H    0.164332  -0.002385
    38  H    0.159748  -0.007983
    39  H    0.114030   0.008075
 Sum of Mulliken charges =  -1.00000   1.00000

 Dipole moment (field-independent basis, Debye):
    X=              6.7856    Y=             -0.2237    Z=             -1.0240  Tot=              6.8661
 Quadrupole moment (field-independent basis, Debye-Ang):
   XX=           -307.6604   YY=           -131.8869   ZZ=           -138.3836
   XY=             -0.9299   XZ=             -1.9183   YZ=             -5.2570

 Summary of Natural Population Analysis:

                                       Natural Population
                Natural  -----------------------------------------------
    Atom  No    Charge         Core      Valence    Rydberg      Total
 -----------------------------------------------------------------------
      C    1   -0.10470      0.99959     2.09599    0.00912     3.10470
      O    2   -0.28054      0.99986     3.27183    0.00886     4.28054
      C    3    0.42002      0.99958     1.55307    0.02732     2.57998
      O    4   -0.30637      0.99987     3.30133    0.00517     4.30637
      C    5   -0.07756      0.99950     2.06647    0.01159     3.07756
      C    6   -0.18872      0.99961     2.18019    0.00891     3.18872
      C    7   -0.18155      0.99960     2.17431    0.00764     3.18155
      C    8   -0.04035      0.99954     2.02882    0.01199     3.04035
      C    9   -0.19168      0.99961     2.18373    0.00834     3.19168
      C   10   -0.18622      0.99961     2.17612    0.01050     3.18622
      C   11   -0.18328      0.99960     2.17534    0.00834     3.18328
      C   12   -0.18842      0.99960     2.17865    0.01016     3.18842
      C   13    0.05584      0.99948     1.93228    0.01241     2.94416
      C   14   -0.11317      0.99953     2.10625    0.00739     3.11317
      C   15   -0.05944      0.99955     2.05239    0.00750     3.05944
      C   16   -0.06604      0.99942     2.05601    0.01060     3.06604
      C   17   -0.04605      0.99955     2.03729    0.00921     3.04605
      C   18   -0.12161      0.99952     2.11495    0.00713     3.12161
      C   19    0.15041      0.99964     1.83199    0.01795     2.84959
      N   20   -0.17157      0.99979     2.66082    0.01096     3.67157
      H   21    0.09369      0.00000     0.40480    0.00151     0.40631
      H   22    0.09124      0.00000     0.40757    0.00119     0.40876
      H   23    0.09168      0.00000     0.40707    0.00125     0.40832
      H   24    0.10597      0.00000     0.39309    0.00094     0.39403
      H   25    0.10011      0.00000     0.39899    0.00090     0.39989
      H   26    0.10275      0.00000     0.39641    0.00084     0.39725
      H   27    0.09792      0.00000     0.40117    0.00091     0.40208
      H   28    0.09966      0.00000     0.39932    0.00102     0.40034
      H   29    0.10324      0.00000     0.39562    0.00114     0.39676
      H   30    0.09993      0.00000     0.39919    0.00088     0.40007
      H   31    0.10421      0.00000     0.39469    0.00111     0.39579
      H   32    0.09905      0.00000     0.40001    0.00094     0.40095
      H   33    0.10277      0.00000     0.39620    0.00103     0.39723
      H   34    0.09768      0.00000     0.40146    0.00086     0.40232
      H   35    0.10699      0.00000     0.39192    0.00108     0.39301
      H   36    0.09385      0.00000     0.40490    0.00124     0.40615
      H   37    0.09744      0.00000     0.40167    0.00089     0.40256
      H   38    0.09652      0.00000     0.40271    0.00077     0.40348
      H   39    0.09630      0.00000     0.40254    0.00116     0.40370
 =======================================================================
   * Total *   -0.00000     19.99205    51.77718    0.23077    72.00000

 Normal termination of Gaussian 16 at Sat Dec 12 17:46:43 2020.
