 Gaussian 16, Revision A.03,

 -----------------------------------------------------------
 # opt freq B3LYP/6-31G(d) empiricaldispersion=gd3bj scf=xqc
 -----------------------------------------------------------

 ------------------------------
 CID_64895403_JID_8183_neutraal
 ------------------------------
 Symbolic Z-matrix:
 Charge =  0 Multiplicity = 1

 SCF Done:  E(RB3LYP) =  -841.474804043     A.U. after   15 cycles
 SCF Done:  E(RB3LYP) =  -841.476318268     A.U. after   15 cycles
 SCF Done:  E(RB3LYP) =  -841.479353298     A.U. after   15 cycles
 SCF Done:  E(RB3LYP) =  -841.482495066     A.U. after   14 cycles
 SCF Done:  E(RB3LYP) =  -841.482865579     A.U. after   13 cycles
 SCF Done:  E(RB3LYP) =  -841.482639199     A.U. after   12 cycles
 SCF Done:  E(RB3LYP) =  -841.482223322     A.U. after   13 cycles
 SCF Done:  E(RB3LYP) =  -841.482080168     A.U. after   12 cycles
 SCF Done:  E(RB3LYP) =  -841.483131067     A.U. after    9 cycles
 SCF Done:  E(RB3LYP) =  -841.483612299     A.U. after   12 cycles
 SCF Done:  E(RB3LYP) =  -841.496319143     A.U. after    8 cycles
 SCF Done:  E(RB3LYP) =  -841.496319240     A.U. after    7 cycles
 SCF Done:  E(RB3LYP) =  -841.496319379     A.U. after    7 cycles
 SCF Done:  E(RB3LYP) =  -841.496319475     A.U. after    7 cycles
 SCF Done:  E(RB3LYP) =  -841.496319550     A.U. after    7 cycles
 Optimization completed.
    -- Stationary point found.
 Normal termination of Gaussian 16 at Fri Dec 11 20:02:48 2020.

 --------------------------------------------------------------------
 #N Geom=AllCheck Guess=TCheck SCRF=Check GenChk RB3LYP/6-31G(d) Freq
 --------------------------------------------------------------------

 Structure from the checkpoint file:  "JID_8183.chk"
 ------------------------------
 CID_64895403_JID_8183_neutraal
 ------------------------------
 Charge =  0 Multiplicity = 1

 SCF Done:  E(RB3LYP) =  -841.496319550     A.U. after    1 cycles

  Exact polarizability: 175.092 -11.881 124.439  -5.255 -11.639 139.962
 Approx polarizability: 244.896 -23.792 183.945 -16.905 -30.750 254.781

                      1                      2                      3
                      A                      A                      A
 Frequencies --     26.5530                39.6233                47.3453
 Red. masses --      3.7965                 4.6280                 4.9324
 Frc consts  --      0.0016                 0.0043                 0.0065
 IR Inten    --      0.2174                 0.1729                 1.9191

                      4                      5                      6
                      A                      A                      A
 Frequencies --     57.8679                63.5882                75.6325
 Red. masses --      1.6775                 2.0610                 6.1414
 Frc consts  --      0.0033                 0.0049                 0.0207
 IR Inten    --      0.8189                 2.0071                 0.8945

                      7                      8                      9
                      A                      A                      A
 Frequencies --     98.5895               127.4470               166.4383
 Red. masses --      5.9922                 4.5412                 3.3006
 Frc consts  --      0.0343                 0.0435                 0.0539
 IR Inten    --      0.9073                 0.9943                 1.3043

                     10                     11                     12
                      A                      A                      A
 Frequencies --    195.7291               207.6164               230.2841
 Red. masses --      5.8130                 4.4449                 3.5971
 Frc consts  --      0.1312                 0.1129                 0.1124
 IR Inten    --      1.2379                 2.1642                 1.1959

                     13                     14                     15
                      A                      A                      A
 Frequencies --    263.1411               285.2794               287.2171
 Red. masses --      3.6288                 1.3089                 2.5916
 Frc consts  --      0.1480                 0.0628                 0.1260
 IR Inten    --      2.6475                49.9516                 4.5739

                     16                     17                     18
                      A                      A                      A
 Frequencies --    318.8044               354.8702               364.0396
 Red. masses --      2.3313                 2.9416                 2.5714
 Frc consts  --      0.1396                 0.2183                 0.2008
 IR Inten    --     13.8927                 1.4421                 5.1979

                     19                     20                     21
                      A                      A                      A
 Frequencies --    403.8502               416.4847               426.0772
 Red. masses --      3.6044                 3.0148                 4.4684
 Frc consts  --      0.3464                 0.3081                 0.4779
 IR Inten    --      4.7904                 0.1239                10.2872

                     22                     23                     24
                      A                      A                      A
 Frequencies --    479.4560               483.6071               509.4459
 Red. masses --      1.7131                 2.7574                 4.7866
 Frc consts  --      0.2320                 0.3800                 0.7319
 IR Inten    --     23.5744                19.1056                10.9576

                     25                     26                     27
                      A                      A                      A
 Frequencies --    529.6487               550.2841               587.2896
 Red. masses --      2.2750                 3.6640                 2.7952
 Frc consts  --      0.3760                 0.6537                 0.5680
 IR Inten    --     15.1214                 2.6011                44.0392

                     28                     29                     30
                      A                      A                      A
 Frequencies --    624.3790               655.7387               672.5843
 Red. masses --      3.2003                 6.4586                 1.7556
 Frc consts  --      0.7351                 1.6363                 0.4679
 IR Inten    --     24.8878                 0.6121               113.2516

                     31                     32                     33
                      A                      A                      A
 Frequencies --    697.1108               705.8985               715.3214
 Red. masses --      2.8146                 1.8527                 3.5698
 Frc consts  --      0.8059                 0.5439                 1.0762
 IR Inten    --     41.5668                65.6751                 9.1679

                     34                     35                     36
                      A                      A                      A
 Frequencies --    756.7747               784.0207               808.4826
 Red. masses --      3.6792                 2.7354                 1.9356
 Frc consts  --      1.2415                 0.9907                 0.7454
 IR Inten    --     13.5041                17.2768                15.6101

                     37                     38                     39
                      A                      A                      A
 Frequencies --    820.9667               850.4395               856.5193
 Red. masses --      2.2028                 4.5222                 1.2724
 Frc consts  --      0.8747                 1.9270                 0.5500
 IR Inten    --     25.0155                 2.0641                 2.3057

                     40                     41                     42
                      A                      A                      A
 Frequencies --    886.8098               938.7924               952.5678
 Red. masses --      2.7893                 2.1561                 1.3137
 Frc consts  --      1.2924                 1.1196                 0.7024
 IR Inten    --     16.4751                12.0344                 3.7466

                     43                     44                     45
                      A                      A                      A
 Frequencies --    965.0620               984.6129               997.9395
 Red. masses --      1.3498                 1.6948                 1.8393
 Frc consts  --      0.7407                 0.9681                 1.0792
 IR Inten    --      1.4651               119.5618                32.6699

                     46                     47                     48
                      A                      A                      A
 Frequencies --   1019.8870              1042.9265              1043.8877
 Red. masses --      1.4123                 2.5203                 2.9090
 Frc consts  --      0.8656                 1.6151                 1.8677
 IR Inten    --      2.7487                10.5570                 3.2358

                     49                     50                     51
                      A                      A                      A
 Frequencies --   1073.3788              1088.3455              1127.6418
 Red. masses --      1.5151                 2.0953                 2.7702
 Frc consts  --      1.0285                 1.4622                 2.0754
 IR Inten    --     14.5347                47.4600                23.7213

                     52                     53                     54
                      A                      A                      A
 Frequencies --   1150.5803              1160.2785              1181.1049
 Red. masses --      1.7323                 1.4843                 2.0402
 Frc consts  --      1.3511                 1.1773                 1.6768
 IR Inten    --     19.6170                 9.1463               154.1962

                     55                     56                     57
                      A                      A                      A
 Frequencies --   1218.0308              1221.8047              1231.0992
 Red. masses --      1.3070                 1.3692                 2.1443
 Frc consts  --      1.1424                 1.2043                 1.9148
 IR Inten    --      3.3983                 6.7724                 9.8750

                     58                     59                     60
                      A                      A                      A
 Frequencies --   1238.9945              1246.5402              1297.8939
 Red. masses --      1.4536                 2.5040                 1.3964
 Frc consts  --      1.3147                 2.2925                 1.3859
 IR Inten    --     26.2446                 2.9532                31.7815

                     61                     62                     63
                      A                      A                      A
 Frequencies --   1306.1738              1319.7936              1336.4880
 Red. masses --      1.4393                 1.3537                 2.1620
 Frc consts  --      1.4467                 1.3893                 2.2753
 IR Inten    --     10.8002                12.9077                34.7025

                     64                     65                     66
                      A                      A                      A
 Frequencies --   1350.2618              1354.9170              1386.2095
 Red. masses --      1.4899                 2.0114                 1.8218
 Frc consts  --      1.6005                 2.1756                 2.0626
 IR Inten    --     14.9557                 0.5205                56.7985

                     67                     68                     69
                      A                      A                      A
 Frequencies --   1402.6724              1426.6909              1439.6807
 Red. masses --      1.3975                 1.5970                 1.8282
 Frc consts  --      1.6201                 1.9151                 2.2326
 IR Inten    --     15.3568                13.6315                31.0554

                     70                     71                     72
                      A                      A                      A
 Frequencies --   1442.2329              1454.0768              1467.8473
 Red. masses --      1.2908                 1.6295                 2.1327
 Frc consts  --      1.5819                 2.0299                 2.7074
 IR Inten    --      2.0824                45.2033                10.8614

                     73                     74                     75
                      A                      A                      A
 Frequencies --   1486.4338              1490.4485              1498.8800
 Red. masses --      1.2175                 1.0853                 1.1049
 Frc consts  --      1.5849                 1.4205                 1.4626
 IR Inten    --      2.6885                22.8212                 8.8707

                     76                     77                     78
                      A                      A                      A
 Frequencies --   1508.5690              1518.9976              1527.2865
 Red. masses --      1.3951                 1.0508                 1.1028
 Frc consts  --      1.8706                 1.4285                 1.5156
 IR Inten    --     64.5588                 7.1303                12.5555

                     79                     80                     81
                      A                      A                      A
 Frequencies --   1568.4599              1637.3645              1679.4482
 Red. masses --      2.4803                 5.5828                 5.8060
 Frc consts  --      3.5950                 8.8185                 9.6484
 IR Inten    --     15.6168                 0.5546                 0.6108

                     82                     83                     84
                      A                      A                      A
 Frequencies --   1731.3767              1750.5173              1827.0607
 Red. masses --      1.0933                 6.7316                 9.0569
 Frc consts  --      1.9310                12.1536                17.8130
 IR Inten    --     26.0680               264.0695               181.8735

                     85                     86                     87
                      A                      A                      A
 Frequencies --   3039.5644              3042.7152              3052.4676
 Red. masses --      1.0377                 1.0827                 1.0723
 Frc consts  --      5.6488                 5.9061                 5.8869
 IR Inten    --     33.0190                17.4674                43.3317

                     88                     89                     90
                      A                      A                      A
 Frequencies --   3068.2269              3069.8719              3092.0367
 Red. masses --      1.0633                 1.0673                 1.0992
 Frc consts  --      5.8974                 5.9264                 6.1920
 IR Inten    --     12.6581                20.6756                20.3756

                     91                     92                     93
                      A                      A                      A
 Frequencies --   3102.3944              3117.8638              3128.4726
 Red. masses --      1.0972                 1.1021                 1.0991
 Frc consts  --      6.2218                 6.3120                 6.3379
 IR Inten    --     10.1914                16.4241                10.3621

                     94                     95                     96
                      A                      A                      A
 Frequencies --   3166.0441              3176.7872              3179.7780
 Red. masses --      1.0919                 1.0869                 1.0871
 Frc consts  --      6.4484                 6.4630                 6.4760
 IR Inten    --      2.9935                12.6445                 8.2055

                     97                     98                     99
                      A                      A                      A
 Frequencies --   3193.7900              3198.6924              3474.4609
 Red. masses --      1.0940                 1.0938                 1.0505
 Frc consts  --      6.5747                 6.5936                 7.4718
 IR Inten    --     26.6439                 6.1162                30.7807

                    100                    101                    102
                      A                      A                      A
 Frequencies --   3548.9730              3575.3619              3690.7189
 Red. masses --      1.0915                 1.0753                 1.0639
 Frc consts  --      8.0996                 8.0991                 8.5381
 IR Inten    --     31.1516                16.0347                34.7516

 - Thermochemistry -
 -------------------
 Temperature   298.150 Kelvin.  Pressure   1.00000 Atm.
 Atom     1 has atomic number  6 and mass  12.00000

 Molecular mass:   250.13174 amu.
 Principal axes and moments of inertia in atomic units:
                           1         2         3
     Eigenvalues --  2907.965614930.149196095.01146
           X            0.99991   0.00570   0.01231
           Y           -0.00551   0.99986  -0.01573
           Z           -0.01239   0.01567   0.99980
 This molecule is an asymmetric top.
 Rotational symmetry number  1.
 Warning -- assumption of classical behavior for rotation
           may cause significant error
 Rotational temperatures (Kelvin)      0.02979     0.01757     0.01421
 Rotational constants (GHZ):           0.62062     0.36606     0.29610
 Zero-point vibrational energy     798164.8 (Joules/Mol)
                                  190.76596 (Kcal/Mol)
 Warning -- explicit consideration of  27 degrees of freedom as
           vibrations may cause significant error
 Vibrational temperatures:     38.20    57.01    68.12    83.26    91.49
          (Kelvin)            108.82   141.85   183.37   239.47   281.61
                              298.71   331.33   378.60   410.45   413.24
                              458.69   510.58   523.77   581.05   599.23
                              613.03   689.83   695.80   732.98   762.05
                              791.74   844.98   898.34   943.46   967.70
                             1002.99  1015.63  1029.19  1088.83  1128.03
                             1163.23  1181.19  1223.59  1232.34  1275.92
                             1350.71  1370.53  1388.51  1416.64  1435.81
                             1467.39  1500.54  1501.92  1544.35  1565.89
                             1622.43  1655.43  1669.38  1699.35  1752.47
                             1757.90  1771.28  1782.64  1793.49  1867.38
                             1879.29  1898.89  1922.91  1942.73  1949.42
                             1994.45  2018.13  2052.69  2071.38  2075.05
                             2092.09  2111.90  2138.65  2144.42  2156.55
                             2170.49  2185.50  2197.42  2256.66  2355.80
                             2416.35  2491.06  2518.60  2628.73  4373.26
                             4377.79  4391.82  4414.49  4416.86  4448.75
                             4463.65  4485.91  4501.17  4555.23  4570.69
                             4574.99  4595.15  4602.20  4998.97  5106.18
                             5144.15  5310.12

 Zero-point correction=                           0.304005 (Hartree/Particle)
 Thermal correction to Energy=                    0.321979
 Thermal correction to Enthalpy=                  0.322924
 Thermal correction to Gibbs Free Energy=         0.256849
 Sum of electronic and zero-point Energies=           -841.192315
 Sum of electronic and thermal Energies=              -841.174340
 Sum of electronic and thermal Enthalpies=            -841.173396
 Sum of electronic and thermal Free Energies=         -841.239471

                     E (Thermal)             CV                S
                      KCal/Mol        Cal/Mol-Kelvin    Cal/Mol-Kelvin
 Total                  202.045             67.691            139.066
 Electronic               0.000              0.000              0.000
 Translational            0.889              2.981             42.451
 Rotational               0.889              2.981             32.835
 Vibrational            200.268             61.729             63.780
 Vibration     1          0.593              1.984              6.072
 Vibration     2          0.594              1.981              5.278
 Vibration     3          0.595              1.979              4.925
 Vibration     4          0.596              1.974              4.529
 Vibration     5          0.597              1.972              4.343
 Vibration     6          0.599              1.965              4.001
 Vibration     7          0.604              1.950              3.482
 Vibration     8          0.611              1.926              2.984
 Vibration     9          0.624              1.884              2.475
 Vibration    10          0.636              1.846              2.173
 Vibration    11          0.641              1.829              2.065
 Vibration    12          0.652              1.795              1.877
 Vibration    13          0.670              1.740              1.641
 Vibration    14          0.683              1.701              1.502
 Vibration    15          0.684              1.697              1.490
 Vibration    16          0.705              1.638              1.316
 Vibration    17          0.731              1.565              1.144
 Vibration    18          0.738              1.546              1.105
 Vibration    19          0.769              1.462              0.949
 Vibration    20          0.780              1.434              0.904
 Vibration    21          0.788              1.413              0.872
 Vibration    22          0.836              1.296              0.712
 Vibration    23          0.840              1.286              0.700
 Vibration    24          0.865              1.229              0.635
 Vibration    25          0.885              1.184              0.588
 Vibration    26          0.906              1.139              0.544
 Vibration    27          0.944              1.059              0.472

                           ! Non-Optimized Parameters !
 Normal termination of Gaussian 16 at Fri Dec 11 20:20:42 2020.

 ----------------------------------------------------------------------
 # B3LYP/6-311++G(d,p) empiricaldispersion=gd3bj scf=xqc pop=npa geom=c
 heck
 ----------------------------------------------------------------------

 --------------------------------------
 CID_64895403_JID_8183_Energie_neutraal
 --------------------------------------
 Structure from the checkpoint file:  "JID_8183.chk"
 Charge =  0 Multiplicity = 1

 SCF Done:  E(RB3LYP) =  -841.749784515     A.U. after   15 cycles
 Normal termination of Gaussian 16 at Fri Dec 11 20:27:15 2020.

 ----------------------------------------------------------------------
 # B3LYP/6-311++G(d,p) empiricaldispersion=gd3bj scf=xqc pop=npa geom=c
 heck
 ----------------------------------------------------------------------

 ------------------------------------
 CID_64895403_JID_8183_Energie_kation
 ------------------------------------
 Structure from the checkpoint file:  "JID_8183.chk"
 Charge =  1 Multiplicity = 2

 SCF Done:  E(UB3LYP) =  -841.451105632     A.U. after   28 cycles
 Normal termination of Gaussian 16 at Fri Dec 11 20:43:51 2020.
 Gaussian 16:  ES64L-G16RevA.03 25-Dec-2016

 ----------------------------------------------------------------------
 # B3LYP/6-311++G(d,p) empiricaldispersion=gd3bj scf=xqc pop=npa geom=c
 heck
 ----------------------------------------------------------------------

 -----------------------------------
 CID_64895403_JID_8183_Energie_anion
 -----------------------------------
 Structure from the checkpoint file:  "JID_8183.chk"
 Charge = -1 Multiplicity = 2

                         Standard orientation:
 ---------------------------------------------------------------------
 Center     Atomic      Atomic             Coordinates (Angstroms)
 Number     Number       Type             X           Y           Z
 ---------------------------------------------------------------------
      1          6           0       -4.264993    0.176442   -0.385173
      2          6           0       -2.919118   -0.488406   -0.221592
      3          6           0       -2.028591   -0.578463   -1.298640
      4          6           0       -0.785367   -1.189203   -1.153727
      5          6           0       -0.392211   -1.731021    0.074995
      6          6           0       -1.279421   -1.645301    1.150489
      7          6           0       -2.522715   -1.032051    1.004565
      8          6           0        0.960749   -2.398520    0.252919
      9          7           0        2.025284   -1.820741   -0.564737
     10          6           0        2.562735   -0.559913   -0.561931
     11          8           0        3.175294   -0.162241   -1.552374
     12          6           0        2.521212    0.353578    0.678605
     13          6           0        2.222278    1.805289    0.219150
     14          6           0        0.944375    2.022930   -0.602984
     15          6           0       -0.351370    2.041438    0.170314
     16          8           0       -0.520551    1.709254    1.327140
     17          8           0       -1.372583    2.502451   -0.589399
     18          7           0        1.750647   -0.140770    1.821072
     19          1           0       -4.209070    1.031135   -1.069595
     20          1           0       -5.006536   -0.516823   -0.803142
     21          1           0       -4.657055    0.529714    0.574467
     22          1           0       -2.304696   -0.147697   -2.257857
     23          1           0       -0.105406   -1.226946   -2.000226
     24          1           0       -0.981860   -2.036733    2.120035
     25          1           0       -3.186642   -0.956769    1.862299
     26          1           0        1.252167   -2.355806    1.300948
     27          1           0        0.895774   -3.453349   -0.041632
     28          1           0        2.178161   -2.252932   -1.468719
     29          1           0        3.572494    0.351214    0.995918
     30          1           0        2.206427    2.446580    1.108001
     31          1           0        3.058581    2.125427   -0.406774
     32          1           0        1.003740    2.975010   -1.143265
     33          1           0        0.852316    1.259174   -1.384055
     34          1           0       -2.172672    2.411890   -0.038753
     35          1           0        2.119863    0.296974    2.662866
     36          1           0        0.790239    0.194006    1.750267
 ---------------------------------------------------------------------

 SCF Done:  E(UB3LYP) =  -841.738262562     A.U. after   33 cycles
 SCF Done:  E(UB3LYP) =  -841.738262562     a.u. after    1 cycles

 The electronic state is 2-A.
 Alpha  occ. eigenvalues --  -19.07751 -19.02671 -18.99145 -14.24085 -14.19268
 Alpha  occ. eigenvalues --  -10.21835 -10.17675 -10.11774 -10.11198 -10.09531
 Alpha  occ. eigenvalues --  -10.08472 -10.08334 -10.08236 -10.07763 -10.07685
 Alpha  occ. eigenvalues --  -10.07650 -10.07608 -10.07133  -1.02068  -0.94418
 Alpha  occ. eigenvalues --   -0.93053  -0.82769  -0.79345  -0.76416  -0.70209
 Alpha  occ. eigenvalues --   -0.68872  -0.65135  -0.62836  -0.62106  -0.57232
 Alpha  occ. eigenvalues --   -0.55599  -0.51675  -0.50296  -0.48538  -0.46031
 Alpha  occ. eigenvalues --   -0.41849  -0.41498  -0.41342  -0.40159  -0.39263
 Alpha  occ. eigenvalues --   -0.38015  -0.37802  -0.36828  -0.35720  -0.34416
 Alpha  occ. eigenvalues --   -0.33009  -0.32629  -0.32526  -0.32244  -0.32013
 Alpha  occ. eigenvalues --   -0.31438  -0.30508  -0.29098  -0.28449  -0.27626
 Alpha  occ. eigenvalues --   -0.26667  -0.25869  -0.25187  -0.24665  -0.24427
 Alpha  occ. eigenvalues --   -0.23696  -0.20028  -0.17525  -0.16384  -0.15854
 Alpha  occ. eigenvalues --   -0.14640  -0.14067   0.04131
 Alpha virt. eigenvalues --    0.05851   0.06137   0.07392   0.07579   0.07878
 Alpha virt. eigenvalues --    0.08089   0.08454   0.08894   0.09122   0.09470
 Alpha virt. eigenvalues --    0.09880   0.10299   0.10934   0.11393   0.11714

  Beta  occ. eigenvalues --  -19.07719 -19.02663 -18.99136 -14.24069 -14.19251
  Beta  occ. eigenvalues --  -10.21833 -10.17663 -10.11765 -10.11187 -10.09519
  Beta  occ. eigenvalues --  -10.08440 -10.08303 -10.08223 -10.07755 -10.07676
  Beta  occ. eigenvalues --  -10.07642 -10.07600 -10.07091  -1.02027  -0.94397
  Beta  occ. eigenvalues --   -0.93019  -0.82734  -0.79310  -0.76375  -0.70180
  Beta  occ. eigenvalues --   -0.68805  -0.65106  -0.62783  -0.62053  -0.57169
  Beta  occ. eigenvalues --   -0.55541  -0.51643  -0.50237  -0.48475  -0.45985
  Beta  occ. eigenvalues --   -0.41815  -0.41464  -0.41304  -0.40138  -0.39212
  Beta  occ. eigenvalues --   -0.37980  -0.37770  -0.36785  -0.35671  -0.34374
  Beta  occ. eigenvalues --   -0.32966  -0.32605  -0.32485  -0.32193  -0.31965
  Beta  occ. eigenvalues --   -0.31401  -0.30469  -0.29049  -0.28408  -0.27601
  Beta  occ. eigenvalues --   -0.26635  -0.25810  -0.25129  -0.24622  -0.24399
  Beta  occ. eigenvalues --   -0.23670  -0.20007  -0.17505  -0.16334  -0.15798
  Beta  occ. eigenvalues --   -0.14547  -0.13977
  Beta virt. eigenvalues --    0.06198   0.06765   0.06869   0.07637   0.07761
  Beta virt. eigenvalues --    0.08192   0.08266   0.08855   0.09192   0.09502
  Beta virt. eigenvalues --    0.09902   0.10125   0.10497   0.11293   0.11747

 Mulliken charges and spin densities:
               1          2
     1  C    3.124862  -3.733882
     2  C   -1.226692   1.666685
     3  C   -1.380821   0.983378
     4  C   -0.493653   0.196386
     5  C    1.771939  -0.926254
     6  C   -0.691692   0.332936
     7  C   -0.600783   0.173030
     8  C    0.128954  -1.076056
     9  N   -0.162319   0.045484
    10  C   -0.356219  -0.109176
    11  O   -0.310260   0.030421
    12  C    1.160201  -0.482013
    13  C   -0.246550  -0.707313
    14  C   -0.379451   0.458344
    15  C    0.290119  -0.555127
    16  O   -0.212585   0.025254
    17  O   -0.045423   0.018472
    18  N   -0.621773   0.070423
    19  H   -0.205757   0.338717
    20  H   -0.168794   0.339940
    21  H   -0.361041   0.508433
    22  H   -0.195686   0.374108
    23  H   -0.076809   0.256081
    24  H   -0.043372   0.198804
    25  H   -0.326867   0.501545
    26  H    0.310762  -0.054180
    27  H   -0.421376   0.608520
    28  H    0.111307   0.198564
    29  H   -0.148241   0.386191
    30  H   -0.110386   0.291971
    31  H    0.224164  -0.028588
    32  H   -0.097436   0.327741
    33  H    0.294947  -0.059318
    34  H   -0.069854   0.376167
    35  H    0.058862   0.218094
    36  H    0.477720  -0.193783
 Sum of Mulliken charges =  -1.00000   1.00000

 Dipole moment (field-independent basis, Debye):
    X=              2.6465    Y=              0.2962    Z=              0.6048  Tot=              2.7309
 Quadrupole moment (field-independent basis, Debye-Ang):
   XX=           -190.1866   YY=           -152.5137   ZZ=           -142.1489
   XY=              3.2389   XZ=              1.7191   YZ=             -3.0707

 Summary of Natural Population Analysis:

                                       Natural Population
                Natural  -----------------------------------------------
    Atom  No    Charge         Core      Valence    Rydberg      Total
 -----------------------------------------------------------------------
      C    1   -0.29547      0.99964     2.28947    0.00636     3.29547
      C    2   -0.01864      0.99951     2.00840    0.01074     3.01864
      C    3   -0.09607      0.99951     2.08670    0.00986     3.09607
      C    4   -0.10470      0.99950     2.09576    0.00944     3.10470
      C    5   -0.02517      0.99949     2.01501    0.01067     3.02517
      C    6   -0.09427      0.99950     2.08569    0.00908     3.09427
      C    7   -0.09272      0.99950     2.08332    0.00990     3.09272
      C    8   -0.09877      0.99956     2.08730    0.01191     3.09877
      N    9   -0.31361      0.99967     2.80299    0.01096     3.81361
      C   10    0.34593      0.99963     1.63035    0.02409     2.65407
      O   11   -0.33488      0.99988     3.32963    0.00537     4.33488
      C   12   -0.04974      0.99955     2.03658    0.01360     3.04974
      C   13   -0.19512      0.99961     2.18574    0.00977     3.19512
      C   14   -0.24675      0.99956     2.23873    0.00846     3.24675
      C   15    0.41190      0.99972     1.56336    0.02502     2.58810
      O   16   -0.31371      0.99986     3.30769    0.00615     4.31371
      O   17   -0.34270      0.99988     3.33635    0.00648     4.34270
      N   18   -0.43366      0.99976     2.92306    0.01084     3.93366
      H   19    0.10193      0.00000     0.39681    0.00127     0.39807
      H   20    0.10873      0.00000     0.38941    0.00186     0.39127
      H   21    0.10336      0.00000     0.39525    0.00140     0.39664
      H   22    0.10017      0.00000     0.39858    0.00125     0.39983
      H   23    0.10116      0.00000     0.39719    0.00165     0.39884
      H   24    0.09985      0.00000     0.39878    0.00137     0.40015
      H   25    0.09977      0.00000     0.39927    0.00096     0.40023
      H   26    0.11731      0.00000     0.38102    0.00167     0.38269
      H   27    0.10262      0.00000     0.39571    0.00168     0.39738
      H   28    0.19177      0.00000     0.30553    0.00270     0.30823
      H   29    0.10779      0.00000     0.39074    0.00147     0.39221
      H   30    0.10189      0.00000     0.39679    0.00132     0.39811
      H   31    0.11131      0.00000     0.38771    0.00098     0.38869
      H   32    0.11543      0.00000     0.38360    0.00097     0.38457
      H   33    0.12213      0.00000     0.37650    0.00137     0.37787
      H   34    0.24468      0.00000     0.25103    0.00429     0.25532
      H   35    0.17638      0.00000     0.32198    0.00165     0.32362
      H   36    0.19187      0.00000     0.30539    0.00273     0.30813
 =======================================================================
   * Total *    0.00000     17.99332    48.77740    0.22928    67.00000

 Normal termination of Gaussian 16 at Fri Dec 11 21:03:16 2020.
