 Gaussian 16, Revision A.03,

 -----------------------------------------------------------
 # opt freq B3LYP/6-31G(d) empiricaldispersion=gd3bj scf=xqc
 -----------------------------------------------------------

 -------------------------------
 CID_141582454_JID_7681_neutraal
 -------------------------------
 Symbolic Z-matrix:
 Charge =  0 Multiplicity = 1

 SCF Done:  E(RB3LYP) =  -812.005993861     A.U. after   14 cycles
 SCF Done:  E(RB3LYP) =  -812.010223079     A.U. after   12 cycles
 SCF Done:  E(RB3LYP) =  -812.009915457     A.U. after   12 cycles
 SCF Done:  E(RB3LYP) =  -812.011147999     A.U. after   11 cycles
 SCF Done:  E(RB3LYP) =  -812.011701136     A.U. after   12 cycles
 SCF Done:  E(RB3LYP) =  -812.011883881     A.U. after   11 cycles
 SCF Done:  E(RB3LYP) =  -812.011949579     A.U. after   11 cycles
 SCF Done:  E(RB3LYP) =  -812.012054039     A.U. after   11 cycles
 SCF Done:  E(RB3LYP) =  -812.012091539     A.U. after    9 cycles
 SCF Done:  E(RB3LYP) =  -812.012108778     A.U. after    9 cycles
 SCF Done:  E(RB3LYP) =  -812.012121049     A.U. after   10 cycles
 SCF Done:  E(RB3LYP) =  -812.012126105     A.U. after    9 cycles
 SCF Done:  E(RB3LYP) =  -812.012128267     A.U. after    8 cycles
 SCF Done:  E(RB3LYP) =  -812.012129159     A.U. after    8 cycles
 SCF Done:  E(RB3LYP) =  -812.012129235     A.U. after    7 cycles
 SCF Done:  E(RB3LYP) =  -812.012129313     A.U. after    7 cycles
 Optimization completed.
    -- Stationary point found.
 Normal termination of Gaussian 16 at Fri Dec 11 13:16:32 2020.

 --------------------------------------------------------------------
 #N Geom=AllCheck Guess=TCheck SCRF=Check GenChk RB3LYP/6-31G(d) Freq
 --------------------------------------------------------------------

 Structure from the checkpoint file:  "JID_7681.chk"
 -------------------------------
 CID_141582454_JID_7681_neutraal
 -------------------------------
 Charge =  0 Multiplicity = 1

 SCF Done:  E(RB3LYP) =  -812.012129313     A.U. after    1 cycles

  Exact polarizability: 171.754   0.444 135.792   1.994  -2.846 135.300
 Approx polarizability: 209.915   3.650 194.538   2.243  -0.367 208.674

                      1                      2                      3
                      A                      A                      A
 Frequencies --     20.6128                25.1166                40.8347
 Red. masses --      3.7902                 4.7012                 3.9273
 Frc consts  --      0.0009                 0.0017                 0.0039
 IR Inten    --      0.3712                 0.4617                 1.5496

                      4                      5                      6
                      A                      A                      A
 Frequencies --     47.4180                86.7368                99.5974
 Red. masses --      5.5183                 3.7411                 3.7442
 Frc consts  --      0.0073                 0.0166                 0.0219
 IR Inten    --      0.4042                 1.9625                 1.0278

                      7                      8                      9
                      A                      A                      A
 Frequencies --    112.4998               135.8274               193.4856
 Red. masses --      3.9646                 3.2510                 2.6920
 Frc consts  --      0.0296                 0.0353                 0.0594
 IR Inten    --      2.0018                 2.6882                 1.2238

                     10                     11                     12
                      A                      A                      A
 Frequencies --    200.2899               211.1377               221.4825
 Red. masses --      3.1371                 2.2557                 1.2934
 Frc consts  --      0.0741                 0.0592                 0.0374
 IR Inten    --      1.7143                 2.3908                 0.4582

                     13                     14                     15
                      A                      A                      A
 Frequencies --    223.6680               242.3283               248.1998
 Red. masses --      2.7747                 1.7036                 1.1310
 Frc consts  --      0.0818                 0.0589                 0.0410
 IR Inten    --      1.5806                 0.3975                11.2236

                     16                     17                     18
                      A                      A                      A
 Frequencies --    259.2245               268.5261               284.6488
 Red. masses --      1.7235                 1.7588                 2.0814
 Frc consts  --      0.0682                 0.0747                 0.0994
 IR Inten    --      4.5129                 3.0686                 1.0625

                     19                     20                     21
                      A                      A                      A
 Frequencies --    297.0524               308.9137               311.7888
 Red. masses --      1.1868                 1.8370                 1.1766
 Frc consts  --      0.0617                 0.1033                 0.0674
 IR Inten    --      9.7089                21.6078                22.1700

                     22                     23                     24
                      A                      A                      A
 Frequencies --    322.2189               340.4811               343.0586
 Red. masses --      1.3675                 1.8766                 1.7708
 Frc consts  --      0.0837                 0.1282                 0.1228
 IR Inten    --    105.1596                54.7257                44.9150

                     25                     26                     27
                      A                      A                      A
 Frequencies --    362.5860               369.1522               391.7725
 Red. masses --      2.0943                 2.2395                 2.1671
 Frc consts  --      0.1622                 0.1798                 0.1960
 IR Inten    --      7.9812                 5.0363                 5.2377

                     28                     29                     30
                      A                      A                      A
 Frequencies --    407.2416               415.8346               472.4769
 Red. masses --      2.5012                 2.1565                 2.6377
 Frc consts  --      0.2444                 0.2197                 0.3469
 IR Inten    --      2.3452                 5.4803                 3.2650

                     31                     32                     33
                      A                      A                      A
 Frequencies --    527.8987               529.2963               542.9107
 Red. masses --      3.2023                 3.0251                 3.8041
 Frc consts  --      0.5258                 0.4993                 0.6606
 IR Inten    --      6.6364                 1.8301                 6.4655

                     34                     35                     36
                      A                      A                      A
 Frequencies --    558.1377               601.5375               722.6316
 Red. masses --      3.4281                 3.6854                 3.5301
 Frc consts  --      0.6292                 0.7857                 1.0861
 IR Inten    --      0.6553                 3.2974                 7.3406

                     37                     38                     39
                      A                      A                      A
 Frequencies --    768.1017               793.3004               852.9381
 Red. masses --      3.7645                 2.9376                 2.7060
 Frc consts  --      1.3086                 1.0892                 1.1599
 IR Inten    --      3.7814                 3.7775                 0.6009

                     40                     41                     42
                      A                      A                      A
 Frequencies --    887.7983               895.8106               912.4984
 Red. masses --      2.3787                 2.0859                 2.2155
 Frc consts  --      1.1046                 0.9862                 1.0869
 IR Inten    --      9.2659                 6.4439                 4.4417

                     43                     44                     45
                      A                      A                      A
 Frequencies --    922.5805               931.2992               951.6221
 Red. masses --      1.8013                 1.7244                 1.6137
 Frc consts  --      0.9033                 0.8812                 0.8610
 IR Inten    --      4.0336                 7.4696                 6.9506

                     46                     47                     48
                      A                      A                      A
 Frequencies --    957.7681               965.1116               971.3429
 Red. masses --      1.5009                 1.3877                 2.0439
 Frc consts  --      0.8112                 0.7616                 1.1362
 IR Inten    --      1.9532                 4.3781                 3.9958

                     49                     50                     51
                      A                      A                      A
 Frequencies --    998.8264              1011.4344              1033.3919
 Red. masses --      1.6648                 1.7416                 1.7073
 Frc consts  --      0.9786                 1.0497                 1.0742
 IR Inten    --     18.0565                 8.9076                 8.4318

                     52                     53                     54
                      A                      A                      A
 Frequencies --   1047.6583              1060.5926              1066.5169
 Red. masses --      1.8169                 1.4077                 1.7904
 Frc consts  --      1.1750                 0.9330                 1.1999
 IR Inten    --     11.8661                12.7381                59.7119

                     55                     56                     57
                      A                      A                      A
 Frequencies --   1083.3616              1091.1226              1112.4078
 Red. masses --      4.5289                 4.1837                 1.7618
 Frc consts  --      3.1318                 2.9346                 1.2845
 IR Inten    --    101.3950                58.8001                28.3262

                     58                     59                     60
                      A                      A                      A
 Frequencies --   1152.0638              1161.4131              1172.2819
 Red. masses --      1.5940                 2.1102                 1.4007
 Frc consts  --      1.2465                 1.6771                 1.1341
 IR Inten    --     15.8940                67.6332                18.7847

                     61                     62                     63
                      A                      A                      A
 Frequencies --   1220.1928              1232.4025              1250.7350
 Red. masses --      1.9891                 1.8120                 2.4733
 Frc consts  --      1.7449                 1.6215                 2.2796
 IR Inten    --     25.6498                 7.9714               105.7379

                     64                     65                     66
                      A                      A                      A
 Frequencies --   1269.8490              1278.1763              1293.8356
 Red. masses --      2.1321                 2.3147                 2.3554
 Frc consts  --      2.0256                 2.2280                 2.3231
 IR Inten    --     54.7346               186.4698                70.4764

                     67                     68                     69
                      A                      A                      A
 Frequencies --   1306.0701              1315.7043              1325.9817
 Red. masses --      1.7967                 1.6330                 1.5630
 Frc consts  --      1.8057                 1.6655                 1.6191
 IR Inten    --      8.3757                 2.1856                10.2285

                     70                     71                     72
                      A                      A                      A
 Frequencies --   1340.9677              1387.1931              1394.2820
 Red. masses --      1.3737                 1.3793                 1.2587
 Frc consts  --      1.4554                 1.5638                 1.4417
 IR Inten    --      3.0489                 8.9016                 1.1457

                     73                     74                     75
                      A                      A                      A
 Frequencies --   1397.3782              1416.0754              1423.3482
 Red. masses --      1.3285                 1.3338                 1.4505
 Frc consts  --      1.5284                 1.5758                 1.7313
 IR Inten    --      7.1104                 3.5234                 4.8380

                     76                     77                     78
                      A                      A                      A
 Frequencies --   1427.6930              1429.3936              1432.8113
 Red. masses --      1.2666                 1.2259                 1.2295
 Frc consts  --      1.5211                 1.4757                 1.4872
 IR Inten    --     12.5504                14.3718                16.5391

                     79                     80                     81
                      A                      A                      A
 Frequencies --   1435.2288              1449.2545              1457.2229
 Red. masses --      1.2871                 1.2414                 1.2359
 Frc consts  --      1.5620                 1.5362                 1.5462
 IR Inten    --     16.0662                 1.7843                14.9965

                     82                     83                     84
                      A                      A                      A
 Frequencies --   1459.2886              1506.0502              1515.3711
 Red. masses --      1.2699                 1.0840                 1.0589
 Frc consts  --      1.5933                 1.4487                 1.4326
 IR Inten    --     21.7531                 3.6007                 1.6609

                     85                     86                     87
                      A                      A                      A
 Frequencies --   1517.1334              1521.3131              1524.4404
 Red. masses --      1.0560                 1.0676                 1.0553
 Frc consts  --      1.4321                 1.4558                 1.4449
 IR Inten    --      6.5398                 1.6941                 7.5899

                     88                     89                     90
                      A                      A                      A
 Frequencies --   1526.1531              1526.8267              1530.1721
 Red. masses --      1.0574                 1.0559                 1.0505
 Frc consts  --      1.4510                 1.4502                 1.4491
 IR Inten    --      7.5567                 4.7940                10.9918

                     91                     92                     93
                      A                      A                      A
 Frequencies --   1532.7807              1534.5673              1538.2229
 Red. masses --      1.0669                 1.0622                 1.0603
 Frc consts  --      1.4769                 1.4738                 1.4782
 IR Inten    --      3.7302                 7.3951                 8.6293

                     94                     95                     96
                      A                      A                      A
 Frequencies --   1548.4568              1549.0802              1555.2578
 Red. masses --      1.0633                 1.0600                 1.0628
 Frc consts  --      1.5021                 1.4986                 1.5146
 IR Inten    --     15.1864                15.8221                 9.8853

                     97                     98                     99
                      A                      A                      A
 Frequencies --   1808.5879              2993.2082              3002.2670
 Red. masses --     11.9517                 1.0745                 1.0721
 Frc consts  --     23.0334                 5.6720                 5.6934
 IR Inten    --    174.5269                61.0182                64.1547

                    100                    101                    102
                      A                      A                      A
 Frequencies --   3019.9815              3032.3732              3040.5437
 Red. masses --      1.0819                 1.0377                 1.0359
 Frc consts  --      5.8136                 5.6221                 5.6426
 IR Inten    --     11.1306                33.3294                24.7853

                    103                    104                    105
                      A                      A                      A
 Frequencies --   3049.5555              3053.5634              3066.2880
 Red. masses --      1.0369                 1.0404                 1.0518
 Frc consts  --      5.6812                 5.7158                 5.8265
 IR Inten    --     24.2418                21.6688                31.0920

                    106                    107                    108
                      A                      A                      A
 Frequencies --   3069.0026              3075.3844              3093.0620
 Red. masses --      1.0448                 1.0622                 1.0996
 Frc consts  --      5.7980                 5.9193                 6.1980
 IR Inten    --      8.6661                23.6348                35.2051

                    109                    110                    111
                      A                      A                      A
 Frequencies --   3103.5309              3106.6461              3109.5246
 Red. masses --      1.1005                 1.1038                 1.1024
 Frc consts  --      6.2456                 6.2766                 6.2802
 IR Inten    --     31.4897                11.2000                10.0100

                    112                    113                    114
                      A                      A                      A
 Frequencies --   3114.3775              3116.1568              3118.1441
 Red. masses --      1.0991                 1.1015                 1.0987
 Frc consts  --      6.2812                 6.3017                 6.2938
 IR Inten    --     10.1610                36.6388                51.6680

                    115                    116                    117
                      A                      A                      A
 Frequencies --   3128.5522              3131.6375              3134.4811
 Red. masses --      1.0943                 1.1019                 1.0991
 Frc consts  --      6.3107                 6.3673                 6.3624
 IR Inten    --      6.4062                42.8880                41.2195

                    118                    119                    120
                      A                      A                      A
 Frequencies --   3137.1334              3140.3154              3145.1426
 Red. masses --      1.1033                 1.1013                 1.0974
 Frc consts  --      6.3973                 6.3990                 6.3961
 IR Inten    --     19.1318                10.8607                21.1032

                    121                    122                    123
                      A                      A                      A
 Frequencies --   3158.5600              3749.3100              3753.4616
 Red. masses --      1.0934                 1.0658                 1.0660
 Frc consts  --      6.4269                 8.8272                 8.8485
 IR Inten    --     29.8893                11.2599                12.2289

 - Thermochemistry -
 -------------------
 Temperature   298.150 Kelvin.  Pressure   1.00000 Atm.
 Atom     1 has atomic number  6 and mass  12.00000

 Molecular mass:   246.18311 amu.
 Principal axes and moments of inertia in atomic units:
                           1         2         3
     Eigenvalues --  2331.262497325.552677634.11349
           X            0.99995  -0.00167   0.00958
           Y            0.00308   0.98884  -0.14892
           Z           -0.00922   0.14894   0.98880
 This molecule is an asymmetric top.
 Rotational symmetry number  1.
 Warning -- assumption of classical behavior for rotation
           may cause significant error
 Rotational temperatures (Kelvin)      0.03715     0.01182     0.01135
 Rotational constants (GHZ):           0.77415     0.24636     0.23640
 Zero-point vibrational energy    1013043.0 (Joules/Mol)
                                  242.12310 (Kcal/Mol)
 Warning -- explicit consideration of  35 degrees of freedom as
           vibrations may cause significant error
 Vibrational temperatures:     29.66    36.14    58.75    68.22   124.79
          (Kelvin)            143.30   161.86   195.43   278.38   288.17
                              303.78   318.66   321.81   348.66   357.10
                              372.97   386.35   409.55   427.39   444.46
                              448.59   463.60   489.88   493.58   521.68
                              531.13   563.67   585.93   598.29   679.79
                              759.53   761.54   781.13   803.04   865.48
                             1039.71  1105.13  1141.38  1227.19  1277.34
                             1288.87  1312.88  1327.39  1339.93  1369.17
                             1378.01  1388.58  1397.55  1437.09  1455.23
                             1486.82  1507.35  1525.96  1534.48  1558.72
                             1569.88  1600.51  1657.56  1671.01  1686.65
                             1755.59  1773.15  1799.53  1827.03  1839.01
                             1861.54  1879.14  1893.01  1907.79  1929.35
                             1995.86  2006.06  2010.52  2037.42  2047.88
                             2054.13  2056.58  2061.50  2064.97  2085.15
                             2096.62  2099.59  2166.87  2180.28  2182.82
                             2188.83  2193.33  2195.79  2196.76  2201.58
                             2205.33  2207.90  2213.16  2227.88  2228.78
                             2237.67  2602.15  4306.56  4319.59  4345.08
                             4362.91  4374.66  4387.63  4393.40  4411.70
                             4415.61  4424.79  4450.23  4465.29  4469.77
                             4473.91  4480.89  4483.45  4486.31  4501.29
                             4505.73  4509.82  4513.64  4518.21  4525.16
                             4544.46  5394.42  5400.39

 Zero-point correction=                           0.385848 (Hartree/Particle)
 Thermal correction to Energy=                    0.406649
 Thermal correction to Enthalpy=                  0.407593
 Thermal correction to Gibbs Free Energy=         0.336247
 Sum of electronic and zero-point Energies=           -811.626282
 Sum of electronic and thermal Energies=              -811.605480
 Sum of electronic and thermal Enthalpies=            -811.604536
 Sum of electronic and thermal Free Energies=         -811.675882

                     E (Thermal)             CV                S
                      KCal/Mol        Cal/Mol-Kelvin    Cal/Mol-Kelvin
 Total                  255.176             77.895            150.160
 Electronic               0.000              0.000              0.000
 Translational            0.889              2.981             42.403
 Rotational               0.889              2.981             33.233
 Vibrational            253.399             71.934             74.524
 Vibration     1          0.593              1.986              6.574
 Vibration     2          0.593              1.985              6.182
 Vibration     3          0.594              1.981              5.218
 Vibration     4          0.595              1.979              4.922
 Vibration     5          0.601              1.958              3.732
 Vibration     6          0.604              1.949              3.462
 Vibration     7          0.607              1.939              3.225
 Vibration     8          0.614              1.918              2.862
 Vibration     9          0.635              1.849              2.194
 Vibration    10          0.638              1.839              2.130
 Vibration    11          0.643              1.824              2.034
 Vibration    12          0.648              1.808              1.947
 Vibration    13          0.649              1.805              1.929
 Vibration    14          0.659              1.775              1.786
 Vibration    15          0.662              1.766              1.743
 Vibration    16          0.668              1.747              1.667
 Vibration    17          0.673              1.731              1.606
 Vibration    18          0.683              1.702              1.506
 Vibration    19          0.691              1.679              1.433
 Vibration    20          0.698              1.657              1.368
 Vibration    21          0.700              1.651              1.353
 Vibration    22          0.707              1.631              1.299
 Vibration    23          0.720              1.595              1.210
 Vibration    24          0.722              1.589              1.198
 Vibration    25          0.736              1.549              1.111
 Vibration    26          0.741              1.536              1.083
 Vibration    27          0.759              1.488              0.993
 Vibration    28          0.772              1.454              0.936
 Vibration    29          0.779              1.436              0.906
 Vibration    30          0.829              1.311              0.731
 Vibration    31          0.883              1.188              0.592
 Vibration    32          0.884              1.185              0.589
 Vibration    33          0.898              1.155              0.559
 Vibration    34          0.914              1.122              0.528
 Vibration    35          0.960              1.029              0.447

                           ! Non-Optimized Parameters !
 Normal termination of Gaussian 16 at Fri Dec 11 13:39:40 2020.

 ----------------------------------------------------------------------
 # B3LYP/6-311++G(d,p) empiricaldispersion=gd3bj scf=xqc pop=npa geom=c
 heck
 ----------------------------------------------------------------------

 ---------------------------------------
 CID_141582454_JID_7681_Energie_neutraal
 ---------------------------------------
 Structure from the checkpoint file:  "JID_7681.chk"
 Charge =  0 Multiplicity = 1

 SCF Done:  E(RB3LYP) =  -812.267041196     A.U. after   14 cycles
 Normal termination of Gaussian 16 at Fri Dec 11 13:50:18 2020.

 ----------------------------------------------------------------------
 # B3LYP/6-311++G(d,p) empiricaldispersion=gd3bj scf=xqc pop=npa geom=c
 heck
 ----------------------------------------------------------------------

 -------------------------------------
 CID_141582454_JID_7681_Energie_kation
 -------------------------------------
 Structure from the checkpoint file:  "JID_7681.chk"
 Charge =  1 Multiplicity = 2

 SCF Done:  E(UB3LYP) =  -811.936221702     A.U. after   24 cycles
 Normal termination of Gaussian 16 at Fri Dec 11 14:15:15 2020.
 Gaussian 16:  ES64L-G16RevA.03 25-Dec-2016

 ----------------------------------------------------------------------
 # B3LYP/6-311++G(d,p) empiricaldispersion=gd3bj scf=xqc pop=npa geom=c
 heck
 ----------------------------------------------------------------------

 ------------------------------------
 CID_141582454_JID_7681_Energie_anion
 ------------------------------------
 Structure from the checkpoint file:  "JID_7681.chk"
 Charge = -1 Multiplicity = 2

                         Standard orientation:
 ---------------------------------------------------------------------
 Center     Atomic      Atomic             Coordinates (Angstroms)
 Number     Number       Type             X           Y           Z
 ---------------------------------------------------------------------
      1          6           0       -0.973144   -1.426142    1.649260
      2          6           0       -1.192633   -1.648895    0.148414
      3          6           0       -2.454670   -0.985105   -0.458226
      4          6           0       -2.643607    0.552126   -0.407309
      5          6           0       -1.414420    1.326856   -0.907588
      6          6           0       -3.839092    0.879653   -1.325806
      7          6           0       -2.974324    1.052815    1.016683
      8          8           0       -4.009841    0.327607    1.672852
      9          6           0        0.023458   -1.353942   -0.720540
     10          8           0        0.049517   -1.493875   -1.925863
     11          8           0        1.085767   -0.920182   -0.008635
     12          6           0        2.236486   -0.514512   -0.773676
     13          6           0        3.247476    0.120563    0.182036
     14          6           0        3.714333   -0.897823    1.232916
     15          6           0        4.445680    0.599537   -0.653608
     16          6           0        2.593945    1.312171    0.913276
     17          8           0        2.001721    2.271826    0.045752
     18          1           0       -0.585748   -0.428016    1.863264
     19          1           0       -0.247991   -2.144169    2.044992
     20          1           0       -1.917893   -1.549571    2.187019
     21          1           0       -1.360482   -2.725332   -0.002493
     22          1           0       -2.483866   -1.290158   -1.509681
     23          1           0       -3.323128   -1.436816    0.032867
     24          1           0       -1.135296    1.006786   -1.916194
     25          1           0       -1.626058    2.402532   -0.941347
     26          1           0       -0.542030    1.193653   -0.260873
     27          1           0       -4.740876    0.325203   -1.033735
     28          1           0       -4.072974    1.951048   -1.299538
     29          1           0       -3.619150    0.608913   -2.364045
     30          1           0       -2.104346    0.963413    1.667917
     31          1           0       -3.225159    2.124846    0.960140
     32          1           0       -4.828203    0.469606    1.173246
     33          1           0        2.658779   -1.390039   -1.278482
     34          1           0        1.911997    0.198957   -1.534318
     35          1           0        4.217937   -1.745879    0.754743
     36          1           0        4.422683   -0.440389    1.933714
     37          1           0        2.866625   -1.286417    1.805196
     38          1           0        4.144969    1.329814   -1.415119
     39          1           0        5.203178    1.064699   -0.012027
     40          1           0        4.921337   -0.236751   -1.178034
     41          1           0        1.777471    0.947680    1.540810
     42          1           0        3.341261    1.781903    1.572673
     43          1           0        2.712731    2.717677   -0.438544
 ---------------------------------------------------------------------

 SCF Done:  E(UB3LYP) =  -812.257147593     A.U. after   31 cycles

 The electronic state is 2-A.
 Alpha  occ. eigenvalues --  -19.07601 -19.03408 -19.02932 -19.01782 -10.20834
 Alpha  occ. eigenvalues --  -10.12981 -10.12115 -10.11975 -10.10232 -10.09682
 Alpha  occ. eigenvalues --  -10.09406 -10.07758 -10.07314 -10.07202 -10.07082
 Alpha  occ. eigenvalues --  -10.07043 -10.06210  -1.01723  -0.93447  -0.93193
 Alpha  occ. eigenvalues --   -0.92729  -0.74420  -0.73422  -0.69858  -0.62118
 Alpha  occ. eigenvalues --   -0.60463  -0.60373  -0.59559  -0.58558  -0.58316
 Alpha  occ. eigenvalues --   -0.54086  -0.48360  -0.46241  -0.45616  -0.42831
 Alpha  occ. eigenvalues --   -0.41380  -0.41056  -0.39554  -0.38360  -0.38151
 Alpha  occ. eigenvalues --   -0.37010  -0.35931  -0.35513  -0.34652  -0.33694
 Alpha  occ. eigenvalues --   -0.33502  -0.31502  -0.30739  -0.30333  -0.29723
 Alpha  occ. eigenvalues --   -0.29304  -0.29071  -0.28996  -0.28738  -0.28336
 Alpha  occ. eigenvalues --   -0.27510  -0.26848  -0.25680  -0.25513  -0.24355
 Alpha  occ. eigenvalues --   -0.23970  -0.23445  -0.23244  -0.21739  -0.21405
 Alpha  occ. eigenvalues --   -0.18929  -0.18359  -0.18168   0.03857
 Alpha virt. eigenvalues --    0.05100   0.06559   0.07400   0.07704   0.07931
 Alpha virt. eigenvalues --    0.08423   0.08774   0.09578   0.09647   0.09850
 Alpha virt. eigenvalues --    0.10461   0.10818   0.11208   0.11349   0.12247

  Beta  occ. eigenvalues --  -19.07597 -19.03381 -19.02900 -19.01777 -10.20829
  Beta  occ. eigenvalues --  -10.12969 -10.12105 -10.11955 -10.10229 -10.09681
  Beta  occ. eigenvalues --  -10.09406 -10.07748 -10.07305 -10.07170 -10.07059
  Beta  occ. eigenvalues --  -10.06989 -10.06202  -1.01715  -0.93390  -0.93148
  Beta  occ. eigenvalues --   -0.92699  -0.74404  -0.73400  -0.69841  -0.62090
  Beta  occ. eigenvalues --   -0.60430  -0.60294  -0.59520  -0.58492  -0.58279
  Beta  occ. eigenvalues --   -0.54054  -0.48322  -0.46191  -0.45577  -0.42788
  Beta  occ. eigenvalues --   -0.41329  -0.41030  -0.39522  -0.38336  -0.38125
  Beta  occ. eigenvalues --   -0.36976  -0.35901  -0.35475  -0.34625  -0.33670
  Beta  occ. eigenvalues --   -0.33471  -0.31481  -0.30714  -0.30307  -0.29699
  Beta  occ. eigenvalues --   -0.29270  -0.29040  -0.28972  -0.28708  -0.28309
  Beta  occ. eigenvalues --   -0.27488  -0.26825  -0.25656  -0.25480  -0.24327
  Beta  occ. eigenvalues --   -0.23949  -0.23427  -0.23209  -0.21718  -0.21389
  Beta  occ. eigenvalues --   -0.18913  -0.18326  -0.18148
  Beta virt. eigenvalues --    0.05838   0.06358   0.06991   0.07844   0.08128
  Beta virt. eigenvalues --    0.08385   0.08770   0.08968   0.09728   0.09870
  Beta virt. eigenvalues --    0.10284   0.10619   0.10986   0.11268   0.11591

 Mulliken charges and spin densities:
               1          2
     1  C   -0.215532  -0.492535
     2  C    0.789102  -0.051448
     3  C    0.348495  -1.003397
     4  C   -1.032187   1.532711
     5  C   -0.737853  -0.033539
     6  C    0.715955  -1.070431
     7  C   -0.016162  -0.516433
     8  O   -0.208686   0.022733
     9  C   -0.759381   0.074480
    10  O   -0.193484   0.011218
    11  O    0.163100   0.015669
    12  C    0.659800  -1.272635
    13  C   -2.285644   2.745873
    14  C    0.540703  -1.018837
    15  C    0.873415  -1.315850
    16  C    0.320474  -0.964817
    17  O   -0.139024  -0.013478
    18  H    0.155019  -0.010162
    19  H   -0.018693   0.183513
    20  H    0.126221   0.055039
    21  H    0.009024   0.219016
    22  H    0.185042   0.024486
    23  H    0.221969  -0.035544
    24  H    0.074678   0.112564
    25  H    0.001315   0.167217
    26  H    0.449478  -0.342836
    27  H   -0.293425   0.426860
    28  H   -0.126420   0.272051
    29  H    0.077302   0.071378
    30  H    0.125609   0.064429
    31  H    0.039853   0.104171
    32  H   -0.003562   0.258764
    33  H    0.137710   0.061306
    34  H    0.310515  -0.082330
    35  H   -0.105440   0.254706
    36  H   -0.150547   0.306152
    37  H    0.153320  -0.018563
    38  H   -0.277067   0.401136
    39  H   -0.561021   0.740173
    40  H   -0.197238   0.340412
    41  H    0.097981   0.103020
    42  H   -0.243740   0.404171
    43  H   -0.010975   0.269586
 Sum of Mulliken charges =  -1.00000   1.00000

 Dipole moment (field-independent basis, Debye):
    X=             -2.9251    Y=             -2.8774    Z=              0.3363  Tot=              4.1169
 Quadrupole moment (field-independent basis, Debye-Ang):
   XX=           -219.0900   YY=           -147.6797   ZZ=           -146.1147
   XY=             -8.4175   XZ=              2.3358   YZ=             -1.8066

 Summary of Natural Population Analysis:

                                       Natural Population
                Natural  -----------------------------------------------
    Atom  No    Charge         Core      Valence    Rydberg      Total
 -----------------------------------------------------------------------
      C    1   -0.28763      0.99965     2.28294    0.00504     3.28763
      C    2   -0.15237      0.99955     2.14292    0.00990     3.15237
      C    3   -0.18613      0.99957     2.17498    0.01159     3.18613
      C    4   -0.05938      0.99957     2.04822    0.01159     3.05938
      C    5   -0.29278      0.99962     2.28598    0.00719     3.29278
      C    6   -0.28746      0.99963     2.27980    0.00803     3.28746
      C    7   -0.00696      0.99952     1.99360    0.01385     3.00696
      O    8   -0.37113      0.99990     3.36465    0.00658     4.37113
      C    9    0.42029      0.99964     1.55568    0.02438     2.57971
      O   10   -0.31247      0.99987     3.30756    0.00504     4.31247
      O   11   -0.28510      0.99985     3.27646    0.00879     4.28510
      C   12   -0.01464      0.99948     2.00133    0.01383     3.01464
      C   13   -0.07143      0.99957     2.05894    0.01291     3.07143
      C   14   -0.28659      0.99962     2.27984    0.00713     3.28659
      C   15   -0.28918      0.99962     2.28155    0.00801     3.28918
      C   16   -0.00589      0.99952     1.99230    0.01407     3.00589
      O   17   -0.36999      0.99990     3.36326    0.00684     4.36999
      H   18    0.10087      0.00000     0.39787    0.00126     0.39913
      H   19    0.10153      0.00000     0.39759    0.00088     0.39847
      H   20    0.10587      0.00000     0.39326    0.00087     0.39413
      H   21    0.11030      0.00000     0.38822    0.00149     0.38970
      H   22    0.10750      0.00000     0.39129    0.00121     0.39250
      H   23    0.10640      0.00000     0.39241    0.00118     0.39360
      H   24    0.10647      0.00000     0.39265    0.00088     0.39353
      H   25    0.10113      0.00000     0.39809    0.00078     0.39887
      H   26    0.10759      0.00000     0.39078    0.00163     0.39241
      H   27    0.09720      0.00000     0.40141    0.00139     0.40280
      H   28    0.09973      0.00000     0.39932    0.00095     0.40027
      H   29    0.10252      0.00000     0.39667    0.00081     0.39748
      H   30    0.08940      0.00000     0.40910    0.00150     0.41060
      H   31    0.07765      0.00000     0.42128    0.00108     0.42235
      H   32    0.22913      0.00000     0.26701    0.00386     0.27087
      H   33    0.09292      0.00000     0.40606    0.00103     0.40708
      H   34    0.10275      0.00000     0.39585    0.00140     0.39725
      H   35    0.10096      0.00000     0.39817    0.00087     0.39904
      H   36    0.10221      0.00000     0.39679    0.00100     0.39779
      H   37    0.10469      0.00000     0.39419    0.00112     0.39531
      H   38    0.10055      0.00000     0.39772    0.00173     0.39945
      H   39    0.10617      0.00000     0.39183    0.00200     0.39383
      H   40    0.10303      0.00000     0.39575    0.00122     0.39697
      H   41    0.09057      0.00000     0.40775    0.00167     0.40943
      H   42    0.08071      0.00000     0.41791    0.00138     0.41929
      H   43    0.23099      0.00000     0.26469    0.00432     0.26901
 =======================================================================
   * Total *    0.00000     16.99408    50.79364    0.21228    68.00000

 Normal termination of Gaussian 16 at Fri Dec 11 14:47:12 2020.
