 Gaussian 16, Revision A.03,

 -----------------------------------------------------------
 # opt freq B3LYP/6-31G(d) empiricaldispersion=gd3bj scf=xqc
 -----------------------------------------------------------

 ------------------------------
 CID_12280294_JID_2863_neutraal
 ------------------------------
 Symbolic Z-matrix:
 Charge =  0 Multiplicity = 1

 SCF Done:  E(RB3LYP) =  -1619.03203621     A.U. after   15 cycles
 SCF Done:  E(RB3LYP) =  -1619.03820650     A.U. after   13 cycles
 SCF Done:  E(RB3LYP) =  -1619.03906878     A.U. after   12 cycles
 SCF Done:  E(RB3LYP) =  -1619.04078515     A.U. after   15 cycles
 SCF Done:  E(RB3LYP) =  -1619.04204210     A.U. after   15 cycles
 SCF Done:  E(RB3LYP) =  -1619.04405132     A.U. after   12 cycles
 SCF Done:  E(RB3LYP) =  -1619.04466881     A.U. after   12 cycles
 SCF Done:  E(RB3LYP) =  -1619.04556808     A.U. after   13 cycles
 SCF Done:  E(RB3LYP) =  -1619.04639557     A.U. after   12 cycles
 SCF Done:  E(RB3LYP) =  -1619.04651463     A.U. after   11 cycles
 SCF Done:  E(RB3LYP) =  -1619.04669577     A.U. after   11 cycles
 SCF Done:  E(RB3LYP) =  -1619.04670265     A.U. after   10 cycles
 SCF Done:  E(RB3LYP) =  -1619.04670595     A.U. after   11 cycles
 SCF Done:  E(RB3LYP) =  -1619.04670626     A.U. after    9 cycles
 SCF Done:  E(RB3LYP) =  -1619.04670628     A.U. after    7 cycles
 Optimization completed.
    -- Stationary point found.
 Normal termination of Gaussian 16 at Wed Dec  9 18:14:04 2020.

 --------------------------------------------------------------------
 #N Geom=AllCheck Guess=TCheck SCRF=Check GenChk RB3LYP/6-31G(d) Freq
 --------------------------------------------------------------------

 Structure from the checkpoint file:  "JID_2863.chk"
 ------------------------------
 CID_12280294_JID_2863_neutraal
 ------------------------------
 Charge =  0 Multiplicity = 1

 SCF Done:  E(RB3LYP) =  -1619.04670628     A.U. after    1 cycles

  Exact polarizability: 146.207   0.000 123.503  11.086  -0.001 107.436
 Approx polarizability: 194.238   0.001 196.807  25.340  -0.006 188.340

                      1                      2                      3
                      A                      A                      A
 Frequencies --     15.1956                54.6374                75.3854
 Red. masses --      5.0948                 3.4618                 7.7522
 Frc consts  --      0.0007                 0.0061                 0.0260
 IR Inten    --      0.5518                 0.0023                 0.5552

                      4                      5                      6
                      A                      A                      A
 Frequencies --    126.1205               167.2716               185.6185
 Red. masses --      2.9979                 5.6830                 4.0279
 Frc consts  --      0.0281                 0.0937                 0.0818
 IR Inten    --      0.0019                 4.2784                 2.7263

                      7                      8                      9
                      A                      A                      A
 Frequencies --    200.4640               220.1761               234.0457
 Red. masses --      6.9632                 5.4142                 1.1927
 Frc consts  --      0.1649                 0.1546                 0.0385
 IR Inten    --      0.5492                 1.1457                 0.3525

                     10                     11                     12
                      A                      A                      A
 Frequencies --    245.6293               275.9420               291.1839
 Red. masses --      1.0842                 3.5409                 3.2814
 Frc consts  --      0.0385                 0.1589                 0.1639
 IR Inten    --      0.0436                 8.1051                 0.6855

                     13                     14                     15
                      A                      A                      A
 Frequencies --    291.6606               333.8973               383.2809
 Red. masses --      5.9649                 6.1032                 2.9420
 Frc consts  --      0.2990                 0.4009                 0.2546
 IR Inten    --      1.3895                11.0667                 1.7717

                     16                     17                     18
                      A                      A                      A
 Frequencies --    411.7365               432.1461               496.7432
 Red. masses --      6.4707                 3.7831                 2.8330
 Frc consts  --      0.6463                 0.4163                 0.4119
 IR Inten    --      0.2597                 6.0773                 5.9682

                     19                     20                     21
                      A                      A                      A
 Frequencies --    648.1771               656.5219               680.2336
 Red. masses --      6.5034                 6.6022                 9.3704
 Frc consts  --      1.6098                 1.6766                 2.5546
 IR Inten    --     10.9167                 3.6975                11.9977

                     22                     23                     24
                      A                      A                      A
 Frequencies --    691.9063               723.8542               732.5974
 Red. masses --      4.7194                 6.9581                 5.3245
 Frc consts  --      1.3312                 2.1480                 1.6837
 IR Inten    --     21.1490                11.6754                20.4085

                     25                     26                     27
                      A                      A                      A
 Frequencies --    749.1964               810.3095               814.5709
 Red. masses --      4.4122                 1.4854                 8.1741
 Frc consts  --      1.4591                 0.5746                 3.1956
 IR Inten    --     12.3096                 0.1466                 1.7674

                     28                     29                     30
                      A                      A                      A
 Frequencies --    815.3000               902.7593               933.4813
 Red. masses --      4.3073                 2.1847                 2.8046
 Frc consts  --      1.6869                 1.0490                 1.4399
 IR Inten    --      7.4277                 8.2437                34.9253

                     31                     32                     33
                      A                      A                      A
 Frequencies --    951.0030               959.5050               973.6815
 Red. masses --      1.2220                 1.3716                 3.5884
 Frc consts  --      0.6512                 0.7440                 2.0044
 IR Inten    --      1.3603                 0.2341                 9.4581

                     34                     35                     36
                      A                      A                      A
 Frequencies --   1161.0876              1170.3042              1173.5437
 Red. masses --      1.0477                 1.5936                 2.1519
 Frc consts  --      0.8322                 1.2859                 1.7461
 IR Inten    --      1.7666                 6.0976                 9.7169

                     37                     38                     39
                      A                      A                      A
 Frequencies --   1180.8411              1220.4615              1233.2338
 Red. masses --      2.1549                 1.9292                 1.0895
 Frc consts  --      1.7704                 1.6931                 0.9762
 IR Inten    --    377.4166                 5.2576                49.9257

                     40                     41                     42
                      A                      A                      A
 Frequencies --   1240.1828              1272.4724              1288.2695
 Red. masses --      1.0907                 1.1500                 1.1563
 Frc consts  --      0.9884                 1.0971                 1.1307
 IR Inten    --      7.5213                 4.0167                 8.7387

                     43                     44                     45
                      A                      A                      A
 Frequencies --   1331.2855              1391.8988              1426.0458
 Red. masses --      2.0348                 1.3171                 1.3613
 Frc consts  --      2.1248                 1.5034                 1.6310
 IR Inten    --    309.8954                 2.6003                34.6122

                     46                     47                     48
                      A                      A                      A
 Frequencies --   1429.7611              1444.1436              1449.4063
 Red. masses --      1.3366                 1.2446                 1.0727
 Frc consts  --      1.6099                 1.5294                 1.3277
 IR Inten    --     19.3366                17.5881                 6.7495

                     49                     50                     51
                      A                      A                      A
 Frequencies --   1464.2925              1510.4728              1521.6362
 Red. masses --      1.0812                 1.0485                 1.0495
 Frc consts  --      1.3659                 1.4094                 1.4317
 IR Inten    --     20.6275                 0.2290                15.4060

                     52                     53                     54
                      A                      A                      A
 Frequencies --   1528.8202              1548.5525              1785.6825
 Red. masses --      1.0487                 1.0552                10.0981
 Frc consts  --      1.4442                 1.4908                18.9713
 IR Inten    --      0.0256                 8.4761               137.1644

                     55                     56                     57
                      A                      A                      A
 Frequencies --   3063.7906              3067.6111              3092.5935
 Red. masses --      1.0379                 1.0393                 1.0857
 Frc consts  --      5.7400                 5.7621                 6.1179
 IR Inten    --     17.3886                12.3281                27.0464

                     58                     59                     60
                      A                      A                      A
 Frequencies --   3107.4877              3109.8352              3128.2202
 Red. masses --      1.0569                 1.0567                 1.1017
 Frc consts  --      6.0132                 6.0213                 6.3522
 IR Inten    --      2.7991                 3.5160                10.0647

                     61                     62                     63
                      A                      A                      A
 Frequencies --   3130.7005              3143.0605              3168.3396
 Red. masses --      1.1021                 1.0855                 1.1011
 Frc consts  --      6.3644                 6.3183                 6.5125
 IR Inten    --     35.9096                 1.0262                 1.3038

                     64                     65                     66
                      A                      A                      A
 Frequencies --   3172.7037              3175.2867              3176.7715
 Red. masses --      1.1003                 1.1105                 1.1096
 Frc consts  --      6.5253                 6.5967                 6.5979
 IR Inten    --     22.1290                 0.2910                 0.0033

 - Thermochemistry -
 -------------------
 Temperature   298.150 Kelvin.  Pressure   1.00000 Atm.
 Atom     1 has atomic number  6 and mass  12.00000

 Molecular mass:   223.99995 amu.
 Principal axes and moments of inertia in atomic units:
                           1         2         3
     Eigenvalues --  1590.381524650.802365001.28499
           X            0.99997  -0.00001  -0.00728
           Y            0.00001   1.00000   0.00001
           Z            0.00728  -0.00001   0.99997
 This molecule is an asymmetric top.
 Rotational symmetry number  1.
 Warning -- assumption of classical behavior for rotation
           may cause significant error
 Rotational temperatures (Kelvin)      0.05446     0.01862     0.01732
 Rotational constants (GHZ):           1.13479     0.38805     0.36086
 Zero-point vibrational energy     495212.3 (Joules/Mol)
                                  118.35857 (Kcal/Mol)
 Warning -- explicit consideration of  18 degrees of freedom as
           vibrations may cause significant error
 Vibrational temperatures:     21.86    78.61   108.46   181.46   240.67
          (Kelvin)            267.06   288.42   316.78   336.74   353.41
                              397.02   418.95   419.63   480.40   551.46
                              592.40   621.76   714.70   932.58   944.59
                              978.70   995.50  1041.46  1054.04  1077.93
                             1165.85  1171.99  1173.03  1298.87  1343.07
                             1368.28  1380.51  1400.91  1670.55  1683.81
                             1688.47  1698.97  1755.97  1774.35  1784.35
                             1830.80  1853.53  1915.42  2002.63  2051.76
                             2057.11  2077.80  2085.37  2106.79  2173.23
                             2189.30  2199.63  2228.02  2569.20  4408.11
                             4413.61  4449.55  4470.98  4474.36  4500.81
                             4504.38  4522.16  4558.53  4564.81  4568.53
                             4570.67

 Zero-point correction=                           0.188616 (Hartree/Particle)
 Thermal correction to Energy=                    0.202231
 Thermal correction to Enthalpy=                  0.203175
 Thermal correction to Gibbs Free Energy=         0.146898
 Sum of electronic and zero-point Energies=          -1618.858090
 Sum of electronic and thermal Energies=             -1618.844475
 Sum of electronic and thermal Enthalpies=           -1618.843531
 Sum of electronic and thermal Free Energies=        -1618.899809

                     E (Thermal)             CV                S
                      KCal/Mol        Cal/Mol-Kelvin    Cal/Mol-Kelvin
 Total                  126.902             49.802            118.446
 Electronic               0.000              0.000              0.000
 Translational            0.889              2.981             42.122
 Rotational               0.889              2.981             31.981
 Vibrational            125.124             43.841             44.342
 Vibration     1          0.593              1.986              7.180
 Vibration     2          0.596              1.976              4.642
 Vibration     3          0.599              1.965              4.008
 Vibration     4          0.611              1.927              3.004
 Vibration     5          0.624              1.883              2.466
 Vibration     6          0.632              1.860              2.271
 Vibration     7          0.638              1.839              2.129
 Vibration     8          0.647              1.810              1.958
 Vibration     9          0.654              1.789              1.848
 Vibration    10          0.660              1.770              1.762
 Vibration    11          0.678              1.718              1.559
 Vibration    12          0.687              1.690              1.467
 Vibration    13          0.687              1.689              1.464
 Vibration    14          0.715              1.608              1.241
 Vibration    15          0.752              1.506              1.026
 Vibration    16          0.776              1.445              0.920
 Vibration    17          0.793              1.400              0.852
 Vibration    18          0.852              1.257              0.666

 Optimization completed.
    -- Stationary point found.
 Normal termination of Gaussian 16 at Wed Dec  9 18:19:54 2020.

 ----------------------------------------------------------------------
 # B3LYP/6-311++G(d,p) empiricaldispersion=gd3bj scf=xqc pop=npa geom=c
 heck
 ----------------------------------------------------------------------

 --------------------------------------
 CID_12280294_JID_2863_Energie_neutraal
 --------------------------------------
 Structure from the checkpoint file:  "JID_2863.chk"
 Charge =  0 Multiplicity = 1

 SCF Done:  E(RB3LYP) =  -1619.25108799     A.U. after   14 cycles
 Normal termination of Gaussian 16 at Wed Dec  9 18:23:25 2020.

 ----------------------------------------------------------------------
 # B3LYP/6-311++G(d,p) empiricaldispersion=gd3bj scf=xqc pop=npa geom=c
 heck
 ----------------------------------------------------------------------

 ------------------------------------
 CID_12280294_JID_2863_Energie_kation
 ------------------------------------
 Structure from the checkpoint file:  "JID_2863.chk"
 Charge =  1 Multiplicity = 2

 SCF Done:  E(UB3LYP) =  -1618.94461002     A.U. after   23 cycles
 Normal termination of Gaussian 16 at Wed Dec  9 18:29:42 2020.
 Gaussian 16:  ES64L-G16RevA.03 25-Dec-2016

 ----------------------------------------------------------------------
 # B3LYP/6-311++G(d,p) empiricaldispersion=gd3bj scf=xqc pop=npa geom=c
 heck
 ----------------------------------------------------------------------

 -----------------------------------
 CID_12280294_JID_2863_Energie_anion
 -----------------------------------
 Structure from the checkpoint file:  "JID_2863.chk"
 Charge = -1 Multiplicity = 2

                         Standard orientation:
 ---------------------------------------------------------------------
 Center     Atomic      Atomic             Coordinates (Angstroms)
 Number     Number       Type             X           Y           Z
 ---------------------------------------------------------------------
      1          6           0        3.572061   -1.281900   -0.655206
      2          6           0        3.384443   -0.000272    0.148120
      3          6           0        3.573285    1.281165   -0.655226
      4          8           0        2.096621    0.000381    0.853160
      5          6           0        0.953487    0.000599    0.159091
      6          8           0        0.858776    0.000557   -1.055117
      7          6           0       -0.234390    0.000805    1.110260
      8         16           0       -1.192483    1.561645    0.971970
      9          6           0       -1.899678    1.382619   -0.709388
     10         16           0       -3.068806   -0.000914   -0.938809
     11          6           0       -1.898683   -1.383435   -0.708385
     12         16           0       -1.191495   -1.560806    0.973151
     13          1           0        2.909696   -1.304986   -1.522165
     14          1           0        3.371100   -2.157780   -0.030184
     15          1           0        4.609647   -1.340207   -1.002048
     16          1           0        4.081105   -0.000622    0.991147
     17          1           0        2.910742    1.304937   -1.522032
     18          1           0        3.373373    2.157253   -0.030160
     19          1           0        4.610848    1.338396   -1.002309
     20          1           0        0.136809    0.001280    2.135906
     21          1           0       -1.088951    1.311013   -1.435196
     22          1           0       -2.464951    2.300154   -0.885627
     23          1           0       -1.087945   -1.311716   -1.434182
     24          1           0       -2.463252   -2.301506   -0.884081
 ---------------------------------------------------------------------

 SCF Done:  E(UB3LYP) =  -1619.23660015     A.U. after   33 cycles
 SCF Done:  E(UB3LYP) =  -1619.23661491     a.u. after    4 cycles

 The electronic state is 2-A.
 Alpha  occ. eigenvalues --  -88.76611 -88.76611 -88.76196 -19.07781 -19.02328
 Alpha  occ. eigenvalues --  -10.22165 -10.15542 -10.13911 -10.13847 -10.13843
 Alpha  occ. eigenvalues --  -10.06205 -10.06203  -7.85193  -7.85191  -7.84809
 Alpha  occ. eigenvalues --   -5.81573  -5.81573  -5.81255  -5.81255  -5.81184
 Alpha  occ. eigenvalues --   -5.80874  -5.80531  -5.80531  -5.80158  -1.01822
 Alpha  occ. eigenvalues --   -0.93456  -0.76556  -0.71338  -0.68927  -0.68732
 Alpha  occ. eigenvalues --   -0.59724  -0.58913  -0.55891  -0.54113  -0.48910
 Alpha  occ. eigenvalues --   -0.43889  -0.41378  -0.39864  -0.38653  -0.38611
 Alpha  occ. eigenvalues --   -0.35678  -0.35646  -0.33573  -0.32174  -0.31166
 Alpha  occ. eigenvalues --   -0.30999  -0.30258  -0.29920  -0.28578  -0.26926
 Alpha  occ. eigenvalues --   -0.26227  -0.24937  -0.23763  -0.23169  -0.21681
 Alpha  occ. eigenvalues --   -0.20109  -0.15200  -0.14406  -0.14234   0.04485
 Alpha virt. eigenvalues --    0.06041   0.06238   0.06964   0.07706   0.08351
 Alpha virt. eigenvalues --    0.08461   0.09264   0.09514   0.09802   0.10901
 Alpha virt. eigenvalues --    0.11991   0.12000   0.12333   0.13093   0.13204

  Beta  occ. eigenvalues --  -88.76602 -88.76602 -88.76192 -19.07782 -19.02320
  Beta  occ. eigenvalues --  -10.22162 -10.15513 -10.13889 -10.13816 -10.13812
  Beta  occ. eigenvalues --  -10.06168 -10.06166  -7.85183  -7.85182  -7.84806
  Beta  occ. eigenvalues --   -5.81551  -5.81551  -5.81250  -5.81250  -5.81182
  Beta  occ. eigenvalues --   -5.80862  -5.80525  -5.80525  -5.80156  -1.01815
  Beta  occ. eigenvalues --   -0.93447  -0.76501  -0.71294  -0.68877  -0.68679
  Beta  occ. eigenvalues --   -0.59653  -0.58871  -0.55820  -0.54056  -0.48853
  Beta  occ. eigenvalues --   -0.43853  -0.41322  -0.39815  -0.38631  -0.38567
  Beta  occ. eigenvalues --   -0.35646  -0.35594  -0.33518  -0.32138  -0.31131
  Beta  occ. eigenvalues --   -0.30931  -0.30176  -0.29877  -0.28533  -0.26882
  Beta  occ. eigenvalues --   -0.26188  -0.24883  -0.23709  -0.23130  -0.21665
  Beta  occ. eigenvalues --   -0.20088  -0.15177  -0.14371  -0.14209
  Beta virt. eigenvalues --    0.06649   0.06699   0.07034   0.07185   0.08009
  Beta virt. eigenvalues --    0.08733   0.08805   0.09713   0.09985   0.10370
  Beta virt. eigenvalues --    0.11309   0.12241   0.12402   0.12625   0.13343

 Mulliken charges and spin densities:
               1          2
     1  C    1.308397  -1.744647
     2  C   -1.355664   1.395952
     3  C    1.310759  -1.746972
     4  O    0.062412   0.003002
     5  C   -0.753085  -0.016502
     6  O   -0.212663  -0.002690
     7  C    0.985085  -0.441967
     8  S    0.101660  -0.250589
     9  C   -0.034916  -0.547876
    10  S   -0.297706   0.435339
    11  C   -0.039124  -0.543461
    12  S    0.103970  -0.252598
    13  H   -0.082244   0.248555
    14  H   -0.063580   0.189807
    15  H   -0.518264   0.694693
    16  H   -0.958942   1.156980
    17  H   -0.082857   0.249212
    18  H   -0.063489   0.189733
    19  H   -0.519041   0.695481
    20  H    0.234024   0.155259
    21  H    0.175620   0.061844
    22  H   -0.240051   0.506988
    23  H    0.176243   0.061070
    24  H   -0.236544   0.503385
 Sum of Mulliken charges =  -1.00000   1.00000

 Dipole moment (field-independent basis, Debye):
    X=             -7.6870    Y=             -0.0111    Z=              0.8199  Tot=              7.7306
 Quadrupole moment (field-independent basis, Debye-Ang):
   XX=           -194.0802   YY=           -134.3229   ZZ=           -123.7614
   XY=              0.0340   XZ=              1.6247   YZ=              0.0408

 Summary of Natural Population Analysis:

                                       Natural Population
                Natural  -----------------------------------------------
    Atom  No    Charge         Core      Valence    Rydberg      Total
 -----------------------------------------------------------------------
      C    1   -0.30100      0.99964     2.29491    0.00645     3.30100
      C    2    0.06403      0.99955     1.92254    0.01389     2.93597
      C    3   -0.30100      0.99964     2.29491    0.00645     3.30100
      O    4   -0.28092      0.99986     3.27028    0.01079     4.28092
      C    5    0.40195      0.99960     1.57029    0.02815     2.59805
      O    6   -0.32020      0.99987     3.31419    0.00614     4.32020
      C    7   -0.28264      0.99952     2.26924    0.01388     3.28264
      S    8    0.13055      4.99956     2.85147    0.01842     7.86945
      C    9   -0.34127      0.99960     2.32717    0.01451     3.34127
      S   10    0.11146      4.99956     2.86962    0.01936     7.88854
      C   11   -0.34129      0.99960     2.32720    0.01449     3.34129
      S   12    0.13058      4.99956     2.85144    0.01842     7.86942
      H   13    0.10792      0.00000     0.39079    0.00129     0.39208
      H   14    0.10309      0.00000     0.39538    0.00153     0.39691
      H   15    0.10776      0.00000     0.39035    0.00189     0.39224
      H   16    0.09618      0.00000     0.40027    0.00355     0.40382
      H   17    0.10792      0.00000     0.39079    0.00129     0.39208
      H   18    0.10309      0.00000     0.39538    0.00153     0.39691
      H   19    0.10776      0.00000     0.39034    0.00190     0.39224
      H   20    0.12602      0.00000     0.37254    0.00145     0.37398
      H   21    0.11883      0.00000     0.37923    0.00194     0.38117
      H   22    0.11620      0.00000     0.38204    0.00176     0.38380
      H   23    0.11882      0.00000     0.37924    0.00194     0.38118
      H   24    0.11617      0.00000     0.38208    0.00175     0.38383
 =======================================================================
   * Total *   -0.00000     23.99556    34.81167    0.19277    59.00000

 Normal termination of Gaussian 16 at Wed Dec  9 18:57:24 2020.
