 Gaussian 16, Revision A.03,

 -----------------------------------------------------------
 # opt freq B3LYP/6-31G(d) empiricaldispersion=gd3bj scf=xqc
 -----------------------------------------------------------

 --------------------------------
 CID_104342234_JID_10832_neutraal
 --------------------------------
 Symbolic Z-matrix:
 Charge =  0 Multiplicity = 1

 SCF Done:  E(RB3LYP) =  -1254.04917639     A.U. after   15 cycles
 SCF Done:  E(RB3LYP) =  -1254.05788920     A.U. after   13 cycles
 SCF Done:  E(RB3LYP) =  -1254.06129378     A.U. after   13 cycles
 SCF Done:  E(RB3LYP) =  -1254.06379556     A.U. after   13 cycles
 SCF Done:  E(RB3LYP) =  -1254.06474557     A.U. after   13 cycles
 SCF Done:  E(RB3LYP) =  -1254.06526401     A.U. after   11 cycles
 SCF Done:  E(RB3LYP) =  -1254.06537885     A.U. after   12 cycles
 SCF Done:  E(RB3LYP) =  -1254.06559110     A.U. after   11 cycles
 SCF Done:  E(RB3LYP) =  -1254.06577440     A.U. after   12 cycles
 SCF Done:  E(RB3LYP) =  -1254.06593922     A.U. after   14 cycles
 SCF Done:  E(RB3LYP) =  -1254.06606090     A.U. after    7 cycles
 SCF Done:  E(RB3LYP) =  -1254.06606099     A.U. after    7 cycles
 SCF Done:  E(RB3LYP) =  -1254.06606104     A.U. after    7 cycles
 SCF Done:  E(RB3LYP) =  -1254.06606109     A.U. after    7 cycles
 Optimization completed.
    -- Stationary point found.
 Normal termination of Gaussian 16 at Mon Dec 14 14:02:24 2020.

 --------------------------------------------------------------------
 #N Geom=AllCheck Guess=TCheck SCRF=Check GenChk RB3LYP/6-31G(d) Freq
 --------------------------------------------------------------------

 Structure from the checkpoint file:  "JID_10832.chk"
 --------------------------------
 CID_104342234_JID_10832_neutraal
 --------------------------------
 Charge =  0 Multiplicity = 1

 SCF Done:  E(RB3LYP) =  -1254.06606109     A.U. after    1 cycles

  Exact polarizability: 256.197 -19.115 185.557  -5.063 -19.515 136.482
 Approx polarizability: 330.506 -34.295 292.907 -15.969 -56.644 230.588

                      1                      2                      3
                      A                      A                      A
 Frequencies --     17.0242                22.7026                30.2444
 Red. masses --      4.2710                 6.5977                 4.2173
 Frc consts  --      0.0007                 0.0020                 0.0023
 IR Inten    --      0.7014                 0.4804                 0.5152

                      4                      5                      6
                      A                      A                      A
 Frequencies --     34.2947                57.2014                77.2118
 Red. masses --      4.8261                 3.8737                 3.1417
 Frc consts  --      0.0033                 0.0075                 0.0110
 IR Inten    --      0.1757                 0.4136                 0.6187

                      7                      8                      9
                      A                      A                      A
 Frequencies --     83.2846                90.5224               103.7445
 Red. masses --      2.4736                 1.7473                 1.7829
 Frc consts  --      0.0101                 0.0084                 0.0113
 IR Inten    --      2.8755                 0.6516                 3.0650

                     10                     11                     12
                      A                      A                      A
 Frequencies --    116.6176               139.9910               176.5859
 Red. masses --      2.4134                 2.5702                 3.2142
 Frc consts  --      0.0193                 0.0297                 0.0591
 IR Inten    --      1.4456                 1.4497                 5.2985

                     13                     14                     15
                      A                      A                      A
 Frequencies --    191.5390               198.5425               210.7792
 Red. masses --      3.0736                 1.9393                 3.6866
 Frc consts  --      0.0664                 0.0450                 0.0965
 IR Inten    --      3.4686                 1.4195                 4.6096

                     16                     17                     18
                      A                      A                      A
 Frequencies --    219.1276               234.2531               251.9942
 Red. masses --      3.4477                 2.6650                 1.8618
 Frc consts  --      0.0975                 0.0862                 0.0697
 IR Inten    --      3.2706                 5.0294                 1.0265

                     19                     20                     21
                      A                      A                      A
 Frequencies --    258.3262               306.8852               328.2504
 Red. masses --      2.9337                 5.3878                 3.9600
 Frc consts  --      0.1153                 0.2990                 0.2514
 IR Inten    --      1.7805                 6.0748                 7.1470

                     22                     23                     24
                      A                      A                      A
 Frequencies --    364.0022               393.5328               414.9648
 Red. masses --      2.1066                 2.6196                 2.1191
 Frc consts  --      0.1644                 0.2390                 0.2150
 IR Inten    --     46.9037                24.3625                37.7516

                     25                     26                     27
                      A                      A                      A
 Frequencies --    443.7375               469.6767               532.1630
 Red. masses --      2.2617                 4.1478                 1.7919
 Frc consts  --      0.2624                 0.5391                 0.2990
 IR Inten    --      2.4430                17.1448                59.6251

                     28                     29                     30
                      A                      A                      A
 Frequencies --    535.2827               569.5469               583.0340
 Red. masses --      3.7964                 2.6422                 4.0990
 Frc consts  --      0.6409                 0.5050                 0.8210
 IR Inten    --     32.5229                32.5731                28.1846

                     31                     32                     33
                      A                      A                      A
 Frequencies --    611.4704               623.8310               667.0904
 Red. masses --      4.4919                 4.5000                 3.8045
 Frc consts  --      0.9895                 1.0318                 0.9975
 IR Inten    --     10.1023                 8.5854                 5.0956

                     34                     35                     36
                      A                      A                      A
 Frequencies --    681.0859               701.8719               725.1265
 Red. masses --      3.3504                11.0987                 2.1150
 Frc consts  --      0.9157                 3.2213                 0.6552
 IR Inten    --     10.8987                 3.2192                 5.0961

                     37                     38                     39
                      A                      A                      A
 Frequencies --    735.6533               763.5341               763.5766
 Red. masses --      1.3390                 7.1165                 1.8274
 Frc consts  --      0.4269                 2.4444                 0.6278
 IR Inten    --     39.5778                 6.6938                 2.9049

                     40                     41                     42
                      A                      A                      A
 Frequencies --    789.6888               828.3718               859.6053
 Red. masses --      2.3296                 8.4758                 1.8999
 Frc consts  --      0.8559                 3.4268                 0.8272
 IR Inten    --     22.9302                38.7964                14.3125

                     43                     44                     45
                      A                      A                      A
 Frequencies --    888.9147               896.2318               899.4856
 Red. masses --      2.8732                 1.6522                 1.8737
 Frc consts  --      1.3376                 0.7819                 0.8932
 IR Inten    --      9.7694                 4.7636                 7.8853

                     46                     47                     48
                      A                      A                      A
 Frequencies --    941.3148               981.4633               994.8759
 Red. masses --      4.3685                 2.7081                 9.6445
 Frc consts  --      2.2806                 1.5369                 5.6243
 IR Inten    --     15.3207                 8.2124                21.6195

                     49                     50                     51
                      A                      A                      A
 Frequencies --   1019.8838              1041.2363              1052.9844
 Red. masses --      3.9798                 2.2299                 2.4815
 Frc consts  --      2.4390                 1.4244                 1.6211
 IR Inten    --     11.8005                 8.6225                 3.8203

                     52                     53                     54
                      A                      A                      A
 Frequencies --   1084.3541              1096.1162              1118.8532
 Red. masses --      2.3461                 1.6117                 1.4945
 Frc consts  --      1.6253                 1.1409                 1.1023
 IR Inten    --     50.8848                11.0355                 6.1404

                     55                     56                     57
                      A                      A                      A
 Frequencies --   1132.4660              1136.8372              1152.9345
 Red. masses --      2.4652                 2.6781                 3.0905
 Frc consts  --      1.8628                 2.0393                 2.4204
 IR Inten    --     51.0934                18.7086                97.8874

                     58                     59                     60
                      A                      A                      A
 Frequencies --   1160.5279              1182.5256              1188.6931
 Red. masses --      1.3544                 1.7421                 3.4220
 Frc consts  --      1.0748                 1.4353                 2.8488
 IR Inten    --     15.2260                 2.0756                 4.6369

                     61                     62                     63
                      A                      A                      A
 Frequencies --   1194.3439              1224.2513              1226.9704
 Red. masses --      1.2803                 1.5481                 2.1565
 Frc consts  --      1.0760                 1.3671                 1.9128
 IR Inten    --      2.5055                25.5200                 7.1303

                     64                     65                     66
                      A                      A                      A
 Frequencies --   1268.5707              1286.5772              1299.3183
 Red. masses --      1.7555                 2.1592                 1.4486
 Frc consts  --      1.6645                 2.1058                 1.4409
 IR Inten    --    183.2270                 4.8524                 4.6210

                     67                     68                     69
                      A                      A                      A
 Frequencies --   1322.2623              1344.5131              1353.9999
 Red. masses --      1.2713                 1.4209                 1.9554
 Frc consts  --      1.3096                 1.5133                 2.1122
 IR Inten    --      5.2678                37.1130                 3.2115

                     70                     71                     72
                      A                      A                      A
 Frequencies --   1382.8776              1388.8812              1403.9598
 Red. masses --      1.9992                 1.3600                 1.5091
 Frc consts  --      2.2525                 1.5457                 1.7526
 IR Inten    --     80.9654                 6.0380                22.5346

                     73                     74                     75
                      A                      A                      A
 Frequencies --   1434.7256              1442.8614              1449.1718
 Red. masses --      2.1897                 1.2827                 1.6482
 Frc consts  --      2.6556                 1.5734                 2.0394
 IR Inten    --      9.7705                 0.0631                36.5614

                     76                     77                     78
                      A                      A                      A
 Frequencies --   1463.8361              1488.1162              1493.4910
 Red. masses --      1.6587                 1.7840                 4.3964
 Frc consts  --      2.0942                 2.3277                 5.7777
 IR Inten    --      1.1894                46.7016                 1.5702

                     79                     80                     81
                      A                      A                      A
 Frequencies --   1495.2627              1506.5160              1507.8042
 Red. masses --      1.1198                 1.1015                 1.0941
 Frc consts  --      1.4751                 1.4730                 1.4655
 IR Inten    --      1.0360                38.7023                 6.0487

                     82                     83                     84
                      A                      A                      A
 Frequencies --   1513.0220              1516.7072              1529.0675
 Red. masses --      1.0884                 1.1042                 1.0467
 Frc consts  --      1.4680                 1.4965                 1.4418
 IR Inten    --      5.2438                 2.9776                 5.1922

                     85                     86                     87
                      A                      A                      A
 Frequencies --   1535.2520              1537.5027              1541.2260
 Red. masses --      1.0615                 1.2966                 1.0594
 Frc consts  --      1.4742                 1.8058                 1.4826
 IR Inten    --      6.8505                12.0678                12.9318

                     88                     89                     90
                      A                      A                      A
 Frequencies --   1557.6706              1574.1458              1585.4043
 Red. masses --      2.0868                 5.8969                 3.3678
 Frc consts  --      2.9832                 8.6092                 4.9874
 IR Inten    --    165.6197                31.5601               482.2846

                     91                     92                     93
                      A                      A                      A
 Frequencies --   1623.4250              1654.9040              2998.5962
 Red. masses --      3.9800                 5.5294                 1.0461
 Frc consts  --      6.1801                 8.9222                 5.5418
 IR Inten    --     53.7216              1117.6337                54.0647

                     94                     95                     96
                      A                      A                      A
 Frequencies --   3016.2034              3034.3860              3045.1267
 Red. masses --      1.0685                 1.0492                 1.0533
 Frc consts  --      5.7271                 5.6919                 5.7548
 IR Inten    --     61.4430                80.1742                 7.9315

                     97                     98                     99
                      A                      A                      A
 Frequencies --   3047.4331              3064.1453              3073.4665
 Red. masses --      1.0680                 1.0610                 1.0898
 Frc consts  --      5.8437                 5.8692                 6.0654
 IR Inten    --     20.5753                23.7050                43.4599

                    100                    101                    102
                      A                      A                      A
 Frequencies --   3098.8767              3116.4739              3117.0182
 Red. masses --      1.1004                 1.0870                 1.1017
 Frc consts  --      6.2258                 6.2205                 6.3065
 IR Inten    --      2.3046                39.3701                34.1939

                    103                    104                    105
                      A                      A                      A
 Frequencies --   3128.1252              3130.4158              3139.7567
 Red. masses --      1.1028                 1.1016                 1.0962
 Frc consts  --      6.3580                 6.3604                 6.3668
 IR Inten    --     38.2771                48.2986                18.8872

                    106                    107                    108
                      A                      A                      A
 Frequencies --   3161.3985              3208.0427              3238.9337
 Red. masses --      1.1037                 1.0905                 1.0916
 Frc consts  --      6.4990                 6.6123                 6.7472
 IR Inten    --     13.2594                17.8428                 9.1777

                    109                    110                    111
                      A                      A                      A
 Frequencies --   3285.1775              3602.4806              3633.3691
 Red. masses --      1.0981                 1.0763                 1.0767
 Frc consts  --      6.9827                 8.2299                 8.3747
 IR Inten    --      1.3180                65.0471                21.6937

 - Thermochemistry -
 -------------------
 Temperature   298.150 Kelvin.  Pressure   1.00000 Atm.
 Atom     1 has atomic number  6 and mass  12.00000

 Molecular mass:   293.13103 amu.
 Principal axes and moments of inertia in atomic units:
                           1         2         3
     Eigenvalues --  3333.61973********************
           X            0.99996   0.00159   0.00908
           Y           -0.00166   0.99996   0.00850
           Z           -0.00907  -0.00852   0.99992
 This molecule is an asymmetric top.
 Rotational symmetry number  1.
 Warning -- assumption of classical behavior for rotation
           may cause significant error
 Rotational temperatures (Kelvin)      0.02598     0.00675     0.00586
 Rotational constants (GHZ):           0.54138     0.14055     0.12211
 Zero-point vibrational energy     846129.1 (Joules/Mol)
                                  202.22970 (Kcal/Mol)
 Warning -- explicit consideration of  31 degrees of freedom as
           vibrations may cause significant error
 Vibrational temperatures:     24.49    32.66    43.51    49.34    82.30
          (Kelvin)            111.09   119.83   130.24   149.27   167.79
                              201.42   254.07   275.58   285.66   303.26
                              315.28   337.04   362.56   371.67   441.54
                              472.28   523.72   566.21   597.04   638.44
                              675.76   765.66   770.15   819.45   838.86
                              879.77   897.55   959.79   979.93  1009.84
                             1043.30  1058.44  1098.56  1098.62  1136.19
                             1191.84  1236.78  1278.95  1289.48  1294.16
                             1354.34  1412.11  1431.40  1467.39  1498.11
                             1515.01  1560.14  1577.07  1609.78  1629.37
                             1635.66  1658.82  1669.74  1701.39  1710.26
                             1718.39  1761.42  1765.34  1825.19  1851.10
                             1869.43  1902.44  1934.45  1948.10  1989.65
                             1998.29  2019.98  2064.25  2075.96  2085.03
                             2106.13  2141.07  2148.80  2151.35  2167.54
                             2169.39  2176.90  2182.20  2199.99  2208.89
                             2212.12  2217.48  2241.14  2264.84  2281.04
                             2335.75  2381.04  4314.31  4339.64  4365.80
                             4381.26  4384.58  4408.62  4422.03  4458.59
                             4483.91  4484.69  4500.67  4503.97  4517.41
                             4548.55  4615.66  4660.10  4726.64  5183.17
                             5227.61

 Zero-point correction=                           0.322274 (Hartree/Particle)
 Thermal correction to Energy=                    0.343219
 Thermal correction to Enthalpy=                  0.344163
 Thermal correction to Gibbs Free Energy=         0.268861
 Sum of electronic and zero-point Energies=          -1253.743788
 Sum of electronic and thermal Energies=             -1253.722842
 Sum of electronic and thermal Enthalpies=           -1253.721898
 Sum of electronic and thermal Free Energies=        -1253.797200

                     E (Thermal)             CV                S
                      KCal/Mol        Cal/Mol-Kelvin    Cal/Mol-Kelvin
 Total                  215.373             75.562            158.486
 Electronic               0.000              0.000              0.000
 Translational            0.889              2.981             42.924
 Rotational               0.889              2.981             34.802
 Vibrational            213.596             69.600             80.760
 Vibration     1          0.593              1.986              6.954
 Vibration     2          0.593              1.985              6.383
 Vibration     3          0.594              1.984              5.813
 Vibration     4          0.594              1.983              5.564
 Vibration     5          0.596              1.975              4.551
 Vibration     6          0.599              1.964              3.961
 Vibration     7          0.600              1.961              3.812
 Vibration     8          0.602              1.956              3.649
 Vibration     9          0.605              1.946              3.383
 Vibration    10          0.608              1.936              3.156
 Vibration    11          0.615              1.913              2.804
 Vibration    12          0.628              1.871              2.364
 Vibration    13          0.634              1.852              2.213
 Vibration    14          0.637              1.842              2.147
 Vibration    15          0.643              1.824              2.037
 Vibration    16          0.647              1.812              1.966
 Vibration    17          0.654              1.788              1.846
 Vibration    18          0.664              1.759              1.717
 Vibration    19          0.667              1.749              1.673
 Vibration    20          0.697              1.661              1.379
 Vibration    21          0.711              1.619              1.269
 Vibration    22          0.738              1.546              1.105
 Vibration    23          0.761              1.484              0.987
 Vibration    24          0.778              1.438              0.909
 Vibration    25          0.803              1.375              0.815
 Vibration    26          0.827              1.317              0.738
 Vibration    27          0.887              1.179              0.582
 Vibration    28          0.890              1.172              0.576
 Vibration    29          0.926              1.097              0.505
 Vibration    30          0.940              1.068              0.480
 Vibration    31          0.971              1.008              0.430

                           ! Non-Optimized Parameters !
 Normal termination of Gaussian 16 at Mon Dec 14 14:20:35 2020.

 ----------------------------------------------------------------------
 # B3LYP/6-311++G(d,p) empiricaldispersion=gd3bj scf=xqc pop=npa geom=c
 heck
 ----------------------------------------------------------------------

 ----------------------------------------
 CID_104342234_JID_10832_Energie_neutraal
 ----------------------------------------
 Structure from the checkpoint file:  "JID_10832.chk"
 Charge =  0 Multiplicity = 1

 SCF Done:  E(RB3LYP) =  -1254.33121695     A.U. after   17 cycles
 Normal termination of Gaussian 16 at Mon Dec 14 14:29:08 2020.

 ----------------------------------------------------------------------
 # B3LYP/6-311++G(d,p) empiricaldispersion=gd3bj scf=xqc pop=npa geom=c
 heck
 ----------------------------------------------------------------------

 --------------------------------------
 CID_104342234_JID_10832_Energie_kation
 --------------------------------------
 Structure from the checkpoint file:  "JID_10832.chk"
 Charge =  1 Multiplicity = 2

 SCF Done:  E(UB3LYP) =  -1254.04894212     A.U. after   33 cycles
 SCF Done:  E(UB3LYP) =  -1254.04894212     a.u. after    1 cycles
 Normal termination of Gaussian 16 at Mon Dec 14 14:51:38 2020.
 Gaussian 16:  ES64L-G16RevA.03 25-Dec-2016

 ----------------------------------------------------------------------
 # B3LYP/6-311++G(d,p) empiricaldispersion=gd3bj scf=xqc pop=npa geom=c
 heck
 ----------------------------------------------------------------------

 -------------------------------------
 CID_104342234_JID_10832_Energie_anion
 -------------------------------------
 Structure from the checkpoint file:  "JID_10832.chk"
 Charge = -1 Multiplicity = 2

                         Standard orientation:
 ---------------------------------------------------------------------
 Center     Atomic      Atomic             Coordinates (Angstroms)
 Number     Number       Type             X           Y           Z
 ---------------------------------------------------------------------
      1          6           0        3.087018    2.523643    1.195659
      2          6           0        2.021536    1.442623    1.378272
      3          6           0        1.871776    0.511342    0.152525
      4          6           0        3.127850   -0.292377   -0.072966
      5          7           0        3.484592   -1.274187    0.705456
      6          6           0        4.671960   -1.834213    0.290491
      7          6           0        5.238589   -1.271723   -0.816681
      8         16           0        4.237973    0.024713   -1.390277
      9          7           0        0.771671   -0.424557    0.294695
     10          6           0       -0.550173   -0.086952    0.239619
     11          7           0       -1.399566   -1.060098    0.652575
     12          6           0       -2.697604   -0.778088    0.585411
     13          7           0       -3.259784    0.365577    0.167675
     14          6           0       -2.408574    1.323606   -0.250213
     15          6           0       -1.015521    1.147340   -0.224351
     16          7           0       -2.964755    2.481765   -0.719059
     17          6           0       -4.378742    2.776086   -0.566445
     18          6           0       -3.650771   -1.882871    0.996188
     19          8           0       -4.087797   -2.663256   -0.108719
     20          6           0       -5.041636   -2.016149   -0.929842
     21          1           0        4.084825    2.089030    1.074402
     22          1           0        3.116560    3.190559    2.063433
     23          1           0        2.882748    3.138986    0.310129
     24          1           0        2.254552    0.813258    2.244341
     25          1           0        1.043977    1.901516    1.565186
     26          1           0        1.691358    1.124956   -0.739116
     27          1           0        5.085921   -2.667489    0.845876
     28          1           0        6.159527   -1.538698   -1.315111
     29          1           0        0.973891   -1.294930    0.770988
     30          1           0       -0.347698    1.934170   -0.556441
     31          1           0       -2.338536    3.264643   -0.833723
     32          1           0       -4.669969    2.920753    0.483159
     33          1           0       -4.605927    3.684787   -1.129955
     34          1           0       -4.970771    1.950372   -0.965231
     35          1           0       -3.126716   -2.573443    1.659785
     36          1           0       -4.513040   -1.441231    1.518568
     37          1           0       -5.914435   -1.684756   -0.344177
     38          1           0       -4.625876   -1.140747   -1.443973
     39          1           0       -5.364948   -2.754198   -1.669368
 ---------------------------------------------------------------------

 SCF Done:  E(UB3LYP) =  -1254.32932249     A.U. after   33 cycles
 SCF Done:  E(UB3LYP) =  -1254.32932249     a.u. after    1 cycles

 The electronic state is 2-A.
 Alpha  occ. eigenvalues --  -88.77011 -19.03861 -14.23225 -14.22640 -14.20191
 Alpha  occ. eigenvalues --  -14.19654 -14.19526 -10.15064 -10.14865 -10.13746
 Alpha  occ. eigenvalues --  -10.12437 -10.12347 -10.12242 -10.11588 -10.10229
 Alpha  occ. eigenvalues --  -10.09751 -10.08976 -10.07113 -10.06657 -10.06598
 Alpha  occ. eigenvalues --   -7.85668  -5.81939  -5.81595  -5.81296  -0.94869
 Alpha  occ. eigenvalues --   -0.89384  -0.86427  -0.85046  -0.82233  -0.75971
 Alpha  occ. eigenvalues --   -0.70065  -0.69070  -0.67772  -0.64202  -0.63968
 Alpha  occ. eigenvalues --   -0.60194  -0.58979  -0.57387  -0.52364  -0.51866
 Alpha  occ. eigenvalues --   -0.50152  -0.49042  -0.46452  -0.43860  -0.42026
 Alpha  occ. eigenvalues --   -0.40570  -0.39777  -0.39718  -0.37616  -0.37438
 Alpha  occ. eigenvalues --   -0.36908  -0.36130  -0.35466  -0.35039  -0.34156
 Alpha  occ. eigenvalues --   -0.33130  -0.31954  -0.31265  -0.30348  -0.29898
 Alpha  occ. eigenvalues --   -0.29738  -0.29094  -0.28826  -0.28066  -0.26344
 Alpha  occ. eigenvalues --   -0.25886  -0.24469  -0.24053  -0.23910  -0.20814
 Alpha  occ. eigenvalues --   -0.20725  -0.18118  -0.17437  -0.16882  -0.15669
 Alpha  occ. eigenvalues --   -0.14625  -0.13411  -0.11815   0.03911
 Alpha virt. eigenvalues --    0.05602   0.06771   0.07052   0.07371   0.07634
 Alpha virt. eigenvalues --    0.08435   0.08881   0.09112   0.09457   0.09808
 Alpha virt. eigenvalues --    0.10168   0.10569   0.10860   0.11243   0.11746

  Beta  occ. eigenvalues --  -88.76973 -19.03858 -14.23189 -14.22618 -14.20135
  Beta  occ. eigenvalues --  -14.19657 -14.19513 -10.15067 -10.14854 -10.13739
  Beta  occ. eigenvalues --  -10.12437 -10.12364 -10.12240 -10.11290 -10.10203
  Beta  occ. eigenvalues --  -10.09756 -10.08787 -10.07083 -10.06643 -10.06578
  Beta  occ. eigenvalues --   -7.85633  -5.81925  -5.81582  -5.81161  -0.94863
  Beta  occ. eigenvalues --   -0.89359  -0.86274  -0.84917  -0.82183  -0.75935
  Beta  occ. eigenvalues --   -0.69977  -0.68828  -0.67726  -0.64001  -0.63921
  Beta  occ. eigenvalues --   -0.60130  -0.58919  -0.57359  -0.52302  -0.51812
  Beta  occ. eigenvalues --   -0.50073  -0.48764  -0.46377  -0.43738  -0.41918
  Beta  occ. eigenvalues --   -0.40479  -0.39738  -0.39659  -0.37569  -0.37392
  Beta  occ. eigenvalues --   -0.36884  -0.35963  -0.35430  -0.34997  -0.34073
  Beta  occ. eigenvalues --   -0.33085  -0.31877  -0.31233  -0.30221  -0.29742
  Beta  occ. eigenvalues --   -0.29466  -0.28972  -0.28741  -0.27959  -0.26212
  Beta  occ. eigenvalues --   -0.25756  -0.24393  -0.24011  -0.23899  -0.20803
  Beta  occ. eigenvalues --   -0.20684  -0.17408  -0.17320  -0.16873  -0.15645
  Beta  occ. eigenvalues --   -0.13580  -0.13381  -0.11774
  Beta virt. eigenvalues --    0.06403   0.06951   0.07144   0.07521   0.07864
  Beta virt. eigenvalues --    0.08073   0.08661   0.08964   0.09207   0.09605
  Beta virt. eigenvalues --    0.09885   0.10360   0.10672   0.10817   0.11366

 Mulliken charges and spin densities:
               1          2
     1  C   -0.316886  -0.473549
     2  C   -0.234062   0.219476
     3  C    0.024353  -0.336272
     4  C   -0.274801   0.098235
     5  N   -0.010842   0.031617
     6  C    0.002975   0.003226
     7  C   -0.342213   0.116103
     8  S   -0.123539   0.028589
     9  N    0.093948   0.003461
    10  C   -0.046622  -0.312789
    11  N   -0.039340   0.024140
    12  C   -0.242054   0.057491
    13  N   -0.022346  -0.029411
    14  C    0.428759  -0.062096
    15  C    0.195832  -0.341487
    16  N   -0.209740   0.076668
    17  C    0.327367  -0.654341
    18  C   -0.448106  -0.027287
    19  O   -0.127359   0.000882
    20  C   -0.285609  -0.034148
    21  H    0.146894  -0.001531
    22  H   -0.005652   0.142128
    23  H    0.000877   0.150865
    24  H    0.151689   0.006435
    25  H   -0.064931   0.234528
    26  H   -0.046231   0.225172
    27  H    0.133779   0.003083
    28  H    0.186838  -0.009066
    29  H    0.304845   0.005382
    30  H   -0.067410   0.273348
    31  H   -0.475610   0.759479
    32  H   -0.002757   0.162718
    33  H   -0.385043   0.535556
    34  H    0.094976   0.065565
    35  H    0.165254   0.003520
    36  H    0.137085   0.006574
    37  H    0.104593   0.002939
    38  H    0.152910   0.036142
    39  H    0.118179   0.008653
 Sum of Mulliken charges =  -1.00000   1.00000

 Dipole moment (field-independent basis, Debye):
    X=              1.2100    Y=             -4.4128    Z=              1.1105  Tot=              4.7085
 Quadrupole moment (field-independent basis, Debye-Ang):
   XX=           -185.5684   YY=           -188.5388   ZZ=           -148.3128
   XY=             10.9497   XZ=             -4.1521   YZ=              5.7142

 Summary of Natural Population Analysis:

                                       Natural Population
                Natural  -----------------------------------------------
    Atom  No    Charge         Core      Valence    Rydberg      Total
 -----------------------------------------------------------------------
      C    1   -0.28993      0.99966     2.28488    0.00538     3.28993
      C    2   -0.19012      0.99962     2.18186    0.00864     3.19012
      C    3   -0.03410      0.99952     2.01963    0.01495     3.03410
      C    4    0.08360      0.99958     1.89596    0.02085     2.91640
      N    5   -0.25100      0.99964     2.74210    0.00925     3.75100
      C    6   -0.02559      0.99955     2.01241    0.01363     3.02559
      C    7   -0.18727      0.99955     2.17858    0.00913     3.18727
      S    8    0.19726      4.99942     2.78309    0.02022     7.80274
      N    9   -0.29911      0.99965     2.78902    0.01043     3.79911
      C   10    0.22027      0.99954     1.76524    0.01495     2.77973
      N   11   -0.28532      0.99965     2.77580    0.00987     3.78532
      C   12    0.21368      0.99962     1.76994    0.01676     2.78632
      N   13   -0.30267      0.99965     2.79326    0.00977     3.80267
      C   14    0.21942      0.99954     1.76555    0.01549     2.78058
      C   15   -0.19390      0.99948     2.18606    0.00836     3.19390
      N   16   -0.30256      0.99967     2.79147    0.01141     3.80256
      C   17   -0.17739      0.99965     2.16891    0.00883     3.17739
      C   18   -0.02199      0.99954     2.00961    0.01284     3.02199
      O   19   -0.29235      0.99989     3.28334    0.00913     4.29235
      C   20   -0.09979      0.99962     2.09136    0.00881     3.09979
      H   21    0.09995      0.00000     0.39908    0.00097     0.40005
      H   22    0.09865      0.00000     0.40069    0.00066     0.40135
      H   23    0.09792      0.00000     0.40107    0.00101     0.40208
      H   24    0.09984      0.00000     0.39887    0.00129     0.40016
      H   25    0.10250      0.00000     0.39620    0.00130     0.39750
      H   26    0.10149      0.00000     0.39662    0.00189     0.39851
      H   27    0.09372      0.00000     0.40524    0.00104     0.40628
      H   28    0.10467      0.00000     0.39447    0.00087     0.39533
      H   29    0.20277      0.00000     0.29474    0.00249     0.29723
      H   30    0.10964      0.00000     0.38848    0.00188     0.39036
      H   31    0.19589      0.00000     0.29208    0.01203     0.30411
      H   32    0.08943      0.00000     0.40931    0.00126     0.41057
      H   33    0.09750      0.00000     0.40124    0.00126     0.40250
      H   34    0.10019      0.00000     0.39846    0.00135     0.39981
      H   35    0.09660      0.00000     0.40224    0.00116     0.40340
      H   36    0.08101      0.00000     0.41757    0.00141     0.41899
      H   37    0.07426      0.00000     0.42406    0.00168     0.42574
      H   38    0.08879      0.00000     0.40972    0.00149     0.41121
      H   39    0.08401      0.00000     0.41494    0.00105     0.41599
 =======================================================================
   * Total *   -0.00000     23.99203    53.73315    0.27482    78.00000

 Normal termination of Gaussian 16 at Mon Dec 14 15:14:30 2020.
