 Gaussian 16, Revision A.03,

 -----------------------------------------------------------
 # opt freq B3LYP/6-31G(d) empiricaldispersion=gd3bj scf=xqc
 -----------------------------------------------------------

 ------------------------------
 CID_79680184_JID_6808_neutraal
 ------------------------------
 Symbolic Z-matrix:
 Charge =  0 Multiplicity = 1

 SCF Done:  E(RB3LYP) =  -1111.61781845     A.U. after   14 cycles
 SCF Done:  E(RB3LYP) =  -1111.62544967     A.U. after   12 cycles
 SCF Done:  E(RB3LYP) =  -1111.62657168     A.U. after   13 cycles
 SCF Done:  E(RB3LYP) =  -1111.62710488     A.U. after   12 cycles
 SCF Done:  E(RB3LYP) =  -1111.62764928     A.U. after   12 cycles
 SCF Done:  E(RB3LYP) =  -1111.62806542     A.U. after   12 cycles
 SCF Done:  E(RB3LYP) =  -1111.62819458     A.U. after   11 cycles
 SCF Done:  E(RB3LYP) =  -1111.62822234     A.U. after   11 cycles
 SCF Done:  E(RB3LYP) =  -1111.62824648     A.U. after   10 cycles
 SCF Done:  E(RB3LYP) =  -1111.62825435     A.U. after   10 cycles
 SCF Done:  E(RB3LYP) =  -1111.62825652     A.U. after    9 cycles
 SCF Done:  E(RB3LYP) =  -1111.62825673     A.U. after    7 cycles
 SCF Done:  E(RB3LYP) =  -1111.62825684     A.U. after    7 cycles
 SCF Done:  E(RB3LYP) =  -1111.62825684     A.U. after    7 cycles
 SCF Done:  E(RB3LYP) =  -1111.62825680     A.U. after    7 cycles
 SCF Done:  E(RB3LYP) =  -1111.62825677     A.U. after    6 cycles
 Optimization completed.
    -- Stationary point found.
 Normal termination of Gaussian 16 at Fri Dec 11 00:44:44 2020.

 --------------------------------------------------------------------
 #N Geom=AllCheck Guess=TCheck SCRF=Check GenChk RB3LYP/6-31G(d) Freq
 --------------------------------------------------------------------

 Structure from the checkpoint file:  "JID_6808.chk"
 ------------------------------
 CID_79680184_JID_6808_neutraal
 ------------------------------
 Charge =  0 Multiplicity = 1

 SCF Done:  E(RB3LYP) =  -1111.62825677     A.U. after    1 cycles

  Exact polarizability: 155.992   1.876 150.524  -3.516  -0.926 127.605
 Approx polarizability: 209.258  -2.531 210.164  -3.057   5.113 201.234

                      1                      2                      3
                      A                      A                      A
 Frequencies --     18.5275                29.5683                68.9396
 Red. masses --      4.2956                 3.6859                 4.3497
 Frc consts  --      0.0009                 0.0019                 0.0122
 IR Inten    --      0.6779                 0.6589                 2.8342

                      4                      5                      6
                      A                      A                      A
 Frequencies --     82.2436                94.9947               107.3818
 Red. masses --      3.8300                 2.4609                 2.3891
 Frc consts  --      0.0153                 0.0131                 0.0162
 IR Inten    --      1.3099                 6.4849                 0.5990

                      7                      8                      9
                      A                      A                      A
 Frequencies --    137.8172               147.7879               171.0041
 Red. masses --      2.8555                 2.7418                 2.8027
 Frc consts  --      0.0320                 0.0353                 0.0483
 IR Inten    --      0.5436                 2.2128                 1.1876

                     10                     11                     12
                      A                      A                      A
 Frequencies --    189.6198               200.8535               228.8852
 Red. masses --      1.1870                 2.0496                 1.7365
 Frc consts  --      0.0251                 0.0487                 0.0536
 IR Inten    --      1.8352                 4.0588                 0.6431

                     13                     14                     15
                      A                      A                      A
 Frequencies --    229.9063               246.2296               258.3034
 Red. masses --      1.6464                 2.0262                 2.1800
 Frc consts  --      0.0513                 0.0724                 0.0857
 IR Inten    --      0.7754                 4.8952                 3.1196

                     16                     17                     18
                      A                      A                      A
 Frequencies --    273.4759               288.6323               301.0936
 Red. masses --      3.4783                 4.3166                 2.3552
 Frc consts  --      0.1533                 0.2119                 0.1258
 IR Inten    --      1.3354                 3.7757                 2.0608

                     19                     20                     21
                      A                      A                      A
 Frequencies --    333.6457               339.6649               371.8248
 Red. masses --      3.0375                 2.6030                 2.3726
 Frc consts  --      0.1992                 0.1769                 0.1933
 IR Inten    --      2.0098                 2.1815                 2.0167

                     22                     23                     24
                      A                      A                      A
 Frequencies --    401.1346               411.1625               436.5064
 Red. masses --      2.8321                 3.2038                 2.6668
 Frc consts  --      0.2685                 0.3191                 0.2994
 IR Inten    --      4.0086                 4.0579                 5.3534

                     25                     26                     27
                      A                      A                      A
 Frequencies --    484.2293               521.5490               565.1801
 Red. masses --      5.1093                 6.3624                 2.8863
 Frc consts  --      0.7058                 1.0197                 0.5432
 IR Inten    --     13.6196                47.5307                 8.8676

                     28                     29                     30
                      A                      A                      A
 Frequencies --    624.0753               680.3299               714.3319
 Red. masses --      2.8489                 3.0749                 3.3520
 Frc consts  --      0.6537                 0.8385                 1.0077
 IR Inten    --      4.1935                 0.1419                17.6574

                     31                     32                     33
                      A                      A                      A
 Frequencies --    745.0073               787.8234               807.7264
 Red. masses --      3.4161                 1.6037                 1.3538
 Frc consts  --      1.1171                 0.5865                 0.5204
 IR Inten    --     27.1556                 2.6974                60.4897

                     34                     35                     36
                      A                      A                      A
 Frequencies --    826.6815               869.9541               880.0443
 Red. masses --      2.1260                 1.8772                 2.4416
 Frc consts  --      0.8560                 0.8371                 1.1141
 IR Inten    --      7.9173                 4.1562                24.6356

                     37                     38                     39
                      A                      A                      A
 Frequencies --    895.0075               922.0473               939.5917
 Red. masses --      1.9560                 1.9895                 2.3675
 Frc consts  --      0.9231                 0.9966                 1.2315
 IR Inten    --      0.8576                12.6422                 1.5838

                     40                     41                     42
                      A                      A                      A
 Frequencies --    974.9254               992.7382              1008.0529
 Red. masses --      1.9345                 1.4738                 1.5859
 Frc consts  --      1.0833                 0.8558                 0.9495
 IR Inten    --      1.7094                30.6018                14.3526

                     43                     44                     45
                      A                      A                      A
 Frequencies --   1008.4468              1021.3972              1030.7654
 Red. masses --      1.9307                 1.9356                 2.7978
 Frc consts  --      1.1569                 1.1898                 1.7514
 IR Inten    --      0.9832                14.2911                15.8431

                     46                     47                     48
                      A                      A                      A
 Frequencies --   1054.7919              1079.3271              1085.8650
 Red. masses --      1.7690                 1.7444                 2.2239
 Frc consts  --      1.1596                 1.1973                 1.5449
 IR Inten    --      2.5053                 0.7334                28.9846

                     49                     50                     51
                      A                      A                      A
 Frequencies --   1098.7829              1113.7915              1129.3352
 Red. masses --      1.8171                 6.3431                 2.1783
 Frc consts  --      1.2926                 4.6362                 1.6369
 IR Inten    --      9.1804               179.3052                 4.2091

                     52                     53                     54
                      A                      A                      A
 Frequencies --   1162.1787              1168.2822              1177.2928
 Red. masses --      2.9862                 2.3680                 2.3621
 Frc consts  --      2.3764                 1.9043                 1.9289
 IR Inten    --     64.5818                13.4388                39.7664

                     55                     56                     57
                      A                      A                      A
 Frequencies --   1193.6562              1198.6720              1229.4631
 Red. masses --      2.3943                 1.4997                 1.4004
 Frc consts  --      2.0099                 1.2695                 1.2472
 IR Inten    --     50.2142                 4.2624                 3.6872

                     58                     59                     60
                      A                      A                      A
 Frequencies --   1240.5123              1256.6093              1268.3828
 Red. masses --      1.7130                 1.4412                 1.3501
 Frc consts  --      1.5532                 1.3408                 1.2797
 IR Inten    --     10.6963                 1.7742                 4.0357

                     61                     62                     63
                      A                      A                      A
 Frequencies --   1274.2393              1286.0420              1299.5625
 Red. masses --      1.2296                 5.6756                 1.4012
 Frc consts  --      1.1763                 5.5306                 1.3943
 IR Inten    --      7.2716               174.9315                 7.5498

                     64                     65                     66
                      A                      A                      A
 Frequencies --   1311.0771              1333.0604              1347.9129
 Red. masses --      1.2956                 1.2949                 1.4093
 Frc consts  --      1.3122                 1.3557                 1.5086
 IR Inten    --      0.3572                 5.8264                 0.6381

                     67                     68                     69
                      A                      A                      A
 Frequencies --   1355.9338              1366.5688              1376.5346
 Red. masses --      1.2466                 1.2238                 1.3773
 Frc consts  --      1.3504                 1.3465                 1.5377
 IR Inten    --      8.4285                24.2588                 7.9205

                     70                     71                     72
                      A                      A                      A
 Frequencies --   1402.5431              1404.4398              1425.3750
 Red. masses --      1.3344                 1.3162                 1.3557
 Frc consts  --      1.5466                 1.5296                 1.6228
 IR Inten    --     10.0065                16.3786                 0.9264

                     73                     74                     75
                      A                      A                      A
 Frequencies --   1433.0465              1454.9386              1473.9659
 Red. masses --      1.3083                 1.2093                 1.0609
 Frc consts  --      1.5829                 1.5083                 1.3581
 IR Inten    --     12.4635                 3.2478                 2.6635

                     76                     77                     78
                      A                      A                      A
 Frequencies --   1503.3669              1504.5928              1505.3337
 Red. masses --      1.1588                 1.0812                 1.0548
 Frc consts  --      1.5431                 1.4421                 1.4083
 IR Inten    --      2.8380                 1.4242                 8.3137

                     79                     80                     81
                      A                      A                      A
 Frequencies --   1515.0041              1517.6668              1521.0187
 Red. masses --      1.0488                 1.0664                 1.0756
 Frc consts  --      1.4183                 1.4472                 1.4661
 IR Inten    --      4.7494                 2.0471                 2.0742

                     82                     83                     84
                      A                      A                      A
 Frequencies --   1527.3723              1528.3718              1533.0923
 Red. masses --      1.0659                 1.1071                 1.0712
 Frc consts  --      1.4651                 1.5237                 1.4835
 IR Inten    --      2.4513                 9.5719                13.5360

                     85                     86                     87
                      A                      A                      A
 Frequencies --   1536.5760              1549.6786              1555.0728
 Red. masses --      1.0923                 1.0913                 1.0929
 Frc consts  --      1.5195                 1.5440                 1.5571
 IR Inten    --     12.1620                24.1889                10.8383

                     88                     89                     90
                      A                      A                      A
 Frequencies --   1558.0327              2983.1885              2995.8346
 Red. masses --      1.0899                 1.0524                 1.0532
 Frc consts  --      1.5588                 5.5182                 5.5694
 IR Inten    --      2.8864                36.6891                 7.6480

                     91                     92                     93
                      A                      A                      A
 Frequencies --   3000.4643              3016.3271              3040.8786
 Red. masses --      1.0595                 1.1037                 1.1050
 Frc consts  --      5.6202                 5.9162                 6.0205
 IR Inten    --    100.6967                69.3711                62.4773

                     94                     95                     96
                      A                      A                      A
 Frequencies --   3062.0752              3062.6129              3065.2423
 Red. masses --      1.0609                 1.0598                 1.0484
 Frc consts  --      5.8606                 5.8568                 5.8036
 IR Inten    --     50.4618                15.2137                21.0081

                     97                     98                     99
                      A                      A                      A
 Frequencies --   3075.5682              3080.1683              3081.4918
 Red. masses --      1.0665                 1.0393                 1.0636
 Frc consts  --      5.9439                 5.8092                 5.9505
 IR Inten    --     40.4162                24.5133                16.4695

                    100                    101                    102
                      A                      A                      A
 Frequencies --   3094.9946              3100.4116              3106.5230
 Red. masses --      1.0648                 1.1011                 1.1068
 Frc consts  --      6.0096                 6.2360                 6.2929
 IR Inten    --     14.4479                10.2226                27.3820

                    103                    104                    105
                      A                      A                      A
 Frequencies --   3115.0178              3117.7889              3132.9748
 Red. masses --      1.0908                 1.1046                 1.0980
 Frc consts  --      6.2360                 6.3264                 6.3500
 IR Inten    --     10.7955                26.0246                27.8591

                    106                    107                    108
                      A                      A                      A
 Frequencies --   3138.3141              3143.3752              3162.2655
 Red. masses --      1.0973                 1.1039                 1.0994
 Frc consts  --      6.3675                 6.4262                 6.4777
 IR Inten    --     28.3601                18.5055                21.7663

                    109                    110                    111
                      A                      A                      A
 Frequencies --   3186.9514              3194.0789              3501.5011
 Red. masses --      1.1065                 1.1081                 1.0727
 Frc consts  --      6.6217                 6.6610                 7.7486
 IR Inten    --      2.7348                 7.0368                 1.5134

 - Thermochemistry -
 -------------------
 Temperature   298.150 Kelvin.  Pressure   1.00000 Atm.
 Atom     1 has atomic number  6 and mass  12.00000

 Molecular mass:   249.13987 amu.
 Principal axes and moments of inertia in atomic units:
                           1         2         3
     Eigenvalues --  2581.998275625.903576862.29924
           X            0.99975  -0.01535  -0.01637
           Y            0.01506   0.99973  -0.01781
           Z            0.01664   0.01756   0.99971
 This molecule is an asymmetric top.
 Rotational symmetry number  1.
 Warning -- assumption of classical behavior for rotation
           may cause significant error
 Rotational temperatures (Kelvin)      0.03355     0.01540     0.01262
 Rotational constants (GHZ):           0.69897     0.32079     0.26299
 Zero-point vibrational energy     909069.3 (Joules/Mol)
                                  217.27278 (Kcal/Mol)
 Warning -- explicit consideration of  27 degrees of freedom as
           vibrations may cause significant error
 Vibrational temperatures:     26.66    42.54    99.19   118.33   136.68
          (Kelvin)            154.50   198.29   212.63   246.04   272.82
                              288.98   329.31   330.78   354.27   371.64
                              393.47   415.28   433.21   480.04   488.70
                              534.97   577.14   591.57   628.04   696.70
                              750.39   813.17   897.91   978.84  1027.76
                             1071.90  1133.50  1162.14  1189.41  1251.67
                             1266.19  1287.72  1326.62  1351.86  1402.70
                             1428.33  1450.36  1450.93  1469.56  1483.04
                             1517.61  1552.91  1562.32  1580.90  1602.50
                             1624.86  1672.12  1680.90  1693.86  1717.41
                             1724.62  1768.92  1784.82  1807.98  1824.92
                             1833.35  1850.33  1869.78  1886.35  1917.98
                             1939.35  1950.89  1966.19  1980.53  2017.95
                             2020.68  2050.80  2061.83  2093.33  2120.71
                             2163.01  2164.77  2165.84  2179.75  2183.58
                             2188.41  2197.55  2198.99  2205.78  2210.79
                             2229.64  2237.40  2241.66  4292.14  4310.34
                             4317.00  4339.82  4375.15  4405.64  4406.42
                             4410.20  4425.06  4431.68  4433.58  4453.01
                             4460.80  4469.59  4481.82  4485.80  4507.65
                             4515.33  4522.62  4549.79  4585.31  4595.57
                             5037.88

 Zero-point correction=                           0.346246 (Hartree/Particle)
 Thermal correction to Energy=                    0.364524
 Thermal correction to Enthalpy=                  0.365468
 Thermal correction to Gibbs Free Energy=         0.299271
 Sum of electronic and zero-point Energies=          -1111.282011
 Sum of electronic and thermal Energies=             -1111.263733
 Sum of electronic and thermal Enthalpies=           -1111.262789
 Sum of electronic and thermal Free Energies=        -1111.328986

                     E (Thermal)             CV                S
                      KCal/Mol        Cal/Mol-Kelvin    Cal/Mol-Kelvin
 Total                  228.742             68.208            139.324
 Electronic               0.000              0.000              0.000
 Translational            0.889              2.981             42.439
 Rotational               0.889              2.981             32.966
 Vibrational            226.965             62.247             63.919
 Vibration     1          0.593              1.986              6.786
 Vibration     2          0.593              1.984              5.858
 Vibration     3          0.598              1.969              4.183
 Vibration     4          0.600              1.961              3.837
 Vibration     5          0.603              1.953              3.554
 Vibration     6          0.606              1.943              3.316
 Vibration     7          0.614              1.916              2.834
 Vibration     8          0.617              1.905              2.701
 Vibration     9          0.626              1.878              2.424
 Vibration    10          0.633              1.854              2.232
 Vibration    11          0.638              1.839              2.125
 Vibration    12          0.652              1.797              1.888
 Vibration    13          0.652              1.795              1.880
 Vibration    14          0.661              1.769              1.757
 Vibration    15          0.667              1.749              1.673
 Vibration    16          0.676              1.722              1.574
 Vibration    17          0.685              1.695              1.482
 Vibration    18          0.693              1.672              1.411
 Vibration    19          0.715              1.608              1.242
 Vibration    20          0.720              1.596              1.214
 Vibration    21          0.744              1.530              1.072
 Vibration    22          0.767              1.468              0.958
 Vibration    23          0.775              1.446              0.923
 Vibration    24          0.797              1.391              0.838
 Vibration    25          0.840              1.285              0.699
 Vibration    26          0.877              1.202              0.606
 Vibration    27          0.921              1.107              0.514

 Optimization completed.
    -- Stationary point found.
 Normal termination of Gaussian 16 at Fri Dec 11 00:59:55 2020.

 ----------------------------------------------------------------------
 # B3LYP/6-311++G(d,p) empiricaldispersion=gd3bj scf=xqc pop=npa geom=c
 heck
 ----------------------------------------------------------------------

 --------------------------------------
 CID_79680184_JID_6808_Energie_neutraal
 --------------------------------------
 Structure from the checkpoint file:  "JID_6808.chk"
 Charge =  0 Multiplicity = 1

 SCF Done:  E(RB3LYP) =  -1111.86463750     A.U. after   16 cycles
 Normal termination of Gaussian 16 at Fri Dec 11 01:07:59 2020.

 ----------------------------------------------------------------------
 # B3LYP/6-311++G(d,p) empiricaldispersion=gd3bj scf=xqc pop=npa geom=c
 heck
 ----------------------------------------------------------------------

 ------------------------------------
 CID_79680184_JID_6808_Energie_kation
 ------------------------------------
 Structure from the checkpoint file:  "JID_6808.chk"
 Charge =  1 Multiplicity = 2

 SCF Done:  E(UB3LYP) =  -1111.54828280     A.U. after   27 cycles
 Normal termination of Gaussian 16 at Fri Dec 11 01:25:08 2020.
 Gaussian 16:  ES64L-G16RevA.03 25-Dec-2016

 ----------------------------------------------------------------------
 # B3LYP/6-311++G(d,p) empiricaldispersion=gd3bj scf=xqc pop=npa geom=c
 heck
 ----------------------------------------------------------------------

 -----------------------------------
 CID_79680184_JID_6808_Energie_anion
 -----------------------------------
 Structure from the checkpoint file:  "JID_6808.chk"
 Charge = -1 Multiplicity = 2

                         Standard orientation:
 ---------------------------------------------------------------------
 Center     Atomic      Atomic             Coordinates (Angstroms)
 Number     Number       Type             X           Y           Z
 ---------------------------------------------------------------------
      1          6           0       -2.098944    1.775032    1.483442
      2          6           0       -0.751195    1.259975    0.955946
      3          6           0        0.079344    2.434789    0.388481
      4          6           0       -0.416216    2.611708   -1.071926
      5          6           0       -1.152976    1.293971   -1.443213
      6          6           0       -0.812133    0.327414   -0.286988
      7          6           0        0.541470   -0.347922   -0.586487
      8          7           0        1.110624   -1.050231    0.561405
      9          6           0        2.268956   -1.876378    0.221795
     10          6           0        3.442937   -1.098125   -0.376166
     11          8           0        3.705922   -0.003761    0.485793
     12          6           0        4.753148    0.821395    0.022102
     13         16           0       -2.113326   -0.987981   -0.219724
     14          8           0       -3.438492   -0.337911   -0.211362
     15          8           0       -1.800691   -1.968335   -1.279202
     16          6           0       -1.882215   -1.819871    1.365716
     17          1           0       -1.909228    2.486726    2.294730
     18          1           0       -2.669006    2.291258    0.706123
     19          1           0       -2.742404    0.982233    1.868028
     20          1           0       -0.229650    0.763866    1.781232
     21          1           0       -0.049911    3.340723    0.988861
     22          1           0        1.146562    2.188406    0.407578
     23          1           0        0.420021    2.807482   -1.749682
     24          1           0       -1.096676    3.463872   -1.157213
     25          1           0       -0.838558    0.882046   -2.406121
     26          1           0       -2.233598    1.444260   -1.491924
     27          1           0        0.377566   -1.074870   -1.386672
     28          1           0        1.215054    0.425319   -0.987228
     29          1           0        1.436843   -0.358185    1.233373
     30          1           0        2.601987   -2.371038    1.141080
     31          1           0        1.955684   -2.658048   -0.480273
     32          1           0        4.328307   -1.749105   -0.465590
     33          1           0        3.202061   -0.731245   -1.387277
     34          1           0        5.704660    0.270953   -0.042985
     35          1           0        4.527405    1.241079   -0.971167
     36          1           0        4.863219    1.639347    0.738588
     37          1           0       -0.834855   -2.119837    1.425939
     38          1           0       -2.145452   -1.139877    2.176870
     39          1           0       -2.558137   -2.677930    1.351442
 ---------------------------------------------------------------------

 SCF Done:  E(UB3LYP) =  -1111.85534912     A.U. after   28 cycles

 The electronic state is 2-A.
 Alpha  occ. eigenvalues --  -88.94702 -19.03593 -19.01778 -19.01740 -14.21365
 Alpha  occ. eigenvalues --  -10.12839 -10.12362 -10.11311 -10.11159 -10.10983
 Alpha  occ. eigenvalues --  -10.10772 -10.09964 -10.08673 -10.08077 -10.07817
 Alpha  occ. eigenvalues --  -10.07292  -8.01233  -5.97497  -5.97386  -5.97314
 Alpha  occ. eigenvalues --   -1.00861  -0.94870  -0.90513  -0.82852  -0.77206
 Alpha  occ. eigenvalues --   -0.68958  -0.67226  -0.65999  -0.64242  -0.59883
 Alpha  occ. eigenvalues --   -0.57776  -0.56062  -0.53383  -0.50904  -0.48297
 Alpha  occ. eigenvalues --   -0.45176  -0.43332  -0.42110  -0.40187  -0.39580
 Alpha  occ. eigenvalues --   -0.38806  -0.38285  -0.37894  -0.36442  -0.35645
 Alpha  occ. eigenvalues --   -0.35233  -0.34462  -0.33753  -0.32426  -0.31876
 Alpha  occ. eigenvalues --   -0.31527  -0.30895  -0.29841  -0.28603  -0.28143
 Alpha  occ. eigenvalues --   -0.27695  -0.25864  -0.24756  -0.24520  -0.24508
 Alpha  occ. eigenvalues --   -0.23534  -0.23474  -0.23040  -0.22250  -0.20646
 Alpha  occ. eigenvalues --   -0.19197  -0.17368  -0.14917   0.03945
 Alpha virt. eigenvalues --    0.05926   0.06490   0.07401   0.07806   0.08463
 Alpha virt. eigenvalues --    0.08603   0.09196   0.09830   0.10403   0.10874
 Alpha virt. eigenvalues --    0.11005   0.11390   0.12005   0.12153   0.12157

  Beta  occ. eigenvalues --  -88.94701 -19.03579 -19.01776 -19.01736 -14.21360
  Beta  occ. eigenvalues --  -10.12838 -10.12337 -10.11256 -10.11141 -10.10971
  Beta  occ. eigenvalues --  -10.10761 -10.09958 -10.08669 -10.08055 -10.07796
  Beta  occ. eigenvalues --  -10.07275  -8.01231  -5.97496  -5.97384  -5.97313
  Beta  occ. eigenvalues --   -1.00854  -0.94850  -0.90506  -0.82838  -0.77189
  Beta  occ. eigenvalues --   -0.68935  -0.67200  -0.65970  -0.64207  -0.59841
  Beta  occ. eigenvalues --   -0.57711  -0.56007  -0.53355  -0.50838  -0.48247
  Beta  occ. eigenvalues --   -0.45155  -0.43310  -0.42078  -0.40125  -0.39538
  Beta  occ. eigenvalues --   -0.38791  -0.38261  -0.37871  -0.36410  -0.35617
  Beta  occ. eigenvalues --   -0.35204  -0.34433  -0.33739  -0.32396  -0.31852
  Beta  occ. eigenvalues --   -0.31503  -0.30873  -0.29815  -0.28562  -0.28118
  Beta  occ. eigenvalues --   -0.27667  -0.25832  -0.24734  -0.24492  -0.24481
  Beta  occ. eigenvalues --   -0.23515  -0.23401  -0.23024  -0.22240  -0.20642
  Beta  occ. eigenvalues --   -0.19185  -0.17337  -0.14904
  Beta virt. eigenvalues --    0.06054   0.06838   0.07041   0.07843   0.08294
  Beta virt. eigenvalues --    0.08791   0.08960   0.09500   0.10149   0.10757
  Beta virt. eigenvalues --    0.11092   0.11379   0.11654   0.12209   0.12369

 Mulliken charges and spin densities:
               1          2
     1  C    0.385326  -1.084051
     2  C   -0.499615   0.593323
     3  C   -0.621352   0.158250
     4  C    0.837402  -1.345325
     5  C   -1.399102   0.994034
     6  C    1.620225  -0.801295
     7  C   -1.905071   0.134291
     8  N    0.095166   0.008762
     9  C    0.113492  -0.252315
    10  C   -0.056838  -0.338211
    11  O   -0.208910   0.067977
    12  C    1.288131  -1.540679
    13  S    0.429253  -0.053924
    14  O   -0.119478   0.003873
    15  O   -0.104068  -0.007630
    16  C   -0.284660  -0.358682
    17  H   -0.073474   0.212410
    18  H    0.136783   0.067222
    19  H    0.212837  -0.063651
    20  H   -0.195557   0.402407
    21  H   -0.486485   0.665707
    22  H    0.201133  -0.030140
    23  H   -0.450538   0.624750
    24  H    0.066293   0.085244
    25  H    0.146241   0.028686
    26  H    0.121398   0.100393
    27  H    0.133074   0.131316
    28  H    0.976905  -0.769554
    29  H    0.239804   0.035491
    30  H   -0.100138   0.294604
    31  H    0.133151   0.009075
    32  H   -0.378818   0.545904
    33  H   -0.212116   0.362858
    34  H   -0.392212   0.519255
    35  H   -0.443252   0.583637
    36  H   -0.418647   0.561737
    37  H    0.116387   0.132252
    38  H   -0.080188   0.268599
    39  H    0.177520   0.053400
 Sum of Mulliken charges =  -1.00000   1.00000

 Dipole moment (field-independent basis, Debye):
    X=             -6.0062    Y=             -2.8458    Z=              0.9440  Tot=              6.7129
 Quadrupole moment (field-independent basis, Debye-Ang):
   XX=           -205.9326   YY=           -156.4830   ZZ=           -145.5946
   XY=             -9.0256   XZ=             -1.4175   YZ=             -4.1761

 Summary of Natural Population Analysis:

                                       Natural Population
                Natural  -----------------------------------------------
    Atom  No    Charge         Core      Valence    Rydberg      Total
 -----------------------------------------------------------------------
      C    1   -0.28570      0.99964     2.27960    0.00646     3.28570
      C    2   -0.12228      0.99955     2.11047    0.01227     3.12228
      C    3   -0.19193      0.99962     2.18216    0.01014     3.19193
      C    4   -0.19450      0.99964     2.18633    0.00853     3.19450
      C    5   -0.20351      0.99958     2.19324    0.01069     3.20351
      C    6   -0.11165      0.99947     2.09380    0.01838     3.11165
      C    7   -0.10613      0.99954     2.09261    0.01398     3.10613
      N    8   -0.34847      0.99975     2.83691    0.01182     3.84847
      C    9   -0.09173      0.99962     2.08025    0.01185     3.09173
      C   10   -0.01833      0.99959     2.00718    0.01156     3.01833
      O   11   -0.30376      0.99988     3.29378    0.01009     4.30376
      C   12   -0.09573      0.99962     2.08668    0.00943     3.09573
      S   13    1.03017      4.99913     1.87939    0.09131     6.96983
      O   14   -0.47466      0.99991     3.46941    0.00534     4.47466
      O   15   -0.47528      0.99991     3.47017    0.00519     4.47528
      C   16   -0.39676      0.99960     2.38941    0.00775     3.39676
      H   17    0.10042      0.00000     0.39871    0.00087     0.39958
      H   18    0.10221      0.00000     0.39692    0.00087     0.39779
      H   19    0.10268      0.00000     0.39638    0.00094     0.39732
      H   20    0.10323      0.00000     0.39476    0.00201     0.39677
      H   21    0.10405      0.00000     0.39472    0.00123     0.39595
      H   22    0.10432      0.00000     0.39362    0.00206     0.39568
      H   23    0.10478      0.00000     0.39394    0.00128     0.39522
      H   24    0.09971      0.00000     0.39937    0.00092     0.40029
      H   25    0.10689      0.00000     0.39218    0.00093     0.39311
      H   26    0.11297      0.00000     0.38585    0.00118     0.38703
      H   27    0.11155      0.00000     0.38709    0.00137     0.38845
      H   28    0.09463      0.00000     0.40315    0.00222     0.40537
      H   29    0.17906      0.00000     0.31679    0.00414     0.32094
      H   30    0.09565      0.00000     0.40332    0.00103     0.40435
      H   31    0.09449      0.00000     0.40459    0.00092     0.40551
      H   32    0.08392      0.00000     0.41443    0.00164     0.41608
      H   33    0.07930      0.00000     0.41916    0.00155     0.42070
      H   34    0.07930      0.00000     0.41828    0.00242     0.42070
      H   35    0.08126      0.00000     0.41626    0.00248     0.41874
      H   36    0.09235      0.00000     0.40604    0.00161     0.40765
      H   37    0.13066      0.00000     0.36781    0.00154     0.36934
      H   38    0.11221      0.00000     0.38652    0.00127     0.38779
      H   39    0.11460      0.00000     0.38441    0.00099     0.38540
 =======================================================================
   * Total *   -0.00000     19.99406    47.72568    0.28026    68.00000

 Normal termination of Gaussian 16 at Fri Dec 11 01:42:21 2020.
