 Gaussian 16, Revision A.03,

 -----------------------------------------------------------
 # opt freq B3LYP/6-31G(d) empiricaldispersion=gd3bj scf=xqc
 -----------------------------------------------------------

 ------------------------------
 CID_81727988_JID_9023_neutraal
 ------------------------------
 Symbolic Z-matrix:
 Charge =  0 Multiplicity = 1

 SCF Done:  E(RB3LYP) =  -887.919706722     A.U. after   14 cycles
 SCF Done:  E(RB3LYP) =  -887.928806043     A.U. after   13 cycles
 SCF Done:  E(RB3LYP) =  -887.930978943     A.U. after   12 cycles
 SCF Done:  E(RB3LYP) =  -887.933340790     A.U. after   13 cycles
 SCF Done:  E(RB3LYP) =  -887.934137948     A.U. after   12 cycles
 SCF Done:  E(RB3LYP) =  -887.934650525     A.U. after   11 cycles
 SCF Done:  E(RB3LYP) =  -887.935000053     A.U. after   12 cycles
 SCF Done:  E(RB3LYP) =  -887.935307966     A.U. after   12 cycles
 SCF Done:  E(RB3LYP) =  -887.935610032     A.U. after   13 cycles
 SCF Done:  E(RB3LYP) =  -887.935676689     A.U. after   11 cycles
 SCF Done:  E(RB3LYP) =  -887.936765106     A.U. after    8 cycles
 SCF Done:  E(RB3LYP) =  -887.936765425     A.U. after    8 cycles
 SCF Done:  E(RB3LYP) =  -887.936765735     A.U. after    8 cycles
 SCF Done:  E(RB3LYP) =  -887.936765980     A.U. after    8 cycles
 SCF Done:  E(RB3LYP) =  -887.936766075     A.U. after    7 cycles
 Optimization completed.
    -- Stationary point found.
 Normal termination of Gaussian 16 at Sun Dec 13 16:36:55 2020.

 --------------------------------------------------------------------
 #N Geom=AllCheck Guess=TCheck SCRF=Check GenChk RB3LYP/6-31G(d) Freq
 --------------------------------------------------------------------

 Structure from the checkpoint file:  "JID_9023.chk"
 ------------------------------
 CID_81727988_JID_9023_neutraal
 ------------------------------
 Charge =  0 Multiplicity = 1

 SCF Done:  E(RB3LYP) =  -887.936766075     A.U. after    1 cycles

  Exact polarizability: 195.703  -1.666 167.539   0.954  -7.896 117.044
 Approx polarizability: 262.022  -4.130 275.985  -0.525 -29.059 189.528

                      1                      2                      3
                      A                      A                      A
 Frequencies --     23.2721                34.6636                59.8759
 Red. masses --      4.5087                 4.6416                 4.5912
 Frc consts  --      0.0014                 0.0033                 0.0097
 IR Inten    --      1.3021                 2.8614                 6.5444

                      4                      5                      6
                      A                      A                      A
 Frequencies --     71.6053               106.9654               115.0250
 Red. masses --      3.9551                 1.1022                 1.4178
 Frc consts  --      0.0119                 0.0074                 0.0111
 IR Inten    --      2.8521                 0.2845                 0.3491

                      7                      8                      9
                      A                      A                      A
 Frequencies --    124.6124               136.6092               142.3565
 Red. masses --      2.1883                 3.4340                 3.6257
 Frc consts  --      0.0200                 0.0378                 0.0433
 IR Inten    --      2.4519                 1.0199                 0.4178

                     10                     11                     12
                      A                      A                      A
 Frequencies --    157.9103               186.4353               195.6234
 Red. masses --      3.3874                 2.6013                 1.4213
 Frc consts  --      0.0498                 0.0533                 0.0320
 IR Inten    --      8.6836                 0.2579                 0.2459

                     13                     14                     15
                      A                      A                      A
 Frequencies --    205.3685               221.1748               230.6034
 Red. masses --      3.1892                 2.4954                 3.5313
 Frc consts  --      0.0793                 0.0719                 0.1106
 IR Inten    --      0.7340                 1.1283                 8.4885

                     16                     17                     18
                      A                      A                      A
 Frequencies --    238.8327               255.0748               285.5822
 Red. masses --      4.2927                 1.3109                 4.6624
 Frc consts  --      0.1443                 0.0503                 0.2240
 IR Inten    --      8.5370                 0.3198                 1.0010

                     19                     20                     21
                      A                      A                      A
 Frequencies --    320.1587               348.3370               375.8498
 Red. masses --      3.0026                 4.3418                 3.3450
 Frc consts  --      0.1813                 0.3104                 0.2784
 IR Inten    --      5.8096                19.9925                 3.2768

                     22                     23                     24
                      A                      A                      A
 Frequencies --    417.9001               430.7328               476.1135
 Red. masses --      3.9640                 4.0939                 3.1051
 Frc consts  --      0.4079                 0.4475                 0.4147
 IR Inten    --      6.9393                 1.5760                32.1161

                     25                     26                     27
                      A                      A                      A
 Frequencies --    524.2277               552.3068               565.3292
 Red. masses --      4.8113                 2.2524                 1.5839
 Frc consts  --      0.7790                 0.4048                 0.2982
 IR Inten    --      8.7598                29.3297                94.9170

                     28                     29                     30
                      A                      A                      A
 Frequencies --    597.5046               642.8081               644.8289
 Red. masses --      4.3350                 2.2400                 3.8505
 Frc consts  --      0.9118                 0.5453                 0.9433
 IR Inten    --     11.5582                43.8840                12.9681

                     31                     32                     33
                      A                      A                      A
 Frequencies --    671.1974               691.1630               711.1894
 Red. masses --      5.0249                 8.4197                 4.6348
 Frc consts  --      1.3338                 2.3698                 1.3812
 IR Inten    --      5.9682                 7.7499                 9.7190

                     34                     35                     36
                      A                      A                      A
 Frequencies --    719.6999               742.8343               766.3371
 Red. masses --      3.1640                 6.2063                 3.4761
 Frc consts  --      0.9656                 2.0177                 1.2028
 IR Inten    --     11.2439                 5.9168                20.1784

                     37                     38                     39
                      A                      A                      A
 Frequencies --    798.0615               808.5228               888.7488
 Red. masses --      8.9307                 1.3957                 5.1780
 Frc consts  --      3.3513                 0.5376                 2.4098
 IR Inten    --     17.2592                 7.8749                10.0064

                     40                     41                     42
                      A                      A                      A
 Frequencies --    950.5494               973.4532               982.2032
 Red. masses --      1.9780                 6.6820                 1.4367
 Frc consts  --      1.0530                 3.7307                 0.8166
 IR Inten    --      4.5630                 2.3839                 1.1240

                     43                     44                     45
                      A                      A                      A
 Frequencies --   1008.5639              1020.3394              1052.4965
 Red. masses --      3.2343                 8.1949                 6.0720
 Frc consts  --      1.9384                 5.0267                 3.9630
 IR Inten    --     12.7955                41.5015                 4.3510

                     46                     47                     48
                      A                      A                      A
 Frequencies --   1063.6976              1085.1794              1106.5941
 Red. masses --      2.2045                 1.6149                 2.3499
 Frc consts  --      1.4696                 1.1204                 1.6954
 IR Inten    --      8.7264                11.7758                 5.4037

                     49                     50                     51
                      A                      A                      A
 Frequencies --   1131.4884              1161.7558              1162.4871
 Red. masses --      1.7787                 1.3275                 1.3195
 Frc consts  --      1.3417                 1.0556                 1.0506
 IR Inten    --     19.7408                38.0548                 0.7917

                     52                     53                     54
                      A                      A                      A
 Frequencies --   1166.2812              1188.6935              1204.4177
 Red. masses --      3.2213                 1.2557                 2.0702
 Frc consts  --      2.5816                 1.0454                 1.7694
 IR Inten    --     51.6351                 1.8763                76.7289

                     55                     56                     57
                      A                      A                      A
 Frequencies --   1207.1846              1230.8134              1233.9277
 Red. masses --      2.7491                 1.9236                 1.9822
 Frc consts  --      2.3604                 1.7169                 1.7782
 IR Inten    --     33.1652                25.2051                34.6660

                     58                     59                     60
                      A                      A                      A
 Frequencies --   1262.5974              1292.1801              1334.2821
 Red. masses --      2.9856                 3.0615                 1.7490
 Frc consts  --      2.8042                 3.0118                 1.8346
 IR Inten    --     30.2263                46.9401                17.9907

                     61                     62                     63
                      A                      A                      A
 Frequencies --   1355.8218              1364.0979              1371.6537
 Red. masses --      2.4317                 2.7692                 1.9844
 Frc consts  --      2.6337                 3.0360                 2.1998
 IR Inten    --     10.1659                60.4786                35.4091

                     64                     65                     66
                      A                      A                      A
 Frequencies --   1386.6977              1430.9777              1436.7361
 Red. masses --      2.3257                 1.4443                 2.9498
 Frc consts  --      2.6349                 1.7424                 3.5876
 IR Inten    --     22.7712                10.8414                 9.5175

                     67                     68                     69
                      A                      A                      A
 Frequencies --   1442.9350              1469.4515              1476.3679
 Red. masses --      1.7180                 1.7712                 1.2709
 Frc consts  --      2.1075                 2.2534                 1.6322
 IR Inten    --     52.2297                50.9192                40.1548

                     70                     71                     72
                      A                      A                      A
 Frequencies --   1479.1432              1496.6822              1508.0021
 Red. masses --      1.4727                 1.2184                 1.0571
 Frc consts  --      1.8984                 1.6080                 1.4164
 IR Inten    --      2.3398                15.2855                 6.4938

                     73                     74                     75
                      A                      A                      A
 Frequencies --   1509.8810              1513.8902              1520.4571
 Red. masses --      1.1021                 1.0661                 1.3036
 Frc consts  --      1.4804                 1.4396                 1.7756
 IR Inten    --     89.8876                18.3700                38.0973

                     76                     77                     78
                      A                      A                      A
 Frequencies --   1525.8045              1531.7766              1533.9720
 Red. masses --      1.0581                 1.2672                 1.1175
 Frc consts  --      1.4513                 1.7518                 1.5494
 IR Inten    --      6.9494               103.3820                10.2124

                     79                     80                     81
                      A                      A                      A
 Frequencies --   1538.3510              1545.2754              1555.5153
 Red. masses --      1.1576                 1.5339                 3.0244
 Frc consts  --      1.6141                 2.1580                 4.3116
 IR Inten    --      5.2954               169.6037                58.9503

                     82                     83                     84
                      A                      A                      A
 Frequencies --   1567.4582              1584.5098              1632.8586
 Red. masses --      3.0719                 3.3499                 3.9582
 Frc consts  --      4.4469                 4.9553                 6.2179
 IR Inten    --      9.8219               160.3680                78.8339

                     85                     86                     87
                      A                      A                      A
 Frequencies --   1653.6001              3033.9278              3045.0212
 Red. masses --      5.4292                 1.0499                 1.0335
 Frc consts  --      8.7467                 5.6938                 5.6463
 IR Inten    --    644.6311                82.4987                36.8696

                     88                     89                     90
                      A                      A                      A
 Frequencies --   3050.7947              3079.4304              3108.0122
 Red. masses --      1.0387                 1.0335                 1.1052
 Frc consts  --      5.6958                 5.7742                 6.2901
 IR Inten    --     18.1636                28.7027                31.4559

                     91                     92                     93
                      A                      A                      A
 Frequencies --   3108.3608              3118.7644              3125.6474
 Red. masses --      1.0917                 1.0866                 1.0950
 Frc consts  --      6.2146                 6.2272                 6.3029
 IR Inten    --     15.0671                32.5946                24.8524

                     94                     95                     96
                      A                      A                      A
 Frequencies --   3149.9051              3152.6079              3166.3692
 Red. masses --      1.1039                 1.1016                 1.1035
 Frc consts  --      6.4529                 6.4506                 6.5183
 IR Inten    --     11.9475                12.6101                11.7123

                     97                     98                     99
                      A                      A                      A
 Frequencies --   3172.7044              3176.5996              3186.7995
 Red. masses --      1.1058                 1.0903                 1.1016
 Frc consts  --      6.5582                 6.4819                 6.5917
 IR Inten    --     10.8134                42.4078                 7.8110

                    100                    101                    102
                      A                      A                      A
 Frequencies --   3271.6500              3579.2992              3610.0575
 Red. masses --      1.0979                 1.0754                 1.0760
 Frc consts  --      6.9241                 8.1173                 8.2621
 IR Inten    --      1.5730                29.3156                28.6871

 - Thermochemistry -
 -------------------
 Temperature   298.150 Kelvin.  Pressure   1.00000 Atm.
 Atom     1 has atomic number  6 and mass  12.00000

 Molecular mass:   263.14946 amu.
 Principal axes and moments of inertia in atomic units:
                           1         2         3
     Eigenvalues --  2598.353757060.548498294.40760
           X            0.99939  -0.03457   0.00526
           Y            0.03445   0.99918   0.02116
           Z           -0.00598  -0.02096   0.99976
 This molecule is an asymmetric top.
 Rotational symmetry number  1.
 Warning -- assumption of classical behavior for rotation
           may cause significant error
 Rotational temperatures (Kelvin)      0.03333     0.01227     0.01044
 Rotational constants (GHZ):           0.69457     0.25561     0.21759
 Zero-point vibrational energy     782791.4 (Joules/Mol)
                                  187.09163 (Kcal/Mol)
 Warning -- explicit consideration of  28 degrees of freedom as
           vibrations may cause significant error
 Vibrational temperatures:     33.48    49.87    86.15   103.02   153.90
          (Kelvin)            165.50   179.29   196.55   204.82   227.20
                              268.24   281.46   295.48   318.22   331.79
                              343.63   367.00   410.89   460.64   501.18
                              540.76   601.27   619.73   685.02   754.25
                              794.65   813.38   859.68   924.86   927.76
                              965.70   994.43  1023.24  1035.49  1068.77
                             1102.59  1148.23  1163.28  1278.71  1367.63
                             1400.58  1413.17  1451.10  1468.04  1514.31
                             1530.42  1561.33  1592.14  1627.96  1671.51
                             1672.56  1678.02  1710.26  1732.89  1736.87
                             1770.87  1775.35  1816.60  1859.16  1919.73
                             1950.73  1962.63  1973.50  1995.15  2058.86
                             2067.14  2076.06  2114.21  2124.16  2128.16
                             2153.39  2169.68  2172.38  2178.15  2187.60
                             2195.29  2203.88  2207.04  2213.34  2223.31
                             2238.04  2255.22  2279.76  2349.32  2379.16
                             4365.15  4381.11  4389.41  4430.61  4471.74
                             4472.24  4487.21  4497.11  4532.01  4535.90
                             4555.70  4564.81  4570.42  4585.09  4707.17
                             5149.81  5194.07

 Zero-point correction=                           0.298149 (Hartree/Particle)
 Thermal correction to Energy=                    0.316980
 Thermal correction to Enthalpy=                  0.317924
 Thermal correction to Gibbs Free Energy=         0.250337
 Sum of electronic and zero-point Energies=           -887.638617
 Sum of electronic and thermal Energies=              -887.619787
 Sum of electronic and thermal Enthalpies=            -887.618842
 Sum of electronic and thermal Free Energies=         -887.686429

                     E (Thermal)             CV                S
                      KCal/Mol        Cal/Mol-Kelvin    Cal/Mol-Kelvin
 Total                  198.908             69.100            142.249
 Electronic               0.000              0.000              0.000
 Translational            0.889              2.981             42.602
 Rotational               0.889              2.981             33.386
 Vibrational            197.130             63.139             66.260
 Vibration     1          0.593              1.985              6.333
 Vibration     2          0.594              1.983              5.543
 Vibration     3          0.597              1.973              4.461
 Vibration     4          0.598              1.968              4.109
 Vibration     5          0.606              1.944              3.323
 Vibration     6          0.608              1.937              3.182
 Vibration     7          0.610              1.928              3.028
 Vibration     8          0.614              1.917              2.851
 Vibration     9          0.616              1.911              2.772
 Vibration    10          0.621              1.894              2.575
 Vibration    11          0.632              1.858              2.263
 Vibration    12          0.636              1.846              2.174
 Vibration    13          0.640              1.832              2.084
 Vibration    14          0.648              1.809              1.949
 Vibration    15          0.652              1.794              1.874
 Vibration    16          0.657              1.781              1.812
 Vibration    17          0.665              1.754              1.695
 Vibration    18          0.683              1.700              1.500
 Vibration    19          0.706              1.635              1.309
 Vibration    20          0.726              1.579              1.174
 Vibration    21          0.747              1.522              1.056
 Vibration    22          0.781              1.431              0.899
 Vibration    23          0.792              1.403              0.856
 Vibration    24          0.833              1.303              0.721
 Vibration    25          0.879              1.196              0.600
 Vibration    26          0.908              1.135              0.539
 Vibration    27          0.921              1.106              0.513
 Vibration    28          0.955              1.037              0.454

                           ! Non-Optimized Parameters !
 Normal termination of Gaussian 16 at Sun Dec 13 16:54:57 2020.

 ----------------------------------------------------------------------
 # B3LYP/6-311++G(d,p) empiricaldispersion=gd3bj scf=xqc pop=npa geom=c
 heck
 ----------------------------------------------------------------------

 --------------------------------------
 CID_81727988_JID_9023_Energie_neutraal
 --------------------------------------
 Structure from the checkpoint file:  "JID_9023.chk"
 Charge =  0 Multiplicity = 1

 SCF Done:  E(RB3LYP) =  -888.180647240     A.U. after   17 cycles
 Normal termination of Gaussian 16 at Sun Dec 13 17:03:45 2020.

 ----------------------------------------------------------------------
 # B3LYP/6-311++G(d,p) empiricaldispersion=gd3bj scf=xqc pop=npa geom=c
 heck
 ----------------------------------------------------------------------

 ------------------------------------
 CID_81727988_JID_9023_Energie_kation
 ------------------------------------
 Structure from the checkpoint file:  "JID_9023.chk"
 Charge =  1 Multiplicity = 2

 SCF Done:  E(UB3LYP) =  -887.895024446     A.U. after   27 cycles
 Normal termination of Gaussian 16 at Sun Dec 13 17:22:56 2020.
 Gaussian 16:  ES64L-G16RevA.03 25-Dec-2016

 ----------------------------------------------------------------------
 # B3LYP/6-311++G(d,p) empiricaldispersion=gd3bj scf=xqc pop=npa geom=c
 heck
 ----------------------------------------------------------------------

 -----------------------------------
 CID_81727988_JID_9023_Energie_anion
 -----------------------------------
 Structure from the checkpoint file:  "JID_9023.chk"
 Charge = -1 Multiplicity = 2

                         Standard orientation:
 ---------------------------------------------------------------------
 Center     Atomic      Atomic             Coordinates (Angstroms)
 Number     Number       Type             X           Y           Z
 ---------------------------------------------------------------------
      1          6           0       -2.353892    1.929224    1.777771
      2          6           0       -1.457494    0.872558    1.116644
      3          6           0       -2.286110   -0.185362    0.437334
      4          7           0       -2.626438   -1.325488    0.998433
      5          7           0       -3.408800   -2.027030    0.097256
      6          6           0       -3.511498   -1.281586   -0.974509
      7          7           0       -2.829193   -0.101086   -0.824467
      8          6           0       -2.723675    0.963278   -1.812936
      9          7           0       -0.533925    1.539175    0.195663
     10          6           0        0.790392    1.208529   -0.008674
     11          7           0        1.550869    2.236080   -0.465087
     12          6           0        2.834307    1.972821   -0.679052
     13          7           0        3.489104    0.829025   -0.469274
     14          6           0        2.732586   -0.192564   -0.026379
     15          6           0        1.344275   -0.056253    0.190122
     16          8           0        0.614620   -1.145838    0.627960
     17          6           0        0.183767   -2.013921   -0.433163
     18          7           0        3.324850   -1.401911    0.200442
     19          6           0        4.769920   -1.549036    0.215313
     20          1           0       -2.927756    2.487570    1.027900
     21          1           0       -1.747311    2.639114    2.350023
     22          1           0       -3.062297    1.444438    2.454016
     23          1           0       -0.897771    0.347577    1.894051
     24          1           0       -4.050227   -1.533749   -1.877599
     25          1           0       -3.110641    1.903258   -1.410345
     26          1           0       -1.684337    1.110167   -2.109786
     27          1           0       -3.322395    0.683313   -2.682280
     28          1           0       -0.657818    2.540488    0.104839
     29          1           0        3.432375    2.799820   -1.058630
     30          1           0       -0.462801   -2.760101    0.027887
     31          1           0       -0.388220   -1.454771   -1.181797
     32          1           0        1.044789   -2.488374   -0.918804
     33          1           0        2.781446   -2.023893    0.784019
     34          1           0        5.010633   -2.614257    0.259023
     35          1           0        5.185646   -1.123393   -0.699420
     36          1           0        5.238991   -1.037996    1.067632
 ---------------------------------------------------------------------

 SCF Done:  E(UB3LYP) =  -888.173640901     A.U. after   33 cycles
 SCF Done:  E(UB3LYP) =  -888.173640901     a.u. after    1 cycles

 The electronic state is 2-A.
 Alpha  occ. eigenvalues --  -19.06091 -14.29215 -14.25194 -14.24809 -14.22986
 Alpha  occ. eigenvalues --  -14.22707 -14.21602 -14.21492 -10.16768 -10.16595
 Alpha  occ. eigenvalues --  -10.14674 -10.14483 -10.14251 -10.13794 -10.13785
 Alpha  occ. eigenvalues --  -10.12762 -10.12185 -10.11790 -10.08906  -0.97673
 Alpha  occ. eigenvalues --   -0.96995  -0.90712  -0.87632  -0.84170  -0.83216
 Alpha  occ. eigenvalues --   -0.77911  -0.73258  -0.69467  -0.67022  -0.64029
 Alpha  occ. eigenvalues --   -0.62558  -0.60713  -0.57566  -0.55385  -0.53895
 Alpha  occ. eigenvalues --   -0.53305  -0.49092  -0.48191  -0.45062  -0.43169
 Alpha  occ. eigenvalues --   -0.42693  -0.41598  -0.39943  -0.39299  -0.38786
 Alpha  occ. eigenvalues --   -0.37776  -0.36783  -0.36073  -0.35678  -0.35269
 Alpha  occ. eigenvalues --   -0.34620  -0.33261  -0.32793  -0.32156  -0.31239
 Alpha  occ. eigenvalues --   -0.31065  -0.30568  -0.29208  -0.27579  -0.26226
 Alpha  occ. eigenvalues --   -0.22929  -0.22066  -0.21779  -0.21410  -0.19803
 Alpha  occ. eigenvalues --   -0.16993  -0.16968  -0.16673  -0.15490  -0.13398
 Alpha  occ. eigenvalues --    0.03669
 Alpha virt. eigenvalues --    0.05007   0.06292   0.06844   0.07401   0.07696
 Alpha virt. eigenvalues --    0.07985   0.08048   0.08659   0.09266   0.09570
 Alpha virt. eigenvalues --    0.09879   0.10109   0.11081   0.11457   0.11550

  Beta  occ. eigenvalues --  -19.06091 -14.29212 -14.25187 -14.24800 -14.22987
  Beta  occ. eigenvalues --  -14.22702 -14.21595 -14.21489 -10.16767 -10.16590
  Beta  occ. eigenvalues --  -10.14660 -10.14481 -10.14248 -10.13777 -10.13774
  Beta  occ. eigenvalues --  -10.12743 -10.12108 -10.11763 -10.08867  -0.97667
  Beta  occ. eigenvalues --   -0.96984  -0.90697  -0.87615  -0.84154  -0.83199
  Beta  occ. eigenvalues --   -0.77898  -0.73242  -0.69446  -0.66992  -0.63937
  Beta  occ. eigenvalues --   -0.62520  -0.60680  -0.57519  -0.55358  -0.53864
  Beta  occ. eigenvalues --   -0.53285  -0.49058  -0.48165  -0.45027  -0.43106
  Beta  occ. eigenvalues --   -0.42672  -0.41577  -0.39902  -0.39268  -0.38753
  Beta  occ. eigenvalues --   -0.37752  -0.36756  -0.36031  -0.35650  -0.35242
  Beta  occ. eigenvalues --   -0.34592  -0.33215  -0.32732  -0.32110  -0.31208
  Beta  occ. eigenvalues --   -0.31036  -0.30531  -0.29170  -0.27560  -0.26200
  Beta  occ. eigenvalues --   -0.22903  -0.22053  -0.21765  -0.21394  -0.19774
  Beta  occ. eigenvalues --   -0.16984  -0.16946  -0.16662  -0.15478  -0.13371
  Beta virt. eigenvalues --    0.05579   0.06387   0.06823   0.07335   0.07502
  Beta virt. eigenvalues --    0.07739   0.08260   0.08674   0.08971   0.09413
  Beta virt. eigenvalues --    0.09940   0.10146   0.10319   0.11199   0.11555

 Mulliken charges and spin densities:
               1          2
     1  C    0.676179  -1.365775
     2  C   -0.055862   0.024026
     3  C   -1.023900   0.434569
     4  N    0.012303   0.067469
     5  N   -0.106678  -0.049551
     6  C    0.339144  -0.200993
     7  N   -0.185306   0.177958
     8  C    1.688503  -1.977949
     9  N   -0.096452   0.064150
    10  C   -0.145181  -0.345975
    11  N   -0.105904   0.054991
    12  C   -0.053892   0.132175
    13  N   -0.213744   0.005699
    14  C    0.125498   0.013220
    15  C   -0.461929   0.168034
    16  O   -0.119471   0.008043
    17  C   -0.032225  -0.390883
    18  N   -0.243568   0.076203
    19  C    0.390990  -0.728913
    20  H   -0.141272   0.316168
    21  H   -0.118750   0.288034
    22  H    0.049974   0.133429
    23  H    0.285910   0.000511
    24  H   -0.469138   0.656298
    25  H   -0.593140   0.785260
    26  H   -0.162951   0.394200
    27  H   -0.622241   0.788997
    28  H    0.254930   0.075344
    29  H    0.098424   0.100038
    30  H    0.154279   0.018864
    31  H    0.017945   0.163703
    32  H   -0.058942   0.241243
    33  H    0.195932   0.108216
    34  H   -0.307166   0.443255
    35  H    0.031685   0.152578
    36  H   -0.003985   0.167361
 Sum of Mulliken charges =  -1.00000   1.00000

 Dipole moment (field-independent basis, Debye):
    X=              4.7643    Y=             -0.2003    Z=              3.0827  Tot=              5.6781
 Quadrupole moment (field-independent basis, Debye-Ang):
   XX=           -202.8883   YY=           -165.0215   ZZ=           -154.0760
   XY=              6.2429   XZ=             -9.1239   YZ=              7.5271

 Summary of Natural Population Analysis:

                                       Natural Population
                Natural  -----------------------------------------------
    Atom  No    Charge         Core      Valence    Rydberg      Total
 -----------------------------------------------------------------------
      C    1   -0.28304      0.99964     2.27821    0.00520     3.28304
      C    2   -0.03206      0.99954     2.02015    0.01237     3.03206
      C    3    0.18751      0.99956     1.79259    0.02035     2.81249
      N    4   -0.16648      0.99968     2.65524    0.01156     3.66648
      N    5   -0.16542      0.99973     2.65273    0.01297     3.66542
      C    6    0.09886      0.99962     1.88441    0.01711     2.90114
      N    7   -0.21387      0.99961     2.70147    0.01280     3.71387
      C    8   -0.17401      0.99962     2.16613    0.00826     3.17401
      N    9   -0.31432      0.99966     2.80320    0.01146     3.81432
      C   10    0.19740      0.99948     1.78790    0.01522     2.80260
      N   11   -0.27933      0.99968     2.77033    0.00932     3.77933
      C   12    0.15325      0.99967     1.82862    0.01846     2.84675
      N   13   -0.28762      0.99968     2.77787    0.01007     3.78762
      C   14    0.20314      0.99951     1.78312    0.01423     2.79686
      C   15    0.07500      0.99928     1.91348    0.01225     2.92500
      O   16   -0.29303      0.99987     3.28368    0.00948     4.29303
      C   17   -0.10399      0.99959     2.09509    0.00932     3.10399
      N   18   -0.30507      0.99967     2.79583    0.00957     3.80507
      C   19   -0.17722      0.99965     2.17026    0.00731     3.17722
      H   20    0.10289      0.00000     0.39559    0.00152     0.39711
      H   21    0.10186      0.00000     0.39726    0.00088     0.39814
      H   22    0.10911      0.00000     0.39014    0.00075     0.39089
      H   23    0.11581      0.00000     0.38199    0.00220     0.38419
      H   24    0.10025      0.00000     0.39821    0.00154     0.39975
      H   25    0.10518      0.00000     0.39128    0.00355     0.39482
      H   26    0.10700      0.00000     0.39118    0.00182     0.39300
      H   27    0.10690      0.00000     0.38914    0.00396     0.39310
      H   28    0.19549      0.00000     0.30075    0.00376     0.30451
      H   29    0.08173      0.00000     0.41725    0.00102     0.41827
      H   30    0.10117      0.00000     0.39788    0.00095     0.39883
      H   31    0.08527      0.00000     0.41337    0.00136     0.41473
      H   32    0.08379      0.00000     0.41491    0.00130     0.41621
      H   33    0.19483      0.00000     0.30243    0.00274     0.30517
      H   34    0.09614      0.00000     0.40243    0.00144     0.40386
      H   35    0.10412      0.00000     0.39396    0.00193     0.39588
      H   36    0.08878      0.00000     0.40932    0.00190     0.41122
 =======================================================================
   * Total *    0.00000     18.99273    50.74738    0.25990    70.00000

 Normal termination of Gaussian 16 at Sun Dec 13 17:46:21 2020.
