 Gaussian 16, Revision A.03,

 -----------------------------------------------------------
 # opt freq B3LYP/6-31G(d) empiricaldispersion=gd3bj scf=xqc
 -----------------------------------------------------------

 ------------------------------
 CID_68166041_JID_6425_neutraal
 ------------------------------
 Symbolic Z-matrix:
 Charge =  0 Multiplicity = 1

 SCF Done:  E(RB3LYP) =  -1035.03960359     A.U. after   15 cycles
 SCF Done:  E(RB3LYP) =  -1035.04297389     A.U. after   14 cycles
 SCF Done:  E(RB3LYP) =  -1035.04349561     A.U. after   12 cycles
 SCF Done:  E(RB3LYP) =  -1035.04423587     A.U. after   12 cycles
 SCF Done:  E(RB3LYP) =  -1035.04464219     A.U. after   12 cycles
 SCF Done:  E(RB3LYP) =  -1035.04479332     A.U. after   12 cycles
 SCF Done:  E(RB3LYP) =  -1035.04490270     A.U. after   12 cycles
 SCF Done:  E(RB3LYP) =  -1035.04506415     A.U. after   12 cycles
 SCF Done:  E(RB3LYP) =  -1035.04510740     A.U. after   11 cycles
 SCF Done:  E(RB3LYP) =  -1035.04513218     A.U. after   10 cycles
 SCF Done:  E(RB3LYP) =  -1035.04587114     A.U. after    9 cycles
 SCF Done:  E(RB3LYP) =  -1035.04587124     A.U. after    7 cycles
 SCF Done:  E(RB3LYP) =  -1035.04587132     A.U. after    8 cycles
 SCF Done:  E(RB3LYP) =  -1035.04587157     A.U. after    9 cycles
 SCF Done:  E(RB3LYP) =  -1035.04587173     A.U. after    9 cycles
 SCF Done:  E(RB3LYP) =  -1035.04587177     A.U. after    7 cycles
 Optimization completed.
    -- Stationary point found.
 Normal termination of Gaussian 16 at Thu Dec 10 23:03:27 2020.

 --------------------------------------------------------------------
 #N Geom=AllCheck Guess=TCheck SCRF=Check GenChk RB3LYP/6-31G(d) Freq
 --------------------------------------------------------------------

 Structure from the checkpoint file:  "JID_6425.chk"
 ------------------------------
 CID_68166041_JID_6425_neutraal
 ------------------------------
 Charge =  0 Multiplicity = 1

 SCF Done:  E(RB3LYP) =  -1035.04587177     A.U. after    1 cycles

  Exact polarizability: 217.583  24.782 148.531  -8.536  21.276 132.707
 Approx polarizability: 297.189  47.792 236.991 -16.077  53.153 212.786

                      1                      2                      3
                      A                      A                      A
 Frequencies --     16.9061                28.7058                41.1729
 Red. masses --      4.3027                 3.7931                 4.0353
 Frc consts  --      0.0007                 0.0018                 0.0040
 IR Inten    --      0.1069                 0.0846                 0.1617

                      4                      5                      6
                      A                      A                      A
 Frequencies --     53.5450                73.9754                93.3283
 Red. masses --      4.6518                 3.5478                 2.0433
 Frc consts  --      0.0079                 0.0114                 0.0105
 IR Inten    --      1.7826                 0.9152                 0.5188

                      7                      8                      9
                      A                      A                      A
 Frequencies --     97.1358               113.8330               132.8528
 Red. masses --      4.6435                 3.6700                 3.1087
 Frc consts  --      0.0258                 0.0280                 0.0323
 IR Inten    --      0.1186                 0.1954                 6.5019

                     10                     11                     12
                      A                      A                      A
 Frequencies --    163.1204               206.9659               231.5067
 Red. masses --      3.7477                 1.3000                 3.0402
 Frc consts  --      0.0588                 0.0328                 0.0960
 IR Inten    --      0.5482                 0.2320                 1.0135

                     13                     14                     15
                      A                      A                      A
 Frequencies --    240.2173               271.9592               311.3739
 Red. masses --      1.2433                 2.8102                 3.3952
 Frc consts  --      0.0423                 0.1225                 0.1939
 IR Inten    --      0.4980                 0.6421                 0.4005

                     16                     17                     18
                      A                      A                      A
 Frequencies --    312.4976               334.4347               356.9651
 Red. masses --      1.9929                 2.5460                 4.5162
 Frc consts  --      0.1147                 0.1678                 0.3391
 IR Inten    --      0.1734                 1.2132                 4.5089

                     19                     20                     21
                      A                      A                      A
 Frequencies --    405.3292               456.3501               460.9152
 Red. masses --      2.7864                 2.7015                 4.1258
 Frc consts  --      0.2697                 0.3315                 0.5164
 IR Inten    --      2.1238                 0.5996                 0.1948

                     22                     23                     24
                      A                      A                      A
 Frequencies --    521.7126               565.7439               595.3144
 Red. masses --      3.8894                 3.5215                 2.8949
 Frc consts  --      0.6237                 0.6641                 0.6045
 IR Inten    --      7.2601                40.0718                11.1028

                     25                     26                     27
                      A                      A                      A
 Frequencies --    610.8260               625.3442               670.0732
 Red. masses --      2.8230                 4.3379                 1.8616
 Frc consts  --      0.6206                 0.9995                 0.4925
 IR Inten    --      1.5261                18.2133                44.9203

                     28                     29                     30
                      A                      A                      A
 Frequencies --    683.1185               706.6297               745.2641
 Red. masses --      1.2871                 3.4091                 2.2948
 Frc consts  --      0.3539                 1.0029                 0.7510
 IR Inten    --      2.6035                25.0619                 7.2292

                     31                     32                     33
                      A                      A                      A
 Frequencies --    765.9667               791.2649               801.0423
 Red. masses --      1.4579                 1.4413                 1.4923
 Frc consts  --      0.5040                 0.5317                 0.5642
 IR Inten    --     10.2252                34.6666                64.0763

                     34                     35                     36
                      A                      A                      A
 Frequencies --    839.1931               846.5290               871.3487
 Red. masses --      1.8524                 4.3872                 2.0988
 Frc consts  --      0.7686                 1.8523                 0.9389
 IR Inten    --      1.7030                10.9398                12.8168

                     37                     38                     39
                      A                      A                      A
 Frequencies --    883.0392               891.4568               898.7371
 Red. masses --      2.2194                 4.0934                 1.5501
 Frc consts  --      1.0197                 1.9166                 0.7377
 IR Inten    --      1.8504                15.9417                 2.8786

                     40                     41                     42
                      A                      A                      A
 Frequencies --    925.7579               929.8031               977.9526
 Red. masses --      1.6155                 2.8243                 1.7009
 Frc consts  --      0.8158                 1.4386                 0.9584
 IR Inten    --      2.6870                 2.9581                 5.7692

                     43                     44                     45
                      A                      A                      A
 Frequencies --    991.4784              1020.9562              1037.7111
 Red. masses --      2.5639                 1.1320                 1.8578
 Frc consts  --      1.4849                 0.6952                 1.1787
 IR Inten    --      9.4105                36.7156                 4.1402

                     46                     47                     48
                      A                      A                      A
 Frequencies --   1051.5371              1075.8144              1091.1959
 Red. masses --      1.4047                 1.6954                 2.5494
 Frc consts  --      0.9151                 1.1561                 1.7885
 IR Inten    --      4.7568                 8.2902                 3.4894

                     49                     50                     51
                      A                      A                      A
 Frequencies --   1119.7533              1155.1697              1182.4006
 Red. masses --      1.1024                 1.9512                 2.2497
 Frc consts  --      0.8144                 1.5341                 1.8532
 IR Inten    --      5.3396                 2.8973                 1.7629

                     52                     53                     54
                      A                      A                      A
 Frequencies --   1187.1298              1205.3594              1237.2214
 Red. masses --      2.3959                 1.9449                 1.3286
 Frc consts  --      1.9894                 1.6649                 1.1983
 IR Inten    --     32.3608                11.5060                 5.6153

                     55                     56                     57
                      A                      A                      A
 Frequencies --   1265.2229              1303.0003              1307.1794
 Red. masses --      1.3578                 1.3239                 1.3031
 Frc consts  --      1.2806                 1.3243                 1.3119
 IR Inten    --      8.6503                26.7918                13.7118

                     58                     59                     60
                      A                      A                      A
 Frequencies --   1322.6347              1348.4437              1355.5595
 Red. masses --      1.1499                 1.3061                 1.4506
 Frc consts  --      1.1852                 1.3993                 1.5704
 IR Inten    --     10.6861                19.4160                20.5515

                     61                     62                     63
                      A                      A                      A
 Frequencies --   1374.4885              1385.2435              1398.4447
 Red. masses --      1.6141                 1.9636                 1.3948
 Frc consts  --      1.7967                 2.2200                 1.6071
 IR Inten    --     84.2642               188.4179                 6.1614

                     64                     65                     66
                      A                      A                      A
 Frequencies --   1406.3731              1417.0702              1428.0487
 Red. masses --      1.5856                 1.3726                 3.1050
 Frc consts  --      1.8477                 1.6240                 3.7308
 IR Inten    --     43.3480                 7.7017                96.4262

                     67                     68                     69
                      A                      A                      A
 Frequencies --   1443.6677              1446.8492              1475.2403
 Red. masses --      1.2913                 1.2643                 5.9547
 Frc consts  --      1.5856                 1.5594                 7.6354
 IR Inten    --      1.1253                 9.0080                22.0090

                     70                     71                     72
                      A                      A                      A
 Frequencies --   1492.7121              1507.6567              1517.1423
 Red. masses --      1.4469                 1.0892                 1.0806
 Frc consts  --      1.8996                 1.4587                 1.4654
 IR Inten    --     31.7522                 0.9400                 2.6212

                     73                     74                     75
                      A                      A                      A
 Frequencies --   1527.4457              1532.2698              1538.9244
 Red. masses --      1.0504                 1.0480                 1.0463
 Frc consts  --      1.4439                 1.4497                 1.4599
 IR Inten    --      1.4556                 5.7716                 6.0596

                     76                     77                     78
                      A                      A                      A
 Frequencies --   1539.6667              1541.3371              1588.0139
 Red. masses --      1.0574                 1.0845                 5.6317
 Frc consts  --      1.4769                 1.5180                 8.3675
 IR Inten    --      1.0288                10.3453                13.6290

                     79                     80                     81
                      A                      A                      A
 Frequencies --   1701.6746              1759.2967              3032.9589
 Red. masses --      6.1266                 7.2957                 1.0604
 Frc consts  --     10.4526                13.3044                 5.7473
 IR Inten    --     63.4853               395.6630                20.3940

                     82                     83                     84
                      A                      A                      A
 Frequencies --   3043.1819              3047.1659              3049.1979
 Red. masses --      1.0620                 1.0365                 1.0611
 Frc consts  --      5.7949                 5.6703                 5.8127
 IR Inten    --     30.2197                20.3157                 7.5555

                     85                     86                     87
                      A                      A                      A
 Frequencies --   3053.4107              3066.0409              3077.0434
 Red. masses --      1.0370                 1.0996                 1.1021
 Frc consts  --      5.6962                 6.0904                 6.1480
 IR Inten    --     22.1374                30.9149                37.7492

                     88                     89                     90
                      A                      A                      A
 Frequencies --   3081.4689              3112.0964              3116.8640
 Red. masses --      1.1016                 1.1021                 1.1011
 Frc consts  --      6.1632                 6.2887                 6.3022
 IR Inten    --     24.5580                57.6595                47.2769

                     91                     92                     93
                      A                      A                      A
 Frequencies --   3120.7913              3121.1507              3129.3698
 Red. masses --      1.1020                 1.1022                 1.0859
 Frc consts  --      6.3234                 6.3264                 6.2654
 IR Inten    --     42.2601                35.6993                15.5910

                     94                     95                     96
                      A                      A                      A
 Frequencies --   3179.0200              3199.0066              3217.8416
 Red. masses --      1.0890                 1.0881                 1.0913
 Frc consts  --      6.4845                 6.5609                 6.6575
 IR Inten    --      6.7409                 9.3232                 4.7854

                     97                     98                     99
                      A                      A                      A
 Frequencies --   3273.4152              3276.3403              3561.0497
 Red. masses --      1.0927                 1.0973                 1.0744
 Frc consts  --      6.8986                 6.9397                 8.0274
 IR Inten    --      0.3674                 0.8728                15.0493

 - Thermochemistry -
 -------------------
 Temperature   298.150 Kelvin.  Pressure   1.00000 Atm.
 Atom     1 has atomic number  6 and mass  12.00000

 Molecular mass:   237.11874 amu.
 Principal axes and moments of inertia in atomic units:
                           1         2         3
     Eigenvalues --  2715.363808563.498599476.79565
           X            0.99984  -0.01782  -0.00024
           Y            0.01781   0.99962  -0.02124
           Z            0.00062   0.02123   0.99977
 This molecule is an asymmetric top.
 Rotational symmetry number  1.
 Warning -- assumption of classical behavior for rotation
           may cause significant error
 Rotational temperatures (Kelvin)      0.03190     0.01011     0.00914
 Rotational constants (GHZ):           0.66464     0.21075     0.19044
 Zero-point vibrational energy     787058.8 (Joules/Mol)
                                  188.11157 (Kcal/Mol)
 Warning -- explicit consideration of  25 degrees of freedom as
           vibrations may cause significant error
 Vibrational temperatures:     24.32    41.30    59.24    77.04   106.43
          (Kelvin)            134.28   139.76   163.78   191.15   234.69
                              297.78   333.09   345.62   391.29   448.00
                              449.61   481.18   513.59   583.18   656.59
                              663.15   750.63   813.98   856.52   878.84
                              899.73   964.09   982.86  1016.68  1072.27
                             1102.06  1138.45  1152.52  1207.41  1217.97
                             1253.68  1270.50  1282.61  1293.08  1331.96
                             1337.78  1407.06  1426.52  1468.93  1493.03
                             1512.93  1547.86  1569.99  1611.08  1662.03
                             1701.21  1708.01  1734.24  1780.09  1820.37
                             1874.73  1880.74  1902.98  1940.11  1950.35
                             1977.58  1993.06  2012.05  2023.46  2038.85
                             2054.64  2077.12  2081.69  2122.54  2147.68
                             2169.18  2182.83  2197.65  2204.59  2214.17
                             2215.24  2217.64  2284.80  2448.33  2531.24
                             4363.75  4378.46  4384.19  4387.12  4393.18
                             4411.35  4427.18  4433.55  4477.61  4484.47
                             4490.12  4490.64  4502.47  4573.90  4602.66
                             4629.76  4709.71  4713.92  5123.56

 Zero-point correction=                           0.299775 (Hartree/Particle)
 Thermal correction to Energy=                    0.317245
 Thermal correction to Enthalpy=                  0.318189
 Thermal correction to Gibbs Free Energy=         0.251573
 Sum of electronic and zero-point Energies=          -1034.746097
 Sum of electronic and thermal Energies=             -1034.728626
 Sum of electronic and thermal Enthalpies=           -1034.727682
 Sum of electronic and thermal Free Energies=        -1034.794298

                     E (Thermal)             CV                S
                      KCal/Mol        Cal/Mol-Kelvin    Cal/Mol-Kelvin
 Total                  199.074             64.204            140.205
 Electronic               0.000              0.000              0.000
 Translational            0.889              2.981             42.292
 Rotational               0.889              2.981             33.754
 Vibrational            197.297             58.242             64.159
 Vibration     1          0.593              1.986              6.968
 Vibration     2          0.593              1.984              5.917
 Vibration     3          0.594              1.981              5.202
 Vibration     4          0.596              1.976              4.682
 Vibration     5          0.599              1.966              4.045
 Vibration     6          0.602              1.954              3.589
 Vibration     7          0.603              1.951              3.511
 Vibration     8          0.607              1.938              3.202
 Vibration     9          0.613              1.921              2.904
 Vibration    10          0.623              1.888              2.513
 Vibration    11          0.641              1.830              2.070
 Vibration    12          0.653              1.793              1.867
 Vibration    13          0.657              1.779              1.801
 Vibration    14          0.675              1.725              1.584
 Vibration    15          0.700              1.652              1.355
 Vibration    16          0.701              1.650              1.349
 Vibration    17          0.716              1.607              1.239
 Vibration    18          0.732              1.561              1.135
 Vibration    19          0.770              1.459              0.943
 Vibration    20          0.815              1.347              0.777
 Vibration    21          0.819              1.337              0.763
 Vibration    22          0.877              1.202              0.606
 Vibration    23          0.922              1.105              0.512
 Vibration    24          0.953              1.042              0.458
 Vibration    25          0.970              1.009              0.431

 Optimization completed.
    -- Stationary point found.
 Normal termination of Gaussian 16 at Thu Dec 10 23:14:48 2020.

 ----------------------------------------------------------------------
 # B3LYP/6-311++G(d,p) empiricaldispersion=gd3bj scf=xqc pop=npa geom=c
 heck
 ----------------------------------------------------------------------

 --------------------------------------
 CID_68166041_JID_6425_Energie_neutraal
 --------------------------------------
 Structure from the checkpoint file:  "JID_6425.chk"
 Charge =  0 Multiplicity = 1

 SCF Done:  E(RB3LYP) =  -1035.25300188     A.U. after   16 cycles
 Normal termination of Gaussian 16 at Thu Dec 10 23:20:30 2020.

 ----------------------------------------------------------------------
 # B3LYP/6-311++G(d,p) empiricaldispersion=gd3bj scf=xqc pop=npa geom=c
 heck
 ----------------------------------------------------------------------

 ------------------------------------
 CID_68166041_JID_6425_Energie_kation
 ------------------------------------
 Structure from the checkpoint file:  "JID_6425.chk"
 Charge =  1 Multiplicity = 2

 SCF Done:  E(UB3LYP) =  -1034.95669869     A.U. after   32 cycles
 Normal termination of Gaussian 16 at Thu Dec 10 23:35:41 2020.
 Gaussian 16:  ES64L-G16RevA.03 25-Dec-2016

 ----------------------------------------------------------------------
 # B3LYP/6-311++G(d,p) empiricaldispersion=gd3bj scf=xqc pop=npa geom=c
 heck
 ----------------------------------------------------------------------

 -----------------------------------
 CID_68166041_JID_6425_Energie_anion
 -----------------------------------
 Structure from the checkpoint file:  "JID_6425.chk"
 Charge = -1 Multiplicity = 2

                         Standard orientation:
 ---------------------------------------------------------------------
 Center     Atomic      Atomic             Coordinates (Angstroms)
 Number     Number       Type             X           Y           Z
 ---------------------------------------------------------------------
      1          6           0       -2.452150    2.619221   -1.600991
      2          6           0       -3.626366    1.773162   -1.098522
      3          6           0       -3.279444    0.292417   -0.889849
      4          6           0       -2.136039    0.021221    0.106330
      5          6           0       -2.365201    0.627139    1.502872
      6          6           0       -3.606599    0.103084    2.229199
      7          7           0       -1.903130   -1.426007    0.195761
      8          6           0       -0.877902   -2.147352   -0.379067
      9          8           0       -1.030362   -3.325007   -0.694649
     10          6           0        0.451063   -1.502478   -0.553499
     11          6           0        1.016634   -0.649565    0.318092
     12          6           0        2.367600   -0.100513    0.250178
     13          6           0        3.330499   -0.406470   -0.688356
     14         16           0        4.797344    0.465966   -0.430408
     15          6           0        4.133594    1.266762    0.960439
     16          6           0        2.851107    0.868021    1.197660
     17          1           0       -1.644965    2.677963   -0.862053
     18          1           0       -2.770662    3.643979   -1.820338
     19          1           0       -2.028054    2.196304   -2.519834
     20          1           0       -4.016710    2.200813   -0.166101
     21          1           0       -4.448336    1.831719   -1.823195
     22          1           0       -4.178997   -0.246182   -0.561851
     23          1           0       -2.990929   -0.152051   -1.851440
     24          1           0       -1.221843    0.455005   -0.301732
     25          1           0       -1.477869    0.415409    2.112138
     26          1           0       -2.424040    1.718571    1.409340
     27          1           0       -3.563670   -0.985472    2.347516
     28          1           0       -3.683118    0.539243    3.230624
     29          1           0       -4.528631    0.350190    1.691445
     30          1           0       -2.741407   -1.995297    0.253599
     31          1           0        1.011011   -1.895464   -1.397718
     32          1           0        0.437604   -0.331774    1.182576
     33          1           0        3.257944   -1.105439   -1.509742
     34          1           0        4.730013    1.978124    1.514595
     35          1           0        2.249178    1.243124    2.018652
 ---------------------------------------------------------------------

 SCF Done:  E(UB3LYP) =  -1035.26457020     A.U. after   31 cycles

 The electronic state is 2-A.
 Alpha  occ. eigenvalues --  -88.73915 -18.93669 -14.19747 -10.11983 -10.09864
 Alpha  occ. eigenvalues --  -10.08129 -10.07371 -10.07148 -10.07046 -10.07020
 Alpha  occ. eigenvalues --  -10.06748 -10.04998 -10.04197 -10.03943 -10.02286
 Alpha  occ. eigenvalues --  -10.00934  -7.82569  -5.78858  -5.78492  -5.78204
 Alpha  occ. eigenvalues --   -0.89026  -0.79392  -0.74754  -0.70615  -0.67243
 Alpha  occ. eigenvalues --   -0.64972  -0.61382  -0.60085  -0.58095  -0.56610
 Alpha  occ. eigenvalues --   -0.51471  -0.49110  -0.46389  -0.44705  -0.42732
 Alpha  occ. eigenvalues --   -0.40773  -0.39370  -0.37142  -0.36474  -0.35032
 Alpha  occ. eigenvalues --   -0.34269  -0.32686  -0.32258  -0.31211  -0.29710
 Alpha  occ. eigenvalues --   -0.29239  -0.27899  -0.27592  -0.26737  -0.26226
 Alpha  occ. eigenvalues --   -0.25635  -0.25496  -0.25397  -0.24954  -0.24029
 Alpha  occ. eigenvalues --   -0.22997  -0.22565  -0.22425  -0.20488  -0.16583
 Alpha  occ. eigenvalues --   -0.12958  -0.12233  -0.11339  -0.08651   0.04006
 Alpha virt. eigenvalues --    0.05933   0.07141   0.07873   0.08663   0.09251
 Alpha virt. eigenvalues --    0.09889   0.10454   0.10753   0.11030   0.11518
 Alpha virt. eigenvalues --    0.11860   0.12422   0.12870   0.13251   0.13935

  Beta  occ. eigenvalues --  -88.73865 -18.93474 -14.19733 -10.11895 -10.09863
  Beta  occ. eigenvalues --  -10.08120 -10.07367 -10.07145 -10.07037 -10.07014
  Beta  occ. eigenvalues --  -10.06715 -10.05023 -10.03972 -10.03757 -10.02022
  Beta  occ. eigenvalues --  -10.00725  -7.82523  -5.78836  -5.78473  -5.78033
  Beta  occ. eigenvalues --   -0.88715  -0.79288  -0.74514  -0.70585  -0.67219
  Beta  occ. eigenvalues --   -0.64454  -0.61350  -0.59815  -0.57660  -0.56585
  Beta  occ. eigenvalues --   -0.51431  -0.48504  -0.46343  -0.44386  -0.42585
  Beta  occ. eigenvalues --   -0.40507  -0.39351  -0.37060  -0.36287  -0.34983
  Beta  occ. eigenvalues --   -0.34252  -0.32594  -0.32109  -0.31161  -0.29687
  Beta  occ. eigenvalues --   -0.29015  -0.27631  -0.27445  -0.26694  -0.26034
  Beta  occ. eigenvalues --   -0.25486  -0.25403  -0.24837  -0.24646  -0.23892
  Beta  occ. eigenvalues --   -0.22882  -0.22498  -0.22154  -0.20232  -0.15294
  Beta  occ. eigenvalues --   -0.12620  -0.11473  -0.10859  -0.06985
  Beta virt. eigenvalues --    0.05916   0.07130   0.07800   0.08610   0.09108
  Beta virt. eigenvalues --    0.09584   0.09802   0.10425   0.10685   0.10983
  Beta virt. eigenvalues --    0.11728   0.12320   0.12516   0.12940   0.13241

 Mulliken charges and spin densities:
               1          2
     1  C   -0.495902  -0.048200
     2  C   -0.195363  -0.157704
     3  C   -0.241433  -0.031671
     4  C   -0.037990  -0.057561
     5  C   -0.405086   0.166865
     6  C   -0.342287  -0.294297
     7  N    0.007160   0.015234
     8  C   -0.376083   0.042684
     9  O   -0.389275   0.065874
    10  C   -0.191972   0.318080
    11  C   -0.101375   0.090469
    12  C   -0.098203  -0.059743
    13  C    0.802206   0.388629
    14  S   -0.652234   0.080324
    15  C   -0.172556   0.007388
    16  C   -0.490455  -0.013124
    17  H    0.149562   0.001981
    18  H    0.058582   0.074524
    19  H    0.112404   0.022937
    20  H    0.063787   0.066940
    21  H    0.046645   0.100032
    22  H    0.108542   0.021147
    23  H    0.162768   0.039702
    24  H    0.221579  -0.089308
    25  H    0.164965  -0.019715
    26  H    0.096680   0.034711
    27  H    0.088631   0.064708
    28  H    0.024547   0.113297
    29  H    0.054485   0.072271
    30  H    0.251437  -0.000081
    31  H    0.163431  -0.005781
    32  H    0.069649  -0.000957
    33  H    0.247228  -0.019980
    34  H    0.208438  -0.000711
    35  H    0.087486   0.011033
 Sum of Mulliken charges =  -1.00000   1.00000

 Dipole moment (field-independent basis, Debye):
    X=             -3.8884    Y=              5.7383    Z=              1.3012  Tot=              7.0527
 Quadrupole moment (field-independent basis, Debye-Ang):
   XX=           -158.4967   YY=           -144.5699   ZZ=           -119.6860
   XY=             -2.3588   XZ=              0.9147   YZ=             -0.7210

 Summary of Natural Population Analysis:

                                       Natural Population
                Natural  -----------------------------------------------
    Atom  No    Charge         Core      Valence    Rydberg      Total
 -----------------------------------------------------------------------
      C    1   -0.28826      0.99967     2.28409    0.00450     3.28826
      C    2   -0.19211      0.99964     2.18511    0.00736     3.19211
      C    3   -0.19202      0.99961     2.18457    0.00784     3.19202
      C    4   -0.01924      0.99957     2.00591    0.01376     3.01924
      C    5   -0.19326      0.99962     2.18600    0.00764     3.19326
      C    6   -0.29007      0.99967     2.28571    0.00469     3.29007
      N    7   -0.33231      0.99966     2.82122    0.01142     3.83231
      C    8    0.34100      0.99965     1.63667    0.02269     2.65900
      O    9   -0.31641      0.99988     3.31050    0.00603     4.31641
      C   10   -0.10803      0.99949     2.09960    0.00894     3.10803
      C   11   -0.03786      0.99951     2.03072    0.00763     3.03786
      C   12   -0.07378      0.99950     2.06451    0.00978     3.07378
      C   13   -0.09679      0.99950     2.08721    0.01008     3.09679
      S   14    0.19769      4.99946     2.77722    0.02563     7.80231
      C   15   -0.21226      0.99955     2.20078    0.01193     3.21226
      C   16   -0.12054      0.99950     2.11199    0.00905     3.12054
      H   17    0.09951      0.00000     0.39949    0.00099     0.40049
      H   18    0.09505      0.00000     0.40410    0.00085     0.40495
      H   19    0.09834      0.00000     0.40055    0.00110     0.40166
      H   20    0.09236      0.00000     0.40614    0.00149     0.40764
      H   21    0.09323      0.00000     0.40524    0.00153     0.40677
      H   22    0.09359      0.00000     0.40511    0.00130     0.40641
      H   23    0.10214      0.00000     0.39668    0.00117     0.39786
      H   24    0.11446      0.00000     0.38317    0.00237     0.38554
      H   25    0.10213      0.00000     0.39659    0.00129     0.39787
      H   26    0.09254      0.00000     0.40634    0.00112     0.40746
      H   27    0.09932      0.00000     0.39939    0.00128     0.40068
      H   28    0.09655      0.00000     0.40237    0.00108     0.40345
      H   29    0.09311      0.00000     0.40571    0.00118     0.40689
      H   30    0.18195      0.00000     0.31462    0.00343     0.31805
      H   31    0.09524      0.00000     0.40353    0.00124     0.40476
      H   32    0.08420      0.00000     0.41342    0.00239     0.41580
      H   33    0.10153      0.00000     0.39760    0.00088     0.39847
      H   34    0.09991      0.00000     0.39909    0.00100     0.40009
      H   35    0.09907      0.00000     0.39988    0.00105     0.40093
 =======================================================================
   * Total *    0.00000     19.99347    43.81084    0.19569    64.00000

 Normal termination of Gaussian 16 at Thu Dec 10 23:50:22 2020.
