 Gaussian 16, Revision A.03,

 -----------------------------------------------------------
 # opt freq B3LYP/6-31G(d) empiricaldispersion=gd3bj scf=xqc
 -----------------------------------------------------------

 ------------------------------
 CID_62612038_JID_6859_neutraal
 ------------------------------
 Symbolic Z-matrix:
 Charge =  0 Multiplicity = 1

 SCF Done:  E(RB3LYP) =  -690.992370549     A.U. after   14 cycles
 SCF Done:  E(RB3LYP) =  -690.999117309     A.U. after   13 cycles
 SCF Done:  E(RB3LYP) =  -691.000140976     A.U. after   13 cycles
 SCF Done:  E(RB3LYP) =  -691.000177367     A.U. after   12 cycles
 SCF Done:  E(RB3LYP) =  -691.000425881     A.U. after   12 cycles
 SCF Done:  E(RB3LYP) =  -691.000529052     A.U. after   11 cycles
 SCF Done:  E(RB3LYP) =  -691.000595483     A.U. after   12 cycles
 SCF Done:  E(RB3LYP) =  -691.000622752     A.U. after   10 cycles
 SCF Done:  E(RB3LYP) =  -691.000643057     A.U. after   11 cycles
 SCF Done:  E(RB3LYP) =  -691.000645361     A.U. after   10 cycles
 SCF Done:  E(RB3LYP) =  -691.000645616     A.U. after    9 cycles
 SCF Done:  E(RB3LYP) =  -691.000645703     A.U. after    7 cycles
 Optimization completed.
    -- Stationary point found.
 Normal termination of Gaussian 16 at Fri Dec 11 00:53:16 2020.

 --------------------------------------------------------------------
 #N Geom=AllCheck Guess=TCheck SCRF=Check GenChk RB3LYP/6-31G(d) Freq
 --------------------------------------------------------------------

 Structure from the checkpoint file:  "JID_6859.chk"
 ------------------------------
 CID_62612038_JID_6859_neutraal
 ------------------------------
 Charge =  0 Multiplicity = 1

 SCF Done:  E(RB3LYP) =  -691.000645703     A.U. after    1 cycles

  Exact polarizability: 140.748  14.741 147.260   8.956  -7.282 135.152
 Approx polarizability: 190.815  31.308 217.628  13.854 -15.347 229.979

                      1                      2                      3
                      A                      A                      A
 Frequencies --     22.8947                33.5354                50.6621
 Red. masses --      4.0654                 5.3731                 4.0016
 Frc consts  --      0.0013                 0.0036                 0.0061
 IR Inten    --      1.3336                 1.1133                 1.9197

                      4                      5                      6
                      A                      A                      A
 Frequencies --     66.1674                97.5929               123.9076
 Red. masses --      3.7139                 3.1216                 3.2395
 Frc consts  --      0.0096                 0.0175                 0.0293
 IR Inten    --      0.8375                 2.5834                 2.5494

                      7                      8                      9
                      A                      A                      A
 Frequencies --    128.3014               199.1491               222.0897
 Red. masses --      3.7314                 2.1078                 2.4075
 Frc consts  --      0.0362                 0.0493                 0.0700
 IR Inten    --      0.8730                 0.4347                 0.4611

                     10                     11                     12
                      A                      A                      A
 Frequencies --    250.7262               255.4778               330.2536
 Red. masses --      2.3161                 1.8789                 2.2622
 Frc consts  --      0.0858                 0.0723                 0.1454
 IR Inten    --      0.3546                 1.1473                 0.7445

                     13                     14                     15
                      A                      A                      A
 Frequencies --    346.2392               358.4943               391.5937
 Red. masses --      3.4060                 2.5030                 2.6215
 Frc consts  --      0.2406                 0.1895                 0.2369
 IR Inten    --      3.0860                 0.4954                 0.3115

                     16                     17                     18
                      A                      A                      A
 Frequencies --    408.1402               453.5791               505.1472
 Red. masses --      2.1109                 3.3915                 3.6593
 Frc consts  --      0.2072                 0.4111                 0.5502
 IR Inten    --      1.9939                 2.5540                16.1577

                     19                     20                     21
                      A                      A                      A
 Frequencies --    529.0318               547.8042               613.1221
 Red. masses --      2.2578                 3.0978                 2.8114
 Frc consts  --      0.3723                 0.5477                 0.6227
 IR Inten    --      1.6039                 9.4626                 1.5732

                     22                     23                     24
                      A                      A                      A
 Frequencies --    618.3421               635.9032               687.5303
 Red. masses --      4.8489                 3.7647                 6.8771
 Frc consts  --      1.0923                 0.8969                 1.9153
 IR Inten    --      3.7306                 1.3877                 0.6283

                     25                     26                     27
                      A                      A                      A
 Frequencies --    753.1069               798.6404               820.3446
 Red. masses --      4.0149                 2.3368                 1.7742
 Frc consts  --      1.3417                 0.8782                 0.7035
 IR Inten    --      3.7465                 8.5935                25.3725

                     28                     29                     30
                      A                      A                      A
 Frequencies --    830.5370               843.3457               858.3400
 Red. masses --      2.0900                 2.1441                 2.8340
 Frc consts  --      0.8494                 0.8985                 1.2302
 IR Inten    --      4.3720                 5.1311                 8.0704

                     31                     32                     33
                      A                      A                      A
 Frequencies --    895.3283               898.4433               905.6070
 Red. masses --      1.9619                 1.3458                 2.4949
 Frc consts  --      0.9266                 0.6400                 1.2056
 IR Inten    --     10.4763                 5.5625                14.6643

                     34                     35                     36
                      A                      A                      A
 Frequencies --    935.1039               978.9931               994.4373
 Red. masses --      2.1840                 1.3085                 1.4546
 Frc consts  --      1.1252                 0.7389                 0.8475
 IR Inten    --     14.3457                 2.9660                 0.4387

                     37                     38                     39
                      A                      A                      A
 Frequencies --    996.3675              1000.7761              1014.9989
 Red. masses --      1.6111                 1.9150                 5.8527
 Frc consts  --      0.9424                 1.1301                 3.5525
 IR Inten    --      0.4142                 0.6067                 9.4714

                     40                     41                     42
                      A                      A                      A
 Frequencies --   1020.8774              1049.5218              1066.9270
 Red. masses --      2.1082                 1.7211                 1.8681
 Frc consts  --      1.2945                 1.1170                 1.2529
 IR Inten    --     15.6533                14.4024                41.0673

                     43                     44                     45
                      A                      A                      A
 Frequencies --   1094.0791              1099.7801              1119.1144
 Red. masses --      1.9079                 1.8692                 1.5285
 Frc consts  --      1.3456                 1.3320                 1.1279
 IR Inten    --     12.0850                 4.2272                 1.1124

                     46                     47                     48
                      A                      A                      A
 Frequencies --   1141.5243              1164.0009              1177.0812
 Red. masses --      1.5970                 1.7203                 2.8978
 Frc consts  --      1.2261                 1.3733                 2.3656
 IR Inten    --      9.4590                16.6775                72.5130

                     49                     50                     51
                      A                      A                      A
 Frequencies --   1190.7174              1204.2023              1240.2851
 Red. masses --      1.4805                 1.8837                 2.2910
 Frc consts  --      1.2368                 1.6094                 2.0764
 IR Inten    --      0.7079                 1.7452                 0.5794

                     52                     53                     54
                      A                      A                      A
 Frequencies --   1245.9924              1257.1947              1268.6617
 Red. masses --      1.5730                 1.4124                 1.4700
 Frc consts  --      1.4388                 1.3152                 1.3940
 IR Inten    --     11.2191                 4.3943                 5.1692

                     55                     56                     57
                      A                      A                      A
 Frequencies --   1269.6184              1287.6682              1316.6104
 Red. masses --      1.4739                 2.5167                 1.4865
 Frc consts  --      1.3998                 2.4586                 1.5182
 IR Inten    --      2.8239                20.2850                 9.0775

                     58                     59                     60
                      A                      A                      A
 Frequencies --   1321.7107              1326.4736              1351.0368
 Red. masses --      2.0607                 1.8319                 1.3702
 Frc consts  --      2.1210                 1.8991                 1.4736
 IR Inten    --     14.1398                 4.1354                 7.1002

                     61                     62                     63
                      A                      A                      A
 Frequencies --   1363.8220              1372.2756              1375.9658
 Red. masses --      1.3423                 1.3730                 1.4062
 Frc consts  --      1.4710                 1.5234                 1.5686
 IR Inten    --      0.0320                 7.0897                 3.4393

                     64                     65                     66
                      A                      A                      A
 Frequencies --   1418.1201              1441.0692              1460.8428
 Red. masses --      1.4598                 1.2783                 2.0162
 Frc consts  --      1.7297                 1.5641                 2.5350
 IR Inten    --     31.2603                 7.7037                23.4382

                     67                     68                     69
                      A                      A                      A
 Frequencies --   1479.2866              1485.7625              1517.4243
 Red. masses --      1.0839                 1.1906                 1.0600
 Frc consts  --      1.3974                 1.5486                 1.4380
 IR Inten    --      6.3019                 0.6916                10.9946

                     70                     71                     72
                      A                      A                      A
 Frequencies --   1520.9549              1522.6320              1531.0679
 Red. masses --      1.0794                 1.0967                 1.0841
 Frc consts  --      1.4712                 1.4981                 1.4972
 IR Inten    --      3.9485                 1.3908                10.0043

                     73                     74                     75
                      A                      A                      A
 Frequencies --   1537.0857              1542.1925              1544.9460
 Red. masses --      1.0859                 1.0966                 2.0404
 Frc consts  --      1.5116                 1.5366                 2.8694
 IR Inten    --      8.0891                 1.8049                 0.6185

                     76                     77                     78
                      A                      A                      A
 Frequencies --   1624.1538              1658.0814              1838.5871
 Red. masses --      6.7048                 5.4578                12.5327
 Frc consts  --     10.4206                 8.8405                24.9610
 IR Inten    --     13.6011                44.5054               196.7765

                     79                     80                     81
                      A                      A                      A
 Frequencies --   2939.2183              2954.2510              2969.5469
 Red. masses --      1.0721                 1.0622                 1.0719
 Frc consts  --      5.4571                 5.4621                 5.5693
 IR Inten    --     41.5166                90.0984                69.3036

                     82                     83                     84
                      A                      A                      A
 Frequencies --   3041.9189              3053.7913              3055.9685
 Red. masses --      1.0699                 1.0715                 1.0869
 Frc consts  --      5.8328                 5.8874                 5.9807
 IR Inten    --      9.8992                24.1354                19.8836

                     85                     86                     87
                      A                      A                      A
 Frequencies --   3067.3452              3082.6966              3091.5525
 Red. masses --      1.0631                 1.0833                 1.0743
 Frc consts  --      5.8929                 6.0657                 6.0499
 IR Inten    --     20.5335                 2.2548                23.8707

                     88                     89                     90
                      A                      A                      A
 Frequencies --   3098.6717              3114.0146              3121.5409
 Red. masses --      1.0872                 1.0969                 1.0975
 Frc consts  --      6.1503                 6.2672                 6.3010
 IR Inten    --     46.3162                21.1905                22.1902

                     91                     92                     93
                      A                      A                      A
 Frequencies --   3132.5425              3135.3733              3170.1320
 Red. masses --      1.0964                 1.1023                 1.0873
 Frc consts  --      6.3390                 6.3842                 6.4378
 IR Inten    --     17.1363                34.3873                29.7622

                     94                     95                     96
                      A                      A                      A
 Frequencies --   3172.6754              3197.4031              3221.7587
 Red. masses --      1.0906                 1.0940                 1.0925
 Frc consts  --      6.4682                 6.5899                 6.6812
 IR Inten    --     20.7680                18.1827                 6.7531

 - Thermochemistry -
 -------------------
 Temperature   298.150 Kelvin.  Pressure   1.00000 Atm.
 Atom     1 has atomic number  6 and mass  12.00000

 Molecular mass:   218.14191 amu.
 Principal axes and moments of inertia in atomic units:
                           1         2         3
     Eigenvalues --  2443.405984950.706305963.44932
           X            0.99982  -0.00758   0.01746
           Y            0.00782   0.99988  -0.01374
           Z           -0.01735   0.01387   0.99975
 This molecule is an asymmetric top.
 Rotational symmetry number  1.
 Warning -- assumption of classical behavior for rotation
           may cause significant error
 Rotational temperatures (Kelvin)      0.03545     0.01750     0.01452
 Rotational constants (GHZ):           0.73862     0.36454     0.30263
 Zero-point vibrational energy     774389.4 (Joules/Mol)
                                  185.08352 (Kcal/Mol)
 Warning -- explicit consideration of  22 degrees of freedom as
           vibrations may cause significant error
 Vibrational temperatures:     32.94    48.25    72.89    95.20   140.41
          (Kelvin)            178.28   184.60   286.53   319.54   360.74
                              367.58   475.16   498.16   515.79   563.42
                              587.22   652.60   726.79   761.16   788.17
                              882.15   889.66   914.92   989.20  1083.55
                             1149.07  1180.29  1194.96  1213.39  1234.96
                             1288.18  1292.66  1302.97  1345.41  1408.55
                             1430.77  1433.55  1439.89  1460.36  1468.81
                             1510.03  1535.07  1574.14  1582.34  1610.16
                             1642.40  1674.74  1693.56  1713.18  1732.58
                             1784.49  1792.71  1808.82  1825.32  1826.70
                             1852.67  1894.31  1901.65  1908.50  1943.84
                             1962.24  1974.40  1979.71  2040.36  2073.38
                             2101.83  2128.36  2137.68  2183.24  2188.31
                             2190.73  2202.87  2211.52  2218.87  2222.83
                             2336.80  2385.61  2645.32  4228.88  4250.51
                             4272.52  4376.64  4393.72  4396.86  4413.23
                             4435.31  4448.05  4458.30  4480.37  4491.20
                             4507.03  4511.10  4561.11  4564.77  4600.35
                             4635.39

 Zero-point correction=                           0.294949 (Hartree/Particle)
 Thermal correction to Energy=                    0.309812
 Thermal correction to Enthalpy=                  0.310756
 Thermal correction to Gibbs Free Energy=         0.251031
 Sum of electronic and zero-point Energies=           -690.705696
 Sum of electronic and thermal Energies=              -690.690834
 Sum of electronic and thermal Enthalpies=            -690.689890
 Sum of electronic and thermal Free Energies=         -690.749614

                     E (Thermal)             CV                S
                      KCal/Mol        Cal/Mol-Kelvin    Cal/Mol-Kelvin
 Total                  194.410             56.724            125.700
 Electronic               0.000              0.000              0.000
 Translational            0.889              2.981             42.043
 Rotational               0.889              2.981             32.645
 Vibrational            192.632             50.762             51.013
 Vibration     1          0.593              1.985              6.366
 Vibration     2          0.594              1.983              5.608
 Vibration     3          0.595              1.977              4.791
 Vibration     4          0.598              1.970              4.264
 Vibration     5          0.603              1.951              3.502
 Vibration     6          0.610              1.929              3.038
 Vibration     7          0.611              1.925              2.971
 Vibration     8          0.637              1.841              2.141
 Vibration     9          0.648              1.807              1.942
 Vibration    10          0.663              1.762              1.725
 Vibration    11          0.666              1.754              1.692
 Vibration    12          0.713              1.615              1.259
 Vibration    13          0.724              1.583              1.183
 Vibration    14          0.733              1.558              1.129
 Vibration    15          0.759              1.488              0.994
 Vibration    16          0.773              1.453              0.933
 Vibration    17          0.812              1.353              0.785
 Vibration    18          0.860              1.239              0.645
 Vibration    19          0.884              1.186              0.589
 Vibration    20          0.903              1.144              0.549
 Vibration    21          0.972              1.004              0.428
 Vibration    22          0.978              0.993              0.419

                           ! Non-Optimized Parameters !
 Normal termination of Gaussian 16 at Fri Dec 11 01:04:54 2020.

 ----------------------------------------------------------------------
 # B3LYP/6-311++G(d,p) empiricaldispersion=gd3bj scf=xqc pop=npa geom=c
 heck
 ----------------------------------------------------------------------

 --------------------------------------
 CID_62612038_JID_6859_Energie_neutraal
 --------------------------------------
 Structure from the checkpoint file:  "JID_6859.chk"
 Charge =  0 Multiplicity = 1

 SCF Done:  E(RB3LYP) =  -691.187430260     A.U. after   14 cycles
 Normal termination of Gaussian 16 at Fri Dec 11 01:09:33 2020.

 ----------------------------------------------------------------------
 # B3LYP/6-311++G(d,p) empiricaldispersion=gd3bj scf=xqc pop=npa geom=c
 heck
 ----------------------------------------------------------------------

 ------------------------------------
 CID_62612038_JID_6859_Energie_kation
 ------------------------------------
 Structure from the checkpoint file:  "JID_6859.chk"
 Charge =  1 Multiplicity = 2

 SCF Done:  E(UB3LYP) =  -690.884055183     A.U. after   28 cycles
 Normal termination of Gaussian 16 at Fri Dec 11 01:21:54 2020.
 Gaussian 16:  ES64L-G16RevA.03 25-Dec-2016

 ----------------------------------------------------------------------
 # B3LYP/6-311++G(d,p) empiricaldispersion=gd3bj scf=xqc pop=npa geom=c
 heck
 ----------------------------------------------------------------------

 -----------------------------------
 CID_62612038_JID_6859_Energie_anion
 -----------------------------------
 Structure from the checkpoint file:  "JID_6859.chk"
 Charge = -1 Multiplicity = 2

                         Standard orientation:
 ---------------------------------------------------------------------
 Center     Atomic      Atomic             Coordinates (Angstroms)
 Number     Number       Type             X           Y           Z
 ---------------------------------------------------------------------
      1          6           0        0.813258    3.062712    0.596668
      2          7           0        0.162879    1.784907    0.343952
      3          6           0        0.961331    0.913828   -0.514428
      4          6           0        2.206516    0.334714    0.192378
      5          6           0        1.865859   -0.441489    1.474219
      6          6           0        1.517721   -1.864632    0.983716
      7          6           0        2.511819   -2.114068   -0.161983
      8          6           0        2.795170   -0.727650   -0.747034
      9          8           0        3.359776   -0.496272   -1.794336
     10          6           0       -1.189723    1.960894   -0.180471
     11          6           0       -1.988323    0.676697   -0.134064
     12          6           0       -2.740549    0.238322   -1.224017
     13          6           0       -3.464015   -0.951278   -1.117430
     14          7           0       -3.479518   -1.717581   -0.021665
     15          6           0       -2.752823   -1.290437    1.021384
     16          6           0       -2.002199   -0.117466    1.017746
     17          1           0        0.984368    3.650639   -0.325059
     18          1           0        1.781407    2.899683    1.078118
     19          1           0        0.196893    3.659808    1.276364
     20          1           0        0.317174    0.085883   -0.827372
     21          1           0        1.289533    1.426078   -1.436839
     22          1           0        2.943883    1.128546    0.346935
     23          1           0        1.053557    0.031375    2.030885
     24          1           0        2.745904   -0.480259    2.128307
     25          1           0        0.488649   -1.888327    0.606475
     26          1           0        1.586976   -2.611034    1.780241
     27          1           0        2.172959   -2.804340   -0.939976
     28          1           0        3.464842   -2.505634    0.221709
     29          1           0       -1.688910    2.711283    0.446098
     30          1           0       -1.193409    2.361738   -1.212386
     31          1           0       -2.759014    0.808539   -2.148920
     32          1           0       -4.054262   -1.308578   -1.959605
     33          1           0       -2.773553   -1.923408    1.906947
     34          1           0       -1.422976    0.176013    1.886652
 ---------------------------------------------------------------------

 SCF Done:  E(UB3LYP) =  -691.180974068     A.U. after   33 cycles
 SCF Done:  E(UB3LYP) =  -691.180974068     a.u. after    1 cycles

 The electronic state is 2-A.
 Alpha  occ. eigenvalues --  -18.99168 -14.20730 -14.17924 -10.13106 -10.09850
 Alpha  occ. eigenvalues --  -10.09010 -10.08933 -10.08696 -10.08654 -10.06670
 Alpha  occ. eigenvalues --  -10.06509 -10.06392 -10.06280 -10.05964 -10.05868
 Alpha  occ. eigenvalues --  -10.05557  -0.92511  -0.83102  -0.82059  -0.72806
 Alpha  occ. eigenvalues --   -0.69985  -0.64375  -0.64186  -0.60763  -0.58529
 Alpha  occ. eigenvalues --   -0.56392  -0.51750  -0.50881  -0.48349  -0.45619
 Alpha  occ. eigenvalues --   -0.42235  -0.40218  -0.39070  -0.37795  -0.36458
 Alpha  occ. eigenvalues --   -0.35874  -0.35311  -0.35042  -0.34126  -0.31387
 Alpha  occ. eigenvalues --   -0.31182  -0.30223  -0.29913  -0.28928  -0.28299
 Alpha  occ. eigenvalues --   -0.27799  -0.27234  -0.26656  -0.25803  -0.24488
 Alpha  occ. eigenvalues --   -0.23850  -0.22677  -0.22542  -0.21463  -0.16910
 Alpha  occ. eigenvalues --   -0.15211  -0.14196  -0.12987  -0.12195   0.04635
 Alpha virt. eigenvalues --    0.06232   0.07346   0.07879   0.08211   0.08967
 Alpha virt. eigenvalues --    0.09216   0.09346   0.10002   0.10161   0.10835
 Alpha virt. eigenvalues --    0.11553   0.11944   0.12193   0.12882   0.13270

  Beta  occ. eigenvalues --  -18.99054 -14.20698 -14.17628 -10.12950 -10.09863
  Beta  occ. eigenvalues --  -10.08987 -10.08920 -10.08650 -10.08637 -10.06518
  Beta  occ. eigenvalues --  -10.06428 -10.06373 -10.06286 -10.05947 -10.05855
  Beta  occ. eigenvalues --  -10.05542  -0.92273  -0.82997  -0.81695  -0.72700
  Beta  occ. eigenvalues --   -0.69603  -0.64226  -0.64123  -0.60663  -0.58458
  Beta  occ. eigenvalues --   -0.56235  -0.51646  -0.50684  -0.48158  -0.45534
  Beta  occ. eigenvalues --   -0.42070  -0.40120  -0.38954  -0.37669  -0.36325
  Beta  occ. eigenvalues --   -0.35746  -0.35183  -0.34934  -0.34022  -0.31341
  Beta  occ. eigenvalues --   -0.31076  -0.30099  -0.29721  -0.28850  -0.27964
  Beta  occ. eigenvalues --   -0.27374  -0.27097  -0.26437  -0.25636  -0.24401
  Beta  occ. eigenvalues --   -0.23800  -0.22519  -0.22259  -0.21382  -0.15694
  Beta  occ. eigenvalues --   -0.14751  -0.13870  -0.12885  -0.12126
  Beta virt. eigenvalues --    0.06867   0.07823   0.08008   0.08438   0.09102
  Beta virt. eigenvalues --    0.09204   0.09584   0.09681   0.10191   0.10294
  Beta virt. eigenvalues --    0.11009   0.11693   0.12117   0.12353   0.12967

 Mulliken charges and spin densities:
               1          2
     1  C    0.184942  -0.457921
     2  N    0.260138   0.080354
     3  C   -0.698902  -0.416901
     4  C    0.696433   0.086638
     5  C   -0.177199  -0.181119
     6  C   -0.012633  -0.325001
     7  C   -0.016440  -0.331231
     8  C   -0.341654  -0.014609
     9  O   -0.325374   0.047668
    10  C   -0.626506  -0.084151
    11  C    0.270967   0.081873
    12  C   -0.131811   0.136489
    13  C   -0.508311  -0.004432
    14  N   -0.087719   0.116258
    15  C   -0.862967   0.074349
    16  C    0.734184   0.025906
    17  H   -0.014944   0.127403
    18  H   -0.221799   0.360330
    19  H    0.031414   0.100415
    20  H    0.134203   0.059994
    21  H    0.248780  -0.096710
    22  H   -0.053893   0.311235
    23  H    0.043644   0.070990
    24  H   -0.453156   0.633830
    25  H    0.344589  -0.191808
    26  H   -0.191973   0.358557
    27  H    0.167985   0.003546
    28  H   -0.197359   0.375325
    29  H    0.176592  -0.012084
    30  H    0.083474   0.023126
    31  H    0.117114   0.029876
    32  H    0.132189  -0.003268
    33  H    0.113009   0.021527
    34  H    0.182982  -0.006454
 Sum of Mulliken charges =  -1.00000   1.00000

 Dipole moment (field-independent basis, Debye):
    X=             -4.2312    Y=              2.6966    Z=             -0.8298  Tot=              5.0856
 Quadrupole moment (field-independent basis, Debye-Ang):
   XX=           -170.6645   YY=           -130.9632   ZZ=           -124.0759
   XY=             -7.7465   XZ=             -0.2194   YZ=              0.4663

 Summary of Natural Population Analysis:

                                       Natural Population
                Natural  -----------------------------------------------
    Atom  No    Charge         Core      Valence    Rydberg      Total
 -----------------------------------------------------------------------
      C    1   -0.17582      0.99965     2.16791    0.00827     3.17582
      N    2   -0.27849      0.99971     2.76776    0.01101     3.77849
      C    3   -0.08070      0.99958     2.06957    0.01155     3.08070
      C    4   -0.16029      0.99955     2.14864    0.01210     3.16029
      C    5   -0.19248      0.99963     2.18291    0.00994     3.19248
      C    6   -0.19462      0.99964     2.18679    0.00818     3.19462
      C    7   -0.24248      0.99959     2.23465    0.00824     3.24248
      C    8    0.32265      0.99965     1.65494    0.02277     2.67735
      O    9   -0.28493      0.99987     3.27857    0.00649     4.28493
      C   10   -0.08832      0.99958     2.07880    0.00993     3.08832
      C   11    0.03103      0.99950     1.95929    0.01017     2.96897
      C   12   -0.13199      0.99951     2.12178    0.01070     3.13199
      C   13    0.03120      0.99960     1.95509    0.01410     2.96880
      N   14   -0.20487      0.99972     2.69343    0.01172     3.70487
      C   15    0.02609      0.99960     1.96049    0.01382     2.97391
      C   16   -0.12373      0.99950     2.11379    0.01044     3.12373
      H   17    0.07907      0.00000     0.41968    0.00126     0.42093
      H   18    0.09996      0.00000     0.39888    0.00116     0.40004
      H   19    0.09203      0.00000     0.40718    0.00080     0.40797
      H   20    0.10306      0.00000     0.39554    0.00140     0.39694
      H   21    0.08941      0.00000     0.40933    0.00126     0.41059
      H   22    0.11064      0.00000     0.38746    0.00190     0.38936
      H   23    0.10603      0.00000     0.39234    0.00164     0.39397
      H   24    0.09750      0.00000     0.40058    0.00193     0.40250
      H   25    0.10075      0.00000     0.39787    0.00139     0.39925
      H   26    0.09965      0.00000     0.39915    0.00120     0.40035
      H   27    0.10810      0.00000     0.39109    0.00081     0.39190
      H   28    0.11228      0.00000     0.38564    0.00208     0.38772
      H   29    0.09964      0.00000     0.39929    0.00107     0.40036
      H   30    0.08096      0.00000     0.41753    0.00151     0.41904
      H   31    0.09737      0.00000     0.40175    0.00088     0.40263
      H   32    0.08235      0.00000     0.41646    0.00119     0.41765
      H   33    0.08437      0.00000     0.41438    0.00125     0.41563
      H   34    0.10458      0.00000     0.39406    0.00136     0.39542
 =======================================================================
   * Total *    0.00000     15.99388    42.80261    0.20351    59.00000

 Normal termination of Gaussian 16 at Fri Dec 11 01:36:23 2020.
