 Gaussian 16, Revision A.03,

 -----------------------------------------------------------
 # opt freq B3LYP/6-31G(d) empiricaldispersion=gd3bj scf=xqc
 -----------------------------------------------------------

 -------------------------------
 CID_133818525_JID_9571_neutraal
 -------------------------------
 Symbolic Z-matrix:
 Charge =  0 Multiplicity = 1

 SCF Done:  E(RB3LYP) =  -874.523928492     A.U. after   15 cycles
 SCF Done:  E(RB3LYP) =  -874.528620746     A.U. after   13 cycles
 SCF Done:  E(RB3LYP) =  -874.529205308     A.U. after   12 cycles
 SCF Done:  E(RB3LYP) =  -874.529469733     A.U. after   12 cycles
 SCF Done:  E(RB3LYP) =  -874.529567857     A.U. after   11 cycles
 SCF Done:  E(RB3LYP) =  -874.529630259     A.U. after   11 cycles
 SCF Done:  E(RB3LYP) =  -874.529653730     A.U. after   10 cycles
 SCF Done:  E(RB3LYP) =  -874.529664648     A.U. after   10 cycles
 SCF Done:  E(RB3LYP) =  -874.529669202     A.U. after    9 cycles
 SCF Done:  E(RB3LYP) =  -874.529670306     A.U. after    8 cycles
 SCF Done:  E(RB3LYP) =  -874.529673242     A.U. after    9 cycles
 SCF Done:  E(RB3LYP) =  -874.529674210     A.U. after    9 cycles
 SCF Done:  E(RB3LYP) =  -874.529674993     A.U. after    9 cycles
 SCF Done:  E(RB3LYP) =  -874.529675778     A.U. after    8 cycles
 SCF Done:  E(RB3LYP) =  -874.529675952     A.U. after    8 cycles
 Optimization completed.
    -- Stationary point found.
 Normal termination of Gaussian 16 at Sun Dec 13 16:15:00 2020.

 --------------------------------------------------------------------
 #N Geom=AllCheck Guess=TCheck SCRF=Check GenChk RB3LYP/6-31G(d) Freq
 --------------------------------------------------------------------

 Structure from the checkpoint file:  "JID_9571.chk"
 -------------------------------
 CID_133818525_JID_9571_neutraal
 -------------------------------
 Charge =  0 Multiplicity = 1

 SCF Done:  E(RB3LYP) =  -874.529675952     A.U. after    1 cycles

  Exact polarizability: 258.649 -17.798 151.370  13.944  16.983 105.182
 Approx polarizability: 334.801 -28.455 263.537  31.046  41.307 167.553

                      1                      2                      3
                      A                      A                      A
 Frequencies --     22.0911                26.3916                30.7266
 Red. masses --      4.2219                 3.5189                 4.7818
 Frc consts  --      0.0012                 0.0014                 0.0027
 IR Inten    --      0.6484                 0.3708                 0.3938

                      4                      5                      6
                      A                      A                      A
 Frequencies --     62.8876                72.2298                93.2032
 Red. masses --      4.5823                 3.9224                 3.6457
 Frc consts  --      0.0107                 0.0121                 0.0187
 IR Inten    --      0.7147                 0.3182                 0.5722

                      7                      8                      9
                      A                      A                      A
 Frequencies --    101.3058               117.3156               132.6716
 Red. masses --      4.8425                 3.0310                 5.0477
 Frc consts  --      0.0293                 0.0246                 0.0523
 IR Inten    --      1.2099                 6.6764                 1.3641

                     10                     11                     12
                      A                      A                      A
 Frequencies --    173.4775               186.8944               232.9661
 Red. masses --      3.5189                 4.6700                 1.6048
 Frc consts  --      0.0624                 0.0961                 0.0513
 IR Inten    --      0.0665                 0.9564                 3.0706

                     13                     14                     15
                      A                      A                      A
 Frequencies --    234.4307               247.3814               278.3542
 Red. masses --      2.3947                 1.2726                 6.1823
 Frc consts  --      0.0775                 0.0459                 0.2822
 IR Inten    --      0.8668                 0.0593                 1.9855

                     16                     17                     18
                      A                      A                      A
 Frequencies --    312.8701               335.3979               357.5710
 Red. masses --      4.2134                 3.7375                 2.2760
 Frc consts  --      0.2430                 0.2477                 0.1715
 IR Inten    --      6.9387                 0.7556                 2.0283

                     19                     20                     21
                      A                      A                      A
 Frequencies --    422.6041               446.2385               467.6702
 Red. masses --      3.6766                 3.2244                 4.5723
 Frc consts  --      0.3869                 0.3783                 0.5892
 IR Inten    --      4.6157                 2.4491                 1.4538

                     22                     23                     24
                      A                      A                      A
 Frequencies --    481.0271               516.2430               569.7382
 Red. masses --      5.4398                 3.8899                 3.7631
 Frc consts  --      0.7416                 0.6108                 0.7197
 IR Inten    --     28.6581                12.2941                 8.0858

                     25                     26                     27
                      A                      A                      A
 Frequencies --    617.0591               626.4710               649.8799
 Red. masses --      3.9281                 3.5298                 6.4887
 Frc consts  --      0.8812                 0.8162                 1.6146
 IR Inten    --     20.7245                 1.4284                 1.5117

                     28                     29                     30
                      A                      A                      A
 Frequencies --    668.2289               687.9288               690.0800
 Red. masses --      3.4183                 2.1164                 1.8212
 Frc consts  --      0.8993                 0.5901                 0.5110
 IR Inten    --     22.8972                 5.2482                13.4973

                     31                     32                     33
                      A                      A                      A
 Frequencies --    713.7868               780.7626               803.8257
 Red. masses --      2.4743                 3.8742                 5.8496
 Frc consts  --      0.7428                 1.3915                 2.2269
 IR Inten    --     29.1416                 9.8025                18.3309

                     34                     35                     36
                      A                      A                      A
 Frequencies --    812.3759               840.8823               845.4342
 Red. masses --      2.2321                 1.3345                 1.6346
 Frc consts  --      0.8679                 0.5560                 0.6884
 IR Inten    --     94.7222                22.3397                20.3237

                     37                     38                     39
                      A                      A                      A
 Frequencies --    860.1689               886.6497               916.3547
 Red. masses --      1.3648                 2.4384                 6.3247
 Frc consts  --      0.5949                 1.1294                 3.1291
 IR Inten    --      0.0701                13.5019                 6.6306

                     40                     41                     42
                      A                      A                      A
 Frequencies --    945.6934               965.8909               971.9155
 Red. masses --      1.8994                 1.6122                 1.4518
 Frc consts  --      1.0009                 0.8862                 0.8080
 IR Inten    --     11.9323                 0.8683                 5.8067

                     43                     44                     45
                      A                      A                      A
 Frequencies --    991.6855               998.4624              1001.1082
 Red. masses --      1.3647                 4.5310                 2.3533
 Frc consts  --      0.7907                 2.6614                 1.3896
 IR Inten    --     12.9991                58.2311                 4.9245

                     46                     47                     48
                      A                      A                      A
 Frequencies --   1043.3922              1076.4411              1113.3661
 Red. masses --      3.2728                 1.6975                 1.9165
 Frc consts  --      2.0992                 1.1589                 1.3997
 IR Inten    --     13.7541                92.5501                62.0908

                     49                     50                     51
                      A                      A                      A
 Frequencies --   1139.7564              1147.7489              1152.3831
 Red. masses --      1.4842                 2.2908                 4.9870
 Frc consts  --      1.1359                 1.7780                 3.9020
 IR Inten    --     28.7556                57.8327                 6.9418

                     52                     53                     54
                      A                      A                      A
 Frequencies --   1166.1347              1172.8333              1187.2942
 Red. masses --      1.7717                 2.0660                 1.9020
 Frc consts  --      1.4195                 1.6743                 1.5797
 IR Inten    --     64.5050                49.6320                36.0251

                     55                     56                     57
                      A                      A                      A
 Frequencies --   1196.1657              1207.3831              1235.9134
 Red. masses --      1.7940                 1.9991                 1.7726
 Frc consts  --      1.5124                 1.7171                 1.5952
 IR Inten    --     18.0934                10.3639                59.1057

                     58                     59                     60
                      A                      A                      A
 Frequencies --   1268.3462              1281.8161              1291.7384
 Red. masses --      1.5385                 2.6616                 1.1348
 Frc consts  --      1.4582                 2.5766                 1.1156
 IR Inten    --     22.3467                30.1690                25.6529

                     61                     62                     63
                      A                      A                      A
 Frequencies --   1328.4830              1346.8922              1350.1643
 Red. masses --      3.7341                 1.5921                 2.4692
 Frc consts  --      3.8828                 1.7017                 2.6521
 IR Inten    --     25.0074                12.0110               180.8061

                     64                     65                     66
                      A                      A                      A
 Frequencies --   1357.6607              1378.9814              1384.9524
 Red. masses --      1.8255                 2.1653                 1.7676
 Frc consts  --      1.9825                 2.4260                 1.9976
 IR Inten    --     60.8401               259.3854               188.9243

                     67                     68                     69
                      A                      A                      A
 Frequencies --   1424.9238              1435.0724              1444.7914
 Red. masses --      1.3901                 3.9157                 1.6543
 Frc consts  --      1.6630                 4.7512                 2.0345
 IR Inten    --     13.4315                58.5069                14.0069

                     70                     71                     72
                      A                      A                      A
 Frequencies --   1448.1456              1482.3540              1504.4220
 Red. masses --      2.7563                 1.3900                 1.1627
 Frc consts  --      3.4057                 1.7995                 1.5505
 IR Inten    --     19.6256                72.7097                 0.8053

                     73                     74                     75
                      A                      A                      A
 Frequencies --   1516.0688              1521.5735              1524.7720
 Red. masses --      1.0477                 1.0540                 3.4283
 Frc consts  --      1.4189                 1.4377                 4.6961
 IR Inten    --      6.5135                 1.6149               185.7598

                     76                     77                     78
                      A                      A                      A
 Frequencies --   1530.0452              1531.3810              1542.2574
 Red. masses --      1.0775                 1.0869                 3.4239
 Frc consts  --      1.4862                 1.5017                 4.7983
 IR Inten    --      7.6882                 5.9557               172.1684

                     79                     80                     81
                      A                      A                      A
 Frequencies --   1552.1137              1571.3308              1627.6198
 Red. masses --      1.0899                 4.7251                 6.4929
 Frc consts  --      1.5470                 6.8739                10.1344
 IR Inten    --      1.4836                37.6927                58.5835

                     82                     83                     84
                      A                      A                      A
 Frequencies --   1658.2525              1769.5370              2988.4819
 Red. masses --      5.9407                 8.9949                 1.0509
 Frc consts  --      9.6248                16.5945                 5.5298
 IR Inten    --    220.0718               343.8449                26.0811

                     85                     86                     87
                      A                      A                      A
 Frequencies --   3002.9307              3025.7917              3048.3049
 Red. masses --      1.0401                 1.1082                 1.1057
 Frc consts  --      5.5261                 5.9778                 6.0533
 IR Inten    --     88.7011                61.3219                50.3343

                     88                     89                     90
                      A                      A                      A
 Frequencies --   3058.0165              3104.1673              3125.6869
 Red. masses --      1.0367                 1.0846                 1.1015
 Frc consts  --      5.7120                 6.1573                 6.3406
 IR Inten    --     19.6432                16.9974                29.5099

                     91                     92                     93
                      A                      A                      A
 Frequencies --   3147.4401              3149.3447              3205.9515
 Red. masses --      1.0976                 1.1023                 1.0915
 Frc consts  --      6.4064                 6.4414                 6.6097
 IR Inten    --     28.6319                18.3978                 6.5579

                     94                     95                     96
                      A                      A                      A
 Frequencies --   3208.4050              3237.0898              3266.1010
 Red. masses --      1.0897                 1.0936                 1.0940
 Frc consts  --      6.6091                 6.7517                 6.8757
 IR Inten    --      8.9068                 6.6623                 6.6754

                     97                     98                     99
                      A                      A                      A
 Frequencies --   3310.9800              3314.4238              3550.6728
 Red. masses --      1.0969                 1.1013                 1.0743
 Frc consts  --      7.0849                 7.1280                 7.9797
 IR Inten    --      0.3374                 4.4995                53.6164

 - Thermochemistry -
 -------------------
 Temperature   298.150 Kelvin.  Pressure   1.00000 Atm.
 Atom     1 has atomic number  6 and mass  12.00000

 Molecular mass:   260.12733 amu.
 Principal axes and moments of inertia in atomic units:
                           1         2         3
     Eigenvalues --  1704.17583********************
           X            0.99997   0.00765  -0.00296
           Y           -0.00753   0.99929   0.03703
           Z            0.00324  -0.03701   0.99931
 This molecule is an asymmetric top.
 Rotational symmetry number  1.
 Warning -- assumption of classical behavior for rotation
           may cause significant error
 Rotational temperatures (Kelvin)      0.05082     0.00680     0.00639
 Rotational constants (GHZ):           1.05901     0.14171     0.13323
 Zero-point vibrational energy     752765.9 (Joules/Mol)
                                  179.91536 (Kcal/Mol)
 Warning -- explicit consideration of  25 degrees of freedom as
           vibrations may cause significant error
 Vibrational temperatures:     31.78    37.97    44.21    90.48   103.92
          (Kelvin)            134.10   145.76   168.79   190.88   249.60
                              268.90   335.19   337.29   355.93   400.49
                              450.15   482.56   514.46   608.03   642.04
                              672.87   692.09   742.76   819.73   887.81
                              901.35   935.03   961.43   989.78   992.87
                             1026.98  1123.34  1156.53  1168.83  1209.84
                             1216.39  1237.59  1275.69  1318.43  1360.64
                             1389.70  1398.37  1426.81  1436.56  1440.37
                             1501.21  1548.76  1601.89  1639.86  1651.35
                             1658.02  1677.81  1687.45  1708.25  1721.02
                             1737.15  1778.20  1824.87  1844.25  1858.52
                             1911.39  1937.88  1942.59  1953.37  1984.05
                             1992.64  2050.15  2064.75  2078.73  2083.56
                             2132.78  2164.53  2181.28  2189.20  2193.81
                             2201.39  2203.32  2218.96  2233.15  2260.79
                             2341.78  2385.86  2545.97  4299.76  4320.55
                             4353.44  4385.83  4399.80  4466.20  4497.17
                             4528.46  4531.20  4612.65  4616.18  4657.45
                             4699.19  4763.76  4768.72  5108.63

 Zero-point correction=                           0.286713 (Hartree/Particle)
 Thermal correction to Energy=                    0.304458
 Thermal correction to Enthalpy=                  0.305403
 Thermal correction to Gibbs Free Energy=         0.238130
 Sum of electronic and zero-point Energies=           -874.242963
 Sum of electronic and thermal Energies=              -874.225218
 Sum of electronic and thermal Enthalpies=            -874.224273
 Sum of electronic and thermal Free Energies=         -874.291546

                     E (Thermal)             CV                S
                      KCal/Mol        Cal/Mol-Kelvin    Cal/Mol-Kelvin
 Total                  191.051             65.576            141.587
 Electronic               0.000              0.000              0.000
 Translational            0.889              2.981             42.568
 Rotational               0.889              2.981             34.041
 Vibrational            189.273             59.614             64.979
 Vibration     1          0.593              1.985              6.437
 Vibration     2          0.593              1.985              6.084
 Vibration     3          0.594              1.984              5.782
 Vibration     4          0.597              1.972              4.364
 Vibration     5          0.598              1.967              4.092
 Vibration     6          0.602              1.954              3.592
 Vibration     7          0.604              1.948              3.429
 Vibration     8          0.608              1.935              3.144
 Vibration     9          0.613              1.921              2.907
 Vibration    10          0.627              1.875              2.397
 Vibration    11          0.632              1.858              2.258
 Vibration    12          0.654              1.790              1.856
 Vibration    13          0.654              1.788              1.845
 Vibration    14          0.661              1.767              1.749
 Vibration    15          0.679              1.714              1.544
 Vibration    16          0.701              1.649              1.347
 Vibration    17          0.717              1.605              1.234
 Vibration    18          0.733              1.560              1.133
 Vibration    19          0.785              1.421              0.883
 Vibration    20          0.805              1.369              0.807
 Vibration    21          0.825              1.322              0.744
 Vibration    22          0.837              1.292              0.707
 Vibration    23          0.871              1.214              0.619
 Vibration    24          0.926              1.097              0.505
 Vibration    25          0.977              0.996              0.421

                           ! Non-Optimized Parameters !
 Normal termination of Gaussian 16 at Sun Dec 13 16:31:02 2020.

 ----------------------------------------------------------------------
 # B3LYP/6-311++G(d,p) empiricaldispersion=gd3bj scf=xqc pop=npa geom=c
 heck
 ----------------------------------------------------------------------

 ---------------------------------------
 CID_133818525_JID_9571_Energie_neutraal
 ---------------------------------------
 Structure from the checkpoint file:  "JID_9571.chk"
 Charge =  0 Multiplicity = 1

 SCF Done:  E(RB3LYP) =  -874.771487681     A.U. after   16 cycles
 Normal termination of Gaussian 16 at Sun Dec 13 16:38:41 2020.

 ----------------------------------------------------------------------
 # B3LYP/6-311++G(d,p) empiricaldispersion=gd3bj scf=xqc pop=npa geom=c
 heck
 ----------------------------------------------------------------------

 -------------------------------------
 CID_133818525_JID_9571_Energie_kation
 -------------------------------------
 Structure from the checkpoint file:  "JID_9571.chk"
 Charge =  1 Multiplicity = 2

 SCF Done:  E(UB3LYP) =  -874.465273456     A.U. after   31 cycles
 Normal termination of Gaussian 16 at Sun Dec 13 17:00:39 2020.
 Gaussian 16:  ES64L-G16RevA.03 25-Dec-2016

 ----------------------------------------------------------------------
 # B3LYP/6-311++G(d,p) empiricaldispersion=gd3bj scf=xqc pop=npa geom=c
 heck
 ----------------------------------------------------------------------

 ------------------------------------
 CID_133818525_JID_9571_Energie_anion
 ------------------------------------
 Structure from the checkpoint file:  "JID_9571.chk"
 Charge = -1 Multiplicity = 2

                         Standard orientation:
 ---------------------------------------------------------------------
 Center     Atomic      Atomic             Coordinates (Angstroms)
 Number     Number       Type             X           Y           Z
 ---------------------------------------------------------------------
      1          6           0       -2.653205   -0.297856    1.880973
      2          6           0       -2.688137   -0.610534    0.380483
      3          6           0       -3.953804   -1.361238   -0.024596
      4          8           0       -5.058019   -0.507443    0.206480
      5          6           0       -6.287389   -1.070491   -0.203369
      6          7           0       -2.622596    0.606703   -0.440584
      7          6           0       -1.560844    1.481331   -0.483376
      8          8           0       -1.717139    2.687096   -0.639608
      9          6           0       -0.184750    0.899079   -0.387919
     10          6           0        0.799370    1.614237    0.303289
     11          7           0        2.063094    1.210463    0.426954
     12          6           0        2.419471    0.072410   -0.177227
     13          6           0        1.532355   -0.702502   -0.936653
     14          6           0        0.213271   -0.278598   -1.029384
     15          7           0        3.764756   -0.303812   -0.013737
     16          6           0        4.392618   -1.470744   -0.442583
     17          6           0        5.693728   -1.354224   -0.042773
     18          7           0        5.901278   -0.155016    0.618430
     19          6           0        4.738702    0.446970    0.622015
     20          1           0       -3.508826    0.322737    2.160882
     21          1           0       -1.732842    0.236558    2.136617
     22          1           0       -2.687417   -1.221912    2.469498
     23          1           0       -1.838729   -1.251177    0.129396
     24          1           0       -3.900497   -1.637071   -1.090135
     25          1           0       -4.046632   -2.286922    0.566119
     26          1           0       -6.287965   -1.296574   -1.280907
     27          1           0       -6.508621   -1.997215    0.348200
     28          1           0       -7.065282   -0.333616    0.008907
     29          1           0       -3.510815    1.100363   -0.471582
     30          1           0        0.539645    2.556343    0.778526
     31          1           0        1.861535   -1.596303   -1.451727
     32          1           0       -0.496915   -0.841817   -1.626744
     33          1           0        3.866865   -2.254034   -0.962900
     34          1           0        6.498606   -2.061587   -0.188108
     35          1           0        4.505113    1.409599    1.048240
 ---------------------------------------------------------------------

 SCF Done:  E(UB3LYP) =  -874.788397440     A.U. after   33 cycles
 SCF Done:  E(UB3LYP) =  -874.788397440     a.u. after    1 cycles

 The electronic state is 2-A.
 Alpha  occ. eigenvalues --  -19.05768 -18.95548 -14.25212 -14.21071 -14.17239
 Alpha  occ. eigenvalues --  -14.17119 -10.14672 -10.14130 -10.13555 -10.11964
 Alpha  occ. eigenvalues --  -10.09989 -10.09170 -10.07852 -10.07754 -10.06935
 Alpha  occ. eigenvalues --  -10.06773 -10.05700 -10.05417 -10.03750  -0.97172
 Alpha  occ. eigenvalues --   -0.90869  -0.90021  -0.82117  -0.80878  -0.75634
 Alpha  occ. eigenvalues --   -0.68952  -0.67809  -0.64011  -0.63020  -0.62255
 Alpha  occ. eigenvalues --   -0.58140  -0.54323  -0.51894  -0.51181  -0.47931
 Alpha  occ. eigenvalues --   -0.45988  -0.45670  -0.43572  -0.42104  -0.41489
 Alpha  occ. eigenvalues --   -0.39829  -0.38304  -0.36402  -0.34854  -0.34597
 Alpha  occ. eigenvalues --   -0.34118  -0.33160  -0.32478  -0.32088  -0.31436
 Alpha  occ. eigenvalues --   -0.30778  -0.29632  -0.29207  -0.28740  -0.27972
 Alpha  occ. eigenvalues --   -0.27809  -0.26382  -0.25628  -0.25486  -0.24694
 Alpha  occ. eigenvalues --   -0.19527  -0.18972  -0.16603  -0.15894  -0.15027
 Alpha  occ. eigenvalues --   -0.13843  -0.12992  -0.12308  -0.10978   0.03379
 Alpha virt. eigenvalues --    0.04718   0.07147   0.07769   0.08297   0.08617
 Alpha virt. eigenvalues --    0.09346   0.09613   0.10354   0.10549   0.11091
 Alpha virt. eigenvalues --    0.11531   0.11811   0.12233   0.12793   0.13529

  Beta  occ. eigenvalues --  -19.05766 -18.95346 -14.25304 -14.21058 -14.17198
  Beta  occ. eigenvalues --  -14.16988 -10.14657 -10.14126 -10.13432 -10.11956
  Beta  occ. eigenvalues --  -10.09525 -10.09016 -10.07772 -10.07754 -10.06934
  Beta  occ. eigenvalues --  -10.06750 -10.05804 -10.05193 -10.03519  -0.97167
  Beta  occ. eigenvalues --   -0.90526  -0.89882  -0.81726  -0.80759  -0.75484
  Beta  occ. eigenvalues --   -0.68826  -0.67461  -0.63675  -0.63000  -0.61984
  Beta  occ. eigenvalues --   -0.58113  -0.53780  -0.51709  -0.51120  -0.47788
  Beta  occ. eigenvalues --   -0.45880  -0.45433  -0.43387  -0.42038  -0.41471
  Beta  occ. eigenvalues --   -0.39753  -0.38191  -0.36298  -0.34629  -0.34466
  Beta  occ. eigenvalues --   -0.34019  -0.32579  -0.32325  -0.32030  -0.31364
  Beta  occ. eigenvalues --   -0.30687  -0.29519  -0.29103  -0.28656  -0.27703
  Beta  occ. eigenvalues --   -0.27179  -0.25940  -0.25552  -0.25212  -0.24282
  Beta  occ. eigenvalues --   -0.19518  -0.18211  -0.15807  -0.15578  -0.14705
  Beta  occ. eigenvalues --   -0.13541  -0.12574  -0.11683  -0.09997
  Beta virt. eigenvalues --    0.04841   0.07032   0.07718   0.08246   0.08532
  Beta virt. eigenvalues --    0.08597   0.09559   0.09670   0.10321   0.10554
  Beta virt. eigenvalues --    0.11058   0.11578   0.12049   0.12596   0.12732

 Mulliken charges and spin densities:
               1          2
     1  C   -0.664601  -0.005029
     2  C   -0.015538  -0.028809
     3  C   -0.385580   0.051792
     4  O   -0.159845   0.014051
     5  C    0.026263  -0.300752
     6  N   -0.037596   0.009355
     7  C   -0.514282   0.012710
     8  O   -0.365149   0.070454
     9  C    0.599006   0.124986
    10  C   -0.385731   0.000621
    11  N   -0.171405   0.077329
    12  C   -0.810673   0.213565
    13  C    0.285943  -0.036240
    14  C   -0.026570   0.254169
    15  N    0.122830  -0.046287
    16  C    0.319044   0.056528
    17  C   -0.663331   0.033140
    18  N   -0.166848   0.016422
    19  C   -0.111258   0.113269
    20  H    0.155270  -0.001350
    21  H    0.191103  -0.003406
    22  H    0.116591   0.002761
    23  H    0.154577   0.006119
    24  H    0.145843   0.012939
    25  H    0.137331  -0.001007
    26  H    0.001695   0.134830
    27  H   -0.012407   0.132626
    28  H    0.061719   0.076784
    29  H    0.292441   0.005748
    30  H    0.208635   0.001297
    31  H    0.111839   0.009907
    32  H    0.153417   0.007425
    33  H    0.103308  -0.006912
    34  H    0.115024  -0.000664
    35  H    0.188935  -0.008372
 Sum of Mulliken charges =  -1.00000   1.00000

 Dipole moment (field-independent basis, Debye):
    X=             -7.6460    Y=             -6.1802    Z=              0.0343  Tot=              9.8314
 Quadrupole moment (field-independent basis, Debye-Ang):
   XX=           -206.6137   YY=           -133.8782   ZZ=           -125.8574
   XY=              5.2924   XZ=            -10.1824   YZ=              6.1315

 Summary of Natural Population Analysis:

                                       Natural Population
                Natural  -----------------------------------------------
    Atom  No    Charge         Core      Valence    Rydberg      Total
 -----------------------------------------------------------------------
      C    1   -0.29190      0.99965     2.28785    0.00440     3.29190
      C    2   -0.02383      0.99960     2.01249    0.01174     3.02383
      C    3   -0.00863      0.99957     1.99577    0.01329     3.00863
      O    4   -0.30195      0.99988     3.29300    0.00907     4.30195
      C    5   -0.09494      0.99963     2.08731    0.00800     3.09494
      N    6   -0.33329      0.99967     2.82225    0.01137     3.83329
      C    7    0.35560      0.99963     1.62231    0.02246     2.64440
      O    8   -0.30429      0.99988     3.29895    0.00546     4.30429
      C    9   -0.06757      0.99945     2.05626    0.01186     3.06757
      C   10    0.05149      0.99956     1.93628    0.01266     2.94851
      N   11   -0.23426      0.99967     2.72585    0.00874     3.73426
      C   12    0.26587      0.99952     1.71873    0.01588     2.73413
      C   13   -0.15591      0.99954     2.14975    0.00662     3.15591
      C   14   -0.03702      0.99955     2.02783    0.00964     3.03702
      N   15   -0.21692      0.99963     2.70722    0.01007     3.71692
      C   16   -0.02635      0.99957     2.01667    0.01012     3.02635
      C   17   -0.03899      0.99959     2.02500    0.01439     3.03899
      N   18   -0.26037      0.99973     2.74879    0.01186     3.76037
      C   19    0.14175      0.99966     1.84218    0.01641     2.85825
      H   20    0.10202      0.00000     0.39709    0.00090     0.39798
      H   21    0.10889      0.00000     0.39038    0.00073     0.39111
      H   22    0.09360      0.00000     0.40567    0.00073     0.40640
      H   23    0.10628      0.00000     0.39229    0.00144     0.39372
      H   24    0.08443      0.00000     0.41419    0.00138     0.41557
      H   25    0.07887      0.00000     0.41996    0.00117     0.42113
      H   26    0.07820      0.00000     0.42001    0.00178     0.42180
      H   27    0.07608      0.00000     0.42217    0.00175     0.42392
      H   28    0.09037      0.00000     0.40861    0.00103     0.40963
      H   29    0.19049      0.00000     0.30605    0.00345     0.30951
      H   30    0.09215      0.00000     0.40677    0.00108     0.40785
      H   31    0.09711      0.00000     0.40160    0.00129     0.40289
      H   32    0.09405      0.00000     0.40484    0.00111     0.40595
      H   33    0.09802      0.00000     0.40109    0.00089     0.40198
      H   34    0.08918      0.00000     0.40980    0.00101     0.41082
      H   35    0.10177      0.00000     0.39717    0.00107     0.39823
 =======================================================================
   * Total *   -0.00000     18.99297    49.77216    0.23486    69.00000

 Normal termination of Gaussian 16 at Sun Dec 13 17:22:56 2020.
