 Gaussian 16, Revision A.03,

 -----------------------------------------------------------
 # opt freq B3LYP/6-31G(d) empiricaldispersion=gd3bj scf=xqc
 -----------------------------------------------------------

 -------------------------------
 CID_142100715_JID_1866_neutraal
 -------------------------------
 Symbolic Z-matrix:
 Charge =  0 Multiplicity = 1

 SCF Done:  E(RB3LYP) =  -517.893820492     A.U. after   15 cycles
 SCF Done:  E(RB3LYP) =  -517.899645908     A.U. after   13 cycles
 SCF Done:  E(RB3LYP) =  -517.899001277     A.U. after   14 cycles
 SCF Done:  E(RB3LYP) =  -517.902784238     A.U. after   13 cycles
 SCF Done:  E(RB3LYP) =  -517.903471602     A.U. after   13 cycles
 SCF Done:  E(RB3LYP) =  -517.904191792     A.U. after   13 cycles
 SCF Done:  E(RB3LYP) =  -517.904334973     A.U. after   13 cycles
 SCF Done:  E(RB3LYP) =  -517.904797119     A.U. after   13 cycles
 SCF Done:  E(RB3LYP) =  -517.904908728     A.U. after   12 cycles
 SCF Done:  E(RB3LYP) =  -517.904936293     A.U. after   12 cycles
 SCF Done:  E(RB3LYP) =  -517.904948293     A.U. after   11 cycles
 SCF Done:  E(RB3LYP) =  -517.904953351     A.U. after   11 cycles
 SCF Done:  E(RB3LYP) =  -517.904953684     A.U. after    8 cycles
 Optimization completed.
    -- Stationary point found.
 Normal termination of Gaussian 16 at Tue Dec  8 21:25:28 2020.

 --------------------------------------------------------------------
 #N Geom=AllCheck Guess=TCheck SCRF=Check GenChk RB3LYP/6-31G(d) Freq
 --------------------------------------------------------------------

 Structure from the checkpoint file:  "JID_1866.chk"
 -------------------------------
 CID_142100715_JID_1866_neutraal
 -------------------------------
 Charge =  0 Multiplicity = 1

 SCF Done:  E(RB3LYP) =  -517.904953684     A.U. after    1 cycles

  Exact polarizability: 128.230  -3.185  86.231   3.239   4.315  73.201
 Approx polarizability: 172.054  -8.330 129.125   8.392   4.281 110.920

                      1                      2                      3
                      A                      A                      A
 Frequencies --     27.6382                40.7767                63.9837
 Red. masses --      5.0532                 3.7844                 3.2083
 Frc consts  --      0.0023                 0.0037                 0.0077
 IR Inten    --      0.0900                 0.5279                 0.8991

                      4                      5                      6
                      A                      A                      A
 Frequencies --    114.4463               132.4498               165.8531
 Red. masses --      4.5616                 3.0373                 2.7525
 Frc consts  --      0.0352                 0.0314                 0.0446
 IR Inten    --      4.0840                 1.2946                 5.7947

                      7                      8                      9
                      A                      A                      A
 Frequencies --    202.5322               221.1641               253.1425
 Red. masses --      2.0430                 2.5603                 3.0094
 Frc consts  --      0.0494                 0.0738                 0.1136
 IR Inten    --      8.3111                 0.0653                 7.8967

                     10                     11                     12
                      A                      A                      A
 Frequencies --    275.7583               288.5798               334.2068
 Red. masses --      2.0896                 2.2919                 2.7081
 Frc consts  --      0.0936                 0.1125                 0.1782
 IR Inten    --     14.7349                 3.2072                 4.4317

                     13                     14                     15
                      A                      A                      A
 Frequencies --    357.4239               444.8051               524.7429
 Red. masses --      2.3107                 2.1944                 3.7742
 Frc consts  --      0.1739                 0.2558                 0.6123
 IR Inten    --      5.4242                 0.5963                 2.8316

                     16                     17                     18
                      A                      A                      A
 Frequencies --    548.8739               636.2365               744.9095
 Red. masses --      3.7235                 3.4030                 1.2800
 Frc consts  --      0.6609                 0.8116                 0.4185
 IR Inten    --      0.5535                 5.0913                14.9650

                     19                     20                     21
                      A                      A                      A
 Frequencies --    762.6958               789.6632               830.0102
 Red. masses --      2.1545                 2.5912                 2.4921
 Frc consts  --      0.7384                 0.9520                 1.0115
 IR Inten    --      7.9119                99.5273                11.9204

                     22                     23                     24
                      A                      A                      A
 Frequencies --    848.6887               896.2481               957.9564
 Red. masses --      1.6418                 2.8106                 1.4214
 Frc consts  --      0.6967                 1.3301                 0.7685
 IR Inten    --      5.6395                25.2686                 5.8508

                     25                     26                     27
                      A                      A                      A
 Frequencies --    972.3469               990.5518              1027.9170
 Red. masses --      2.2665                 1.3039                 1.6699
 Frc consts  --      1.2625                 0.7538                 1.0396
 IR Inten    --      3.2670                 3.3560                 4.7962

                     28                     29                     30
                      A                      A                      A
 Frequencies --   1034.4792              1042.4568              1090.9411
 Red. masses --      1.6863                 1.5933                 2.1533
 Frc consts  --      1.0632                 1.0202                 1.5099
 IR Inten    --      6.0546                 0.6378                 0.6471

                     31                     32                     33
                      A                      A                      A
 Frequencies --   1137.8249              1140.2241              1213.5367
 Red. masses --      1.9808                 1.7297                 1.5221
 Frc consts  --      1.5109                 1.3249                 1.3207
 IR Inten    --      7.4365                10.1108                35.6216

                     34                     35                     36
                      A                      A                      A
 Frequencies --   1243.2848              1267.6889              1284.8910
 Red. masses --      2.4295                 1.8551                 1.6801
 Frc consts  --      2.2126                 1.7565                 1.6342
 IR Inten    --    137.2554               108.0009               104.0792

                     37                     38                     39
                      A                      A                      A
 Frequencies --   1325.9145              1341.4947              1360.5100
 Red. masses --      1.4945                 1.2514                 1.3151
 Frc consts  --      1.5480                 1.3268                 1.4342
 IR Inten    --     82.8807                24.3427                13.3369

                     40                     41                     42
                      A                      A                      A
 Frequencies --   1398.0069              1403.9554              1424.3981
 Red. masses --      1.3327                 1.3909                 1.2177
 Frc consts  --      1.5346                 1.6153                 1.4556
 IR Inten    --      8.4854                 1.1398                 0.9985

                     43                     44                     45
                      A                      A                      A
 Frequencies --   1443.1266              1447.6894              1455.2440
 Red. masses --      1.2750                 1.3965                 1.2924
 Frc consts  --      1.5645                 1.7245                 1.6125
 IR Inten    --     12.4509                 9.8660                15.5365

                     46                     47                     48
                      A                      A                      A
 Frequencies --   1514.7323              1524.4891              1525.7514
 Red. masses --      1.0803                 1.0588                 1.0984
 Frc consts  --      1.4604                 1.4498                 1.5066
 IR Inten    --      1.9435                 0.8426                 4.8534

                     49                     50                     51
                      A                      A                      A
 Frequencies --   1535.5280              1541.4403              1739.6676
 Red. masses --      1.0623                 1.0718                 6.7701
 Frc consts  --      1.4758                 1.5004                12.0720
 IR Inten    --      8.6655                 3.1558                21.1362

                     52                     53                     54
                      A                      A                      A
 Frequencies --   1807.0644              1835.0681              3007.6413
 Red. masses --      8.8348                 8.6444                 1.0889
 Frc consts  --     16.9979                17.1509                 5.8037
 IR Inten    --    423.4299               131.1734                60.7656

                     55                     56                     57
                      A                      A                      A
 Frequencies --   3036.4664              3040.8817              3041.6314
 Red. masses --      1.0676                 1.0536                 1.0615
 Frc consts  --      5.7995                 5.7402                 5.7860
 IR Inten    --     14.7046                 8.9770                17.7639

                     58                     59                     60
                      A                      A                      A
 Frequencies --   3046.5219              3070.6814              3089.6148
 Red. masses --      1.0530                 1.0993                 1.0910
 Frc consts  --      5.7581                 6.1072                 6.1358
 IR Inten    --     54.6720                27.5860                22.1531

                     61                     62                     63
                      A                      A                      A
 Frequencies --   3102.4383              3107.6317              3113.7673
 Red. masses --      1.0942                 1.1020                 1.1013
 Frc consts  --      6.2050                 6.2703                 6.2911
 IR Inten    --     23.1422                63.4874                41.8605

                     64                     65                     66
                      A                      A                      A
 Frequencies --   3122.6728              3170.8917              3195.9693
 Red. masses --      1.0957                 1.0842                 1.0963
 Frc consts  --      6.2949                 6.4229                 6.5975
 IR Inten    --     14.5045                 3.1954                24.2814

 - Thermochemistry -
 -------------------
 Temperature   298.150 Kelvin.  Pressure   1.00000 Atm.
 Atom     1 has atomic number  6 and mass  12.00000

 Molecular mass:   155.09463 amu.
 Principal axes and moments of inertia in atomic units:
                           1         2         3
     Eigenvalues --   726.466843599.859983942.93173
           X            0.99998   0.00391  -0.00484
           Y           -0.00372   0.99927   0.03794
           Z            0.00499  -0.03792   0.99927
 This molecule is an asymmetric top.
 Rotational symmetry number  1.
 Warning -- assumption of classical behavior for rotation
           may cause significant error
 Rotational temperatures (Kelvin)      0.11923     0.02406     0.02197
 Rotational constants (GHZ):           2.48427     0.50134     0.45772
 Zero-point vibrational energy     536404.4 (Joules/Mol)
                                  128.20374 (Kcal/Mol)
 Warning -- explicit consideration of  16 degrees of freedom as
           vibrations may cause significant error
 Vibrational temperatures:     39.77    58.67    92.06   164.66   190.57
          (Kelvin)            238.63   291.40   318.21   364.22   396.75
                              415.20   480.85   514.25   639.98   754.99
                              789.71   915.40  1071.76  1097.35  1136.15
                             1194.20  1221.07  1289.50  1378.29  1398.99
                             1425.18  1478.94  1488.38  1499.86  1569.62
                             1637.08  1640.53  1746.01  1788.81  1823.92
                             1848.67  1907.70  1930.11  1957.47  2011.42
                             2019.98  2049.39  2076.34  2082.90  2093.77
                             2179.36  2193.40  2195.22  2209.28  2217.79
                             2502.99  2599.96  2640.25  4327.32  4368.80
                             4375.15  4376.23  4383.27  4418.03  4445.27
                             4463.72  4471.19  4480.02  4492.83  4562.21
                             4598.29

 Zero-point correction=                           0.204306 (Hartree/Particle)
 Thermal correction to Energy=                    0.216565
 Thermal correction to Enthalpy=                  0.217509
 Thermal correction to Gibbs Free Energy=         0.164439
 Sum of electronic and zero-point Energies=           -517.700648
 Sum of electronic and thermal Energies=              -517.688389
 Sum of electronic and thermal Enthalpies=            -517.687445
 Sum of electronic and thermal Free Energies=         -517.740515

                     E (Thermal)             CV                S
                      KCal/Mol        Cal/Mol-Kelvin    Cal/Mol-Kelvin
 Total                  135.896             43.204            111.696
 Electronic               0.000              0.000              0.000
 Translational            0.889              2.981             41.026
 Rotational               0.889              2.981             30.712
 Vibrational            134.119             37.242             39.958
 Vibration     1          0.593              1.984              5.992
 Vibration     2          0.594              1.981              5.221
 Vibration     3          0.597              1.971              4.330
 Vibration     4          0.607              1.937              3.192
 Vibration     5          0.613              1.921              2.910
 Vibration     6          0.624              1.884              2.482
 Vibration     7          0.639              1.836              2.110
 Vibration     8          0.648              1.809              1.950
 Vibration     9          0.664              1.757              1.709
 Vibration    10          0.677              1.718              1.560
 Vibration    11          0.685              1.695              1.482
 Vibration    12          0.716              1.607              1.240
 Vibration    13          0.733              1.560              1.133
 Vibration    14          0.804              1.372              0.812
 Vibration    15          0.880              1.195              0.599
 Vibration    16          0.904              1.142              0.547

 Optimization completed.
    -- Stationary point found.
 Normal termination of Gaussian 16 at Tue Dec  8 21:30:21 2020.

 ----------------------------------------------------------------------
 # B3LYP/6-311++G(d,p) empiricaldispersion=gd3bj scf=xqc pop=npa geom=c
 heck
 ----------------------------------------------------------------------

 ---------------------------------------
 CID_142100715_JID_1866_Energie_neutraal
 ---------------------------------------
 Structure from the checkpoint file:  "JID_1866.chk"
 Charge =  0 Multiplicity = 1

 SCF Done:  E(RB3LYP) =  -518.058253158     A.U. after   14 cycles
 Normal termination of Gaussian 16 at Tue Dec  8 21:34:16 2020.

 ----------------------------------------------------------------------
 # B3LYP/6-311++G(d,p) empiricaldispersion=gd3bj scf=xqc pop=npa geom=c
 heck
 ----------------------------------------------------------------------

 -------------------------------------
 CID_142100715_JID_1866_Energie_kation
 -------------------------------------
 Structure from the checkpoint file:  "JID_1866.chk"
 Charge =  1 Multiplicity = 2

 SCF Done:  E(UB3LYP) =  -517.712771687     A.U. after   24 cycles
 Normal termination of Gaussian 16 at Tue Dec  8 21:42:36 2020.
 Gaussian 16:  ES64L-G16RevA.03 25-Dec-2016

 ----------------------------------------------------------------------
 # B3LYP/6-311++G(d,p) empiricaldispersion=gd3bj scf=xqc pop=npa geom=c
 heck
 ----------------------------------------------------------------------

 ------------------------------------
 CID_142100715_JID_1866_Energie_anion
 ------------------------------------
 Structure from the checkpoint file:  "JID_1866.chk"
 Charge = -1 Multiplicity = 2

                         Standard orientation:
 ---------------------------------------------------------------------
 Center     Atomic      Atomic             Coordinates (Angstroms)
 Number     Number       Type             X           Y           Z
 ---------------------------------------------------------------------
      1          6           0       -4.087239   -0.715437    0.199675
      2          6           0       -3.228991    0.437039   -0.330956
      3          6           0       -2.017659    0.779630    0.548056
      4          6           0       -1.023078   -0.380611    0.773986
      5          6           0       -0.472231   -0.944012   -0.500818
      6          6           0        0.779511   -0.853662   -0.950639
      7          7           0        1.831586   -0.162658   -0.260129
      8          6           0        2.952773   -0.887249    0.159335
      9          8           0        3.926641   -0.413091    0.701231
     10          6           0        1.812281    1.230665   -0.089198
     11          8           0        0.906569    1.949402   -0.446277
     12          1           0       -3.538578   -1.664677    0.209142
     13          1           0       -4.980132   -0.861031   -0.418157
     14          1           0       -4.419773   -0.518050    1.226353
     15          1           0       -2.892255    0.206930   -1.350559
     16          1           0       -3.850628    1.337078   -0.419380
     17          1           0       -1.467588    1.613333    0.102183
     18          1           0       -2.371481    1.113551    1.532951
     19          1           0       -0.207326   -0.030425    1.413879
     20          1           0       -1.526489   -1.191252    1.318148
     21          1           0       -1.170647   -1.478141   -1.142507
     22          1           0        1.078394   -1.297650   -1.896308
     23          1           0        2.842537   -1.964149   -0.060179
     24          1           0        2.724977    1.584433    0.409055
 ---------------------------------------------------------------------

 SCF Done:  E(UB3LYP) =  -518.054364348     A.U. after   33 cycles
 SCF Done:  E(UB3LYP) =  -518.054364348     a.u. after    1 cycles

 The electronic state is 2-A.
 Alpha  occ. eigenvalues --  -18.96963 -18.96451 -14.23622 -10.13336 -10.12626
 Alpha  occ. eigenvalues --  -10.09508 -10.07029 -10.06390 -10.05969 -10.05478
 Alpha  occ. eigenvalues --  -10.05435  -0.92800  -0.90832  -0.81663  -0.70480
 Alpha  occ. eigenvalues --   -0.66260  -0.60893  -0.55332  -0.53823  -0.49682
 Alpha  occ. eigenvalues --   -0.45892  -0.41000  -0.38937  -0.38009  -0.35911
 Alpha  occ. eigenvalues --   -0.35219  -0.33391  -0.31220  -0.30221  -0.29624
 Alpha  occ. eigenvalues --   -0.29266  -0.28741  -0.26789  -0.25698  -0.25434
 Alpha  occ. eigenvalues --   -0.22728  -0.21941  -0.21733  -0.17574  -0.16161
 Alpha  occ. eigenvalues --   -0.13802  -0.12330   0.04897
 Alpha virt. eigenvalues --    0.06296   0.08019   0.08711   0.09028   0.10118
 Alpha virt. eigenvalues --    0.10610   0.10913   0.11447   0.12339   0.12554
 Alpha virt. eigenvalues --    0.13093   0.13980   0.14403   0.15268   0.15958

  Beta  occ. eigenvalues --  -18.96689 -18.96135 -14.23746 -10.13111 -10.12251
  Beta  occ. eigenvalues --  -10.09473 -10.07029 -10.06385 -10.05956 -10.05475
  Beta  occ. eigenvalues --  -10.05397  -0.92328  -0.90255  -0.81557  -0.70454
  Beta  occ. eigenvalues --   -0.66207  -0.60827  -0.55089  -0.53314  -0.49481
  Beta  occ. eigenvalues --   -0.45811  -0.40826  -0.38737  -0.37700  -0.35782
  Beta  occ. eigenvalues --   -0.35160  -0.33279  -0.30948  -0.29858  -0.29082
  Beta  occ. eigenvalues --   -0.28951  -0.28443  -0.26669  -0.25612  -0.23715
  Beta  occ. eigenvalues --   -0.22687  -0.21899  -0.21701  -0.17216  -0.15894
  Beta  occ. eigenvalues --   -0.13362  -0.12095
  Beta virt. eigenvalues --    0.07105   0.08382   0.09044   0.09270   0.10321
  Beta virt. eigenvalues --    0.10335   0.10970   0.11037   0.11641   0.12580
  Beta virt. eigenvalues --    0.12600   0.13294   0.14002   0.14672   0.15364

 Mulliken charges and spin densities:
               1          2
     1  C    1.049757  -1.669586
     2  C   -0.812689   0.631038
     3  C    0.011430  -0.424695
     4  C   -0.029958  -0.068663
     5  C   -0.114959   0.422614
     6  C   -0.116712  -0.705064
     7  N    0.118940  -0.041895
     8  C    0.074462   0.232571
     9  O   -0.429303   0.110915
    10  C   -0.027438   0.180895
    11  O   -0.368645   0.078991
    12  H   -0.296948   0.436362
    13  H   -0.472857   0.610066
    14  H   -0.175436   0.309742
    15  H    0.096723   0.052763
    16  H   -0.132212   0.268838
    17  H    0.222319  -0.022094
    18  H    0.019068   0.103378
    19  H    0.121616   0.073814
    20  H    0.170100  -0.025915
    21  H   -0.094407   0.263596
    22  H    0.030254   0.149315
    23  H    0.021766   0.037683
    24  H    0.135129  -0.004669
 Sum of Mulliken charges =  -1.00000   1.00000

 Dipole moment (field-independent basis, Debye):
    X=              0.4696    Y=             -0.0576    Z=              0.3102  Tot=              0.5658
 Quadrupole moment (field-independent basis, Debye-Ang):
   XX=           -151.8298   YY=            -91.6878   ZZ=            -84.6222
   XY=             -4.9752   XZ=             -5.4624   YZ=              0.4398

 Summary of Natural Population Analysis:

                                       Natural Population
                Natural  -----------------------------------------------
    Atom  No    Charge         Core      Valence    Rydberg      Total
 -----------------------------------------------------------------------
      C    1   -0.28818      0.99967     2.28318    0.00533     3.28818
      C    2   -0.19318      0.99964     2.18478    0.00876     3.19318
      C    3   -0.18951      0.99962     2.18081    0.00908     3.18951
      C    4   -0.21175      0.99961     2.20311    0.00903     3.21175
      C    5   -0.08285      0.99953     2.07381    0.00951     3.08285
      C    6    0.00168      0.99948     1.98469    0.01416     2.99832
      N    7   -0.29957      0.99965     2.78982    0.01009     3.79957
      C    8    0.33298      0.99974     1.64512    0.02216     2.66702
      O    9   -0.28026      0.99988     3.27416    0.00622     4.28026
      C   10    0.30480      0.99973     1.67319    0.02228     2.69520
      O   11   -0.28022      0.99988     3.27441    0.00593     4.28022
      H   12    0.09520      0.00000     0.40361    0.00119     0.40480
      H   13    0.09957      0.00000     0.39896    0.00147     0.40043
      H   14    0.09449      0.00000     0.40431    0.00120     0.40551
      H   15    0.09457      0.00000     0.40426    0.00117     0.40543
      H   16    0.09454      0.00000     0.40451    0.00095     0.40546
      H   17    0.11408      0.00000     0.38453    0.00139     0.38592
      H   18    0.09025      0.00000     0.40887    0.00089     0.40975
      H   19    0.10620      0.00000     0.39265    0.00115     0.39380
      H   20    0.09935      0.00000     0.39954    0.00112     0.40065
      H   21    0.09668      0.00000     0.40217    0.00115     0.40332
      H   22    0.09359      0.00000     0.40516    0.00125     0.40641
      H   23    0.04208      0.00000     0.45606    0.00186     0.45792
      H   24    0.06550      0.00000     0.43263    0.00187     0.43450
 =======================================================================
   * Total *    0.00000     10.99643    30.86434    0.13923    42.00000

 Normal termination of Gaussian 16 at Tue Dec  8 21:51:58 2020.
