 Gaussian 16, Revision A.03,

 -----------------------------------------------------------
 # opt freq B3LYP/6-31G(d) empiricaldispersion=gd3bj scf=xqc
 -----------------------------------------------------------

 --------------------------------
 CID_115985319_JID_10288_neutraal
 --------------------------------
 Symbolic Z-matrix:
 Charge =  0 Multiplicity = 1

 SCF Done:  E(RB3LYP) =  -1596.90520037     A.U. after   15 cycles
 SCF Done:  E(RB3LYP) =  -1596.91823091     A.U. after   13 cycles
 SCF Done:  E(RB3LYP) =  -1596.91686810     A.U. after   13 cycles
 SCF Done:  E(RB3LYP) =  -1596.92013330     A.U. after   12 cycles
 SCF Done:  E(RB3LYP) =  -1596.92085889     A.U. after   13 cycles
 SCF Done:  E(RB3LYP) =  -1596.92051849     A.U. after   13 cycles
 SCF Done:  E(RB3LYP) =  -1596.92105229     A.U. after   12 cycles
 SCF Done:  E(RB3LYP) =  -1596.92128708     A.U. after   11 cycles
 SCF Done:  E(RB3LYP) =  -1596.92136622     A.U. after   11 cycles
 SCF Done:  E(RB3LYP) =  -1596.92141167     A.U. after   11 cycles
 SCF Done:  E(RB3LYP) =  -1596.92153498     A.U. after   10 cycles
 SCF Done:  E(RB3LYP) =  -1596.92153505     A.U. after    8 cycles
 SCF Done:  E(RB3LYP) =  -1596.92153516     A.U. after    8 cycles
 SCF Done:  E(RB3LYP) =  -1596.92153518     A.U. after    7 cycles
 SCF Done:  E(RB3LYP) =  -1596.92153519     A.U. after    7 cycles
 Optimization completed on the basis of negligible forces.
    -- Stationary point found.
 Normal termination of Gaussian 16 at Sun Dec 13 17:11:26 2020.

 --------------------------------------------------------------------
 #N Geom=AllCheck Guess=TCheck SCRF=Check GenChk RB3LYP/6-31G(d) Freq
 --------------------------------------------------------------------

 Structure from the checkpoint file:  "JID_10288.chk"
 --------------------------------
 CID_115985319_JID_10288_neutraal
 --------------------------------
 Charge =  0 Multiplicity = 1

 SCF Done:  E(RB3LYP) =  -1596.92153519     A.U. after    1 cycles

  Exact polarizability: 280.908  41.440 184.148  14.129 -28.484 153.141
 Approx polarizability: 402.010  80.750 301.799  29.830 -66.583 273.112

                      1                      2                      3
                      A                      A                      A
 Frequencies --      3.7367                 9.9050                29.1155
 Red. masses --      3.9608                 6.9059                 6.9439
 Frc consts  --      0.0000                 0.0004                 0.0035
 IR Inten    --      0.5437                 0.4983                 0.0780

                      4                      5                      6
                      A                      A                      A
 Frequencies --     58.6862                75.9778                78.0479
 Red. masses --      5.2735                 6.0872                 4.6620
 Frc consts  --      0.0107                 0.0207                 0.0167
 IR Inten    --      0.5311                 1.1560                 1.5544

                      7                      8                      9
                      A                      A                      A
 Frequencies --     99.0111               117.7691               135.4283
 Red. masses --      4.5428                 3.6298                 4.3918
 Frc consts  --      0.0262                 0.0297                 0.0475
 IR Inten    --      2.7008                 0.3167                 0.6220

                     10                     11                     12
                      A                      A                      A
 Frequencies --    180.7550               192.8981               195.5680
 Red. masses --      4.8365                 5.3835                 3.6777
 Frc consts  --      0.0931                 0.1180                 0.0829
 IR Inten    --      0.9658                 2.1463                 4.2986

                     13                     14                     15
                      A                      A                      A
 Frequencies --    205.4431               235.6710               242.7428
 Red. masses --      1.0551                 2.6585                 4.0716
 Frc consts  --      0.0262                 0.0870                 0.1414
 IR Inten    --      0.5532                 0.5530                 3.4647

                     16                     17                     18
                      A                      A                      A
 Frequencies --    251.0212               288.6163               299.7806
 Red. masses --      1.4939                 1.0501                 2.6562
 Frc consts  --      0.0555                 0.0515                 0.1406
 IR Inten    --      1.9087                20.9354                 2.0945

                     19                     20                     21
                      A                      A                      A
 Frequencies --    325.8644               333.3367               350.6453
 Red. masses --      3.7672                 3.2254                 4.9218
 Frc consts  --      0.2357                 0.2112                 0.3565
 IR Inten    --      2.4102                 0.8013                 7.1846

                     22                     23                     24
                      A                      A                      A
 Frequencies --    395.1142               406.0050               418.8878
 Red. masses --      5.9184                 2.5031                 4.8243
 Frc consts  --      0.5444                 0.2431                 0.4987
 IR Inten    --      3.1403                10.1198                 6.7088

                     25                     26                     27
                      A                      A                      A
 Frequencies --    434.4311               442.1941               489.7050
 Red. masses --      3.0568                 3.6879                 3.8909
 Frc consts  --      0.3399                 0.4249                 0.5498
 IR Inten    --      8.6112                 4.3375                17.7347

                     28                     29                     30
                      A                      A                      A
 Frequencies --    509.8014               513.8632               542.5518
 Red. masses --      2.7348                 2.6510                 5.8915
 Frc consts  --      0.4188                 0.4124                 1.0218
 IR Inten    --      3.1332                38.2866                15.3920

                     31                     32                     33
                      A                      A                      A
 Frequencies --    573.7221               593.3676               607.3860
 Red. masses --      2.5140                 3.0177                 1.5703
 Frc consts  --      0.4875                 0.6260                 0.3413
 IR Inten    --    174.5012               129.8754                52.2570

                     34                     35                     36
                      A                      A                      A
 Frequencies --    626.1012               647.4405               657.5067
 Red. masses --      2.4613                 4.2030                 4.3699
 Frc consts  --      0.5685                 1.0380                 1.1131
 IR Inten    --    156.0066                24.3026                 4.6541

                     37                     38                     39
                      A                      A                      A
 Frequencies --    711.4524               723.8422               725.7698
 Red. masses --      6.4243                 5.9790                 4.6066
 Frc consts  --      1.9159                 1.8457                 1.4297
 IR Inten    --     17.1829                 2.3071                19.0285

                     40                     41                     42
                      A                      A                      A
 Frequencies --    726.8604               780.5774               799.5495
 Red. masses --      4.4339                 3.1828                 4.4158
 Frc consts  --      1.3802                 1.1426                 1.6632
 IR Inten    --     13.2066                 8.8569                 6.1486

                     43                     44                     45
                      A                      A                      A
 Frequencies --    821.4305               836.6894               859.8153
 Red. masses --      1.4074                 1.6133                 5.0120
 Frc consts  --      0.5595                 0.6654                 2.1831
 IR Inten    --     17.1716                38.6739                25.0672

                     46                     47                     48
                      A                      A                      A
 Frequencies --    890.8496               899.8839               941.9069
 Red. masses --      3.3923                 2.5695                 1.2897
 Frc consts  --      1.5862                 1.2259                 0.6742
 IR Inten    --     10.1388                 6.9159                 1.0522

                     49                     50                     51
                      A                      A                      A
 Frequencies --    949.3686               968.4864               994.3775
 Red. masses --      4.1473                 2.3940                 1.2341
 Frc consts  --      2.2024                 1.3230                 0.7190
 IR Inten    --      8.5879                 7.4492                 4.9177

                     52                     53                     54
                      A                      A                      A
 Frequencies --   1000.7549              1015.9061              1055.8222
 Red. masses --      1.5071                 1.9480                 1.7912
 Frc consts  --      0.8893                 1.1845                 1.1765
 IR Inten    --      6.3561                 1.7305                23.4653

                     55                     56                     57
                      A                      A                      A
 Frequencies --   1070.8845              1095.3606              1117.1247
 Red. masses --      2.8312                 2.3958                 1.4364
 Frc consts  --      1.9129                 1.6936                 1.0562
 IR Inten    --     12.7838                36.9040                 0.6800

                     58                     59                     60
                      A                      A                      A
 Frequencies --   1142.3716              1165.5357              1169.4831
 Red. masses --      2.6901                 1.4043                 1.2303
 Frc consts  --      2.0684                 1.1240                 0.9914
 IR Inten    --     57.1786                11.7848                 4.9659

                     61                     62                     63
                      A                      A                      A
 Frequencies --   1181.6086              1203.8657              1271.8876
 Red. masses --      2.1024                 1.4185                 1.8000
 Frc consts  --      1.7295                 1.2113                 1.7156
 IR Inten    --     74.7118                82.2890                 8.0848

                     64                     65                     66
                      A                      A                      A
 Frequencies --   1277.4887              1290.7923              1307.2266
 Red. masses --      2.2416                 1.4360                 1.9007
 Frc consts  --      2.1554                 1.4096                 1.9137
 IR Inten    --    307.2263               133.1312                22.7792

                     67                     68                     69
                      A                      A                      A
 Frequencies --   1325.9483              1333.1378              1350.4398
 Red. masses --      4.7154                 1.9567                 1.2338
 Frc consts  --      4.8846                 2.0489                 1.3257
 IR Inten    --     12.1875                28.0762                30.7163

                     70                     71                     72
                      A                      A                      A
 Frequencies --   1365.3469              1377.2373              1383.3753
 Red. masses --      1.3641                 6.1000                 1.1687
 Frc consts  --      1.4982                 6.8170                 1.3178
 IR Inten    --     18.7860                 2.9617                18.4521

                     73                     74                     75
                      A                      A                      A
 Frequencies --   1413.1348              1434.3515              1483.4916
 Red. masses --      1.3951                 1.4066                 1.1394
 Frc consts  --      1.6415                 1.7050                 1.4773
 IR Inten    --     79.9271                30.8167                 1.2899

                     76                     77                     78
                      A                      A                      A
 Frequencies --   1487.8655              1490.6429              1495.0761
 Red. masses --      2.7622                 1.1081                 1.0632
 Frc consts  --      3.6027                 1.4507                 1.4002
 IR Inten    --      6.2889                 0.6565                 9.0882

                     79                     80                     81
                      A                      A                      A
 Frequencies --   1503.6280              1514.1936              1520.3251
 Red. masses --      1.8978                 1.0548                 2.0953
 Frc consts  --      2.5280                 1.4248                 2.8534
 IR Inten    --    155.9260                14.4120                74.9869

                     82                     83                     84
                      A                      A                      A
 Frequencies --   1522.4178              1527.1434              1532.0533
 Red. masses --      1.3521                 1.0910                 1.0719
 Frc consts  --      1.8463                 1.4991                 1.4824
 IR Inten    --     77.0562                 2.6852                 7.8859

                     85                     86                     87
                      A                      A                      A
 Frequencies --   1542.1091              1610.5693              1632.0392
 Red. masses --      1.0570                 7.4407                 6.9959
 Frc consts  --      1.4811                11.3716                10.9789
 IR Inten    --     13.1553                99.4557                33.0245

                     88                     89                     90
                      A                      A                      A
 Frequencies --   1672.4081              1696.1014              1788.3642
 Red. masses --      4.4046                 1.2608                 8.1397
 Frc consts  --      7.2583                 2.1369                15.3382
 IR Inten    --    157.7702               165.7372               430.8819

                     91                     92                     93
                      A                      A                      A
 Frequencies --   2916.0522              3010.1336              3060.8346
 Red. masses --      1.0734                 1.0475                 1.0323
 Frc consts  --      5.3778                 5.5920                 5.6979
 IR Inten    --     62.8667                54.1941                21.4070

                     94                     95                     96
                      A                      A                      A
 Frequencies --   3085.1160              3087.4347              3092.8375
 Red. masses --      1.0647                 1.0872                 1.0743
 Frc consts  --      5.9704                 6.1058                 6.0544
 IR Inten    --     16.3753                28.5109                14.5549

                     97                     98                     99
                      A                      A                      A
 Frequencies --   3095.8040              3128.3527              3142.0408
 Red. masses --      1.0827                 1.1033                 1.1032
 Frc consts  --      6.1139                 6.3618                 6.4167
 IR Inten    --     23.3777                28.6982                19.0533

                    100                    101                    102
                      A                      A                      A
 Frequencies --   3146.8186              3173.4211              3188.1244
 Red. masses --      1.0987                 1.1059                 1.0887
 Frc consts  --      6.4101                 6.5617                 6.5197
 IR Inten    --      5.2386                 3.2829                15.8248

                    103                    104                    105
                      A                      A                      A
 Frequencies --   3194.7228              3196.5761              3217.6466
 Red. masses --      1.0950                 1.0909                 1.0936
 Frc consts  --      6.5845                 6.5675                 6.6709
 IR Inten    --      2.1824                12.5145                 6.5208

                    106                    107                    108
                      A                      A                      A
 Frequencies --   3556.5089              3571.1002              3655.7590
 Red. masses --      1.0478                 1.0760                 1.0985
 Frc consts  --      7.8090                 8.0846                 8.6498
 IR Inten    --     26.4801                38.7020                10.4038

 - Thermochemistry -
 -------------------
 Temperature   298.150 Kelvin.  Pressure   1.00000 Atm.
 Atom     1 has atomic number  6 and mass  12.00000

 Molecular mass:   310.09220 amu.
 Principal axes and moments of inertia in atomic units:
                           1         2         3
     Eigenvalues --  4179.527579576.53955**********
           X            1.00000   0.00211  -0.00058
           Y           -0.00212   0.99975  -0.02221
           Z            0.00053   0.02221   0.99975
 This molecule is an asymmetric top.
 Rotational symmetry number  1.
 Warning -- assumption of classical behavior for rotation
           may cause significant error
 Rotational temperatures (Kelvin)      0.02072     0.00904     0.00717
 Rotational constants (GHZ):           0.43181     0.18845     0.14931
 Zero-point vibrational energy     807992.2 (Joules/Mol)
                                  193.11478 (Kcal/Mol)
 Warning -- explicit consideration of  33 degrees of freedom as
           vibrations may cause significant error
 Vibrational temperatures:      5.38    14.25    41.89    84.44   109.32
          (Kelvin)            112.29   142.45   169.44   194.85   260.07
                              277.54   281.38   295.59   339.08   349.25
                              361.16   415.25   431.32   468.85   479.60
                              504.50   568.48   584.15   602.69   625.05
                              636.22   704.58   733.49   739.33   780.61
                              825.46   853.72   873.89   900.82   931.52
                              946.01  1023.62  1041.45  1044.22  1045.79
                             1123.08  1150.37  1181.86  1203.81  1237.08
                             1281.73  1294.73  1355.19  1365.93  1393.44
                             1430.69  1439.86  1461.66  1519.09  1540.76
                             1575.98  1607.29  1643.62  1676.95  1682.63
                             1700.07  1732.09  1829.96  1838.02  1857.16
                             1880.81  1907.74  1918.09  1942.98  1964.43
                             1981.54  1990.37  2033.19  2063.71  2134.41
                             2140.71  2144.70  2151.08  2163.39  2178.59
                             2187.41  2190.42  2197.22  2204.28  2218.75
                             2317.25  2348.14  2406.22  2440.31  2573.06
                             4195.55  4330.91  4403.86  4438.79  4442.13
                             4449.90  4454.17  4501.00  4520.70  4527.57
                             4565.85  4587.00  4596.49  4599.16  4629.48
                             5117.02  5138.02  5259.82

 Zero-point correction=                           0.307748 (Hartree/Particle)
 Thermal correction to Energy=                    0.328291
 Thermal correction to Enthalpy=                  0.329235
 Thermal correction to Gibbs Free Energy=         0.254368
 Sum of electronic and zero-point Energies=          -1596.613787
 Sum of electronic and thermal Energies=             -1596.593244
 Sum of electronic and thermal Enthalpies=           -1596.592300
 Sum of electronic and thermal Free Energies=        -1596.667168

                     E (Thermal)             CV                S
                      KCal/Mol        Cal/Mol-Kelvin    Cal/Mol-Kelvin
 Total                  206.006             77.031            157.572
 Electronic               0.000              0.000              0.000
 Translational            0.889              2.981             43.091
 Rotational               0.889              2.981             34.536
 Vibrational            204.228             71.069             79.945
 Vibration     1          0.593              1.987              9.967
 Vibration     2          0.593              1.987              8.030
 Vibration     3          0.593              1.984              5.889
 Vibration     4          0.596              1.974              4.501
 Vibration     5          0.599              1.965              3.992
 Vibration     6          0.599              1.964              3.939
 Vibration     7          0.604              1.950              3.474
 Vibration     8          0.608              1.935              3.137
 Vibration     9          0.613              1.918              2.867
 Vibration    10          0.630              1.866              2.321
 Vibration    11          0.635              1.850              2.200
 Vibration    12          0.636              1.846              2.174
 Vibration    13          0.640              1.832              2.084
 Vibration    14          0.655              1.786              1.835
 Vibration    15          0.659              1.775              1.783
 Vibration    16          0.663              1.761              1.723
 Vibration    17          0.685              1.695              1.482
 Vibration    18          0.692              1.674              1.418
 Vibration    19          0.710              1.624              1.281
 Vibration    20          0.715              1.609              1.244
 Vibration    21          0.728              1.574              1.163
 Vibration    22          0.762              1.481              0.981
 Vibration    23          0.771              1.457              0.941
 Vibration    24          0.782              1.429              0.896
 Vibration    25          0.795              1.395              0.844
 Vibration    26          0.802              1.378              0.820
 Vibration    27          0.846              1.273              0.684
 Vibration    28          0.865              1.228              0.634
 Vibration    29          0.869              1.219              0.624
 Vibration    30          0.898              1.156              0.560
 Vibration    31          0.930              1.088              0.497
 Vibration    32          0.951              1.046              0.461
 Vibration    33          0.966              1.016              0.437

 Optimization completed on the basis of negligible forces.
    -- Stationary point found.
 Normal termination of Gaussian 16 at Sun Dec 13 17:31:47 2020.

 ----------------------------------------------------------------------
 # B3LYP/6-311++G(d,p) empiricaldispersion=gd3bj scf=xqc pop=npa geom=c
 heck
 ----------------------------------------------------------------------

 ----------------------------------------
 CID_115985319_JID_10288_Energie_neutraal
 ----------------------------------------
 Structure from the checkpoint file:  "JID_10288.chk"
 Charge =  0 Multiplicity = 1

 SCF Done:  E(RB3LYP) =  -1597.20073016     A.U. after   16 cycles
 Normal termination of Gaussian 16 at Sun Dec 13 17:41:59 2020.

 ----------------------------------------------------------------------
 # B3LYP/6-311++G(d,p) empiricaldispersion=gd3bj scf=xqc pop=npa geom=c
 heck
 ----------------------------------------------------------------------

 --------------------------------------
 CID_115985319_JID_10288_Energie_kation
 --------------------------------------
 Structure from the checkpoint file:  "JID_10288.chk"
 Charge =  1 Multiplicity = 2

 SCF Done:  E(UB3LYP) =  -1596.93639974     A.U. after   28 cycles
 Normal termination of Gaussian 16 at Sun Dec 13 18:07:00 2020.
 Gaussian 16:  ES64L-G16RevA.03 25-Dec-2016

 ----------------------------------------------------------------------
 # B3LYP/6-311++G(d,p) empiricaldispersion=gd3bj scf=xqc pop=npa geom=c
 heck
 ----------------------------------------------------------------------

 -------------------------------------
 CID_115985319_JID_10288_Energie_anion
 -------------------------------------
 Structure from the checkpoint file:  "JID_10288.chk"
 Charge = -1 Multiplicity = 2

                         Standard orientation:
 ---------------------------------------------------------------------
 Center     Atomic      Atomic             Coordinates (Angstroms)
 Number     Number       Type             X           Y           Z
 ---------------------------------------------------------------------
      1          6           0       -4.673458   -0.008303    0.031095
      2          7           0       -3.269360    0.377697   -0.082311
      3          6           0       -2.635067    0.501205    1.229761
      4          6           0       -1.314588    1.273374    1.236920
      5         16           0       -1.435524    3.048023    0.798859
      6          6           0       -1.484618    2.953974   -1.024996
      7          6           0       -2.514876   -0.414191   -1.053761
      8          6           0       -2.324298   -1.866858   -0.611170
      9          8           0       -3.250995   -2.656889   -0.530798
     10          7           0       -1.064966   -2.286593   -0.161671
     11          6           0        0.166070   -1.656351   -0.209083
     12          7           0        0.521646   -0.734754   -1.041282
     13          6           0        1.801019   -0.273120   -0.760936
     14          6           0        2.457763   -0.907031    0.320086
     15         16           0        1.378374   -2.100154    1.031883
     16          6           0        3.754609   -0.576679    0.696846
     17          6           0        4.420423    0.434078   -0.012953
     18          6           0        3.766586    1.077852   -1.087561
     19          6           0        2.477254    0.731384   -1.461430
     20          7           0        5.695580    0.846267    0.375733
     21          1           0       -5.204762    0.765909    0.594782
     22          1           0       -4.828583   -0.979544    0.526035
     23          1           0       -5.112055   -0.070293   -0.969555
     24          1           0       -3.342352    1.031932    1.874549
     25          1           0       -2.461389   -0.487796    1.700838
     26          1           0       -0.916159    1.256296    2.256768
     27          1           0       -0.559098    0.810853    0.598043
     28          1           0       -0.609947    2.416681   -1.405301
     29          1           0       -2.401424    2.464955   -1.356500
     30          1           0       -1.455738    3.981885   -1.396472
     31          1           0       -3.087901   -0.443622   -1.985376
     32          1           0       -1.559032    0.060778   -1.260013
     33          1           0       -1.097069   -3.214646    0.247081
     34          1           0        4.242818   -1.071906    1.530912
     35          1           0        4.289755    1.864307   -1.624826
     36          1           0        1.985077    1.225234   -2.292958
     37          1           0        6.237244    0.154677    0.878476
     38          1           0        6.241764    1.289193   -0.352164
 ---------------------------------------------------------------------

 SCF Done:  E(UB3LYP) =  -1597.20467193     A.U. after   33 cycles
 SCF Done:  E(UB3LYP) =  -1597.20467193     a.u. after    1 cycles

 The electronic state is 2-A.
 Alpha  occ. eigenvalues --  -88.76086 -88.73939 -18.97552 -14.24600 -14.21233
 Alpha  occ. eigenvalues --  -14.21164 -14.18464 -10.15008 -10.13952 -10.10247
 Alpha  occ. eigenvalues --  -10.10121 -10.09760 -10.09643 -10.09278 -10.09065
 Alpha  occ. eigenvalues --  -10.09045 -10.08756 -10.06583 -10.06256 -10.06196
 Alpha  occ. eigenvalues --   -7.84729  -7.82538  -5.81033  -5.80718  -5.80250
 Alpha  occ. eigenvalues --   -5.78943  -5.78575  -5.77894  -0.93339  -0.86526
 Alpha  occ. eigenvalues --   -0.82813  -0.81577  -0.80248  -0.72363  -0.70475
 Alpha  occ. eigenvalues --   -0.68474  -0.64537  -0.63000  -0.62107  -0.61064
 Alpha  occ. eigenvalues --   -0.57408  -0.53624  -0.52063  -0.49886  -0.49203
 Alpha  occ. eigenvalues --   -0.47804  -0.44911  -0.42079  -0.39980  -0.39834
 Alpha  occ. eigenvalues --   -0.39289  -0.38466  -0.37096  -0.36155  -0.34654
 Alpha  occ. eigenvalues --   -0.33542  -0.33409  -0.33085  -0.32723  -0.32106
 Alpha  occ. eigenvalues --   -0.31536  -0.30574  -0.29943  -0.29246  -0.28725
 Alpha  occ. eigenvalues --   -0.28447  -0.27686  -0.26917  -0.26433  -0.25907
 Alpha  occ. eigenvalues --   -0.25346  -0.23061  -0.21190  -0.21040  -0.19248
 Alpha  occ. eigenvalues --   -0.17009  -0.16350  -0.15928  -0.12763  -0.12704
 Alpha  occ. eigenvalues --   -0.11367  -0.08960   0.03829
 Alpha virt. eigenvalues --    0.05668   0.07147   0.07649   0.08044   0.08483
 Alpha virt. eigenvalues --    0.08651   0.08926   0.09214   0.10170   0.10630
 Alpha virt. eigenvalues --    0.11046   0.11402   0.11479   0.11734   0.12230

  Beta  occ. eigenvalues --  -88.76068 -88.73939 -18.97290 -14.24708 -14.21203
  Beta  occ. eigenvalues --  -14.21097 -14.18347 -10.14745 -10.13544 -10.10246
  Beta  occ. eigenvalues --  -10.09983 -10.09759 -10.09613 -10.09275 -10.09085
  Beta  occ. eigenvalues --  -10.09044 -10.08763 -10.06582 -10.06261 -10.06117
  Beta  occ. eigenvalues --   -7.84713  -7.82537  -5.81022  -5.80716  -5.80185
  Beta  occ. eigenvalues --   -5.78943  -5.78575  -5.77894  -0.92887  -0.86170
  Beta  occ. eigenvalues --   -0.82755  -0.81445  -0.80133  -0.72239  -0.70469
  Beta  occ. eigenvalues --   -0.68315  -0.64509  -0.62858  -0.61982  -0.60863
  Beta  occ. eigenvalues --   -0.57387  -0.53256  -0.51932  -0.49749  -0.49061
  Beta  occ. eigenvalues --   -0.47707  -0.44797  -0.41967  -0.39815  -0.39755
  Beta  occ. eigenvalues --   -0.39192  -0.38327  -0.36918  -0.36032  -0.34491
  Beta  occ. eigenvalues --   -0.33476  -0.33302  -0.33023  -0.32330  -0.32042
  Beta  occ. eigenvalues --   -0.31243  -0.30485  -0.29656  -0.29057  -0.28459
  Beta  occ. eigenvalues --   -0.28220  -0.27638  -0.26823  -0.26245  -0.25645
  Beta  occ. eigenvalues --   -0.24949  -0.22961  -0.21123  -0.20327  -0.18863
  Beta  occ. eigenvalues --   -0.16834  -0.16138  -0.15529  -0.12691  -0.12436
  Beta  occ. eigenvalues --   -0.11267  -0.08342
  Beta virt. eigenvalues --    0.06562   0.07119   0.07641   0.08255   0.08552
  Beta virt. eigenvalues --    0.08653   0.08847   0.09109   0.09282   0.10368
  Beta virt. eigenvalues --    0.10829   0.11312   0.11629   0.11737   0.11974

 Mulliken charges and spin densities:
               1          2
     1  C   -0.322433  -0.017669
     2  N    0.234076  -0.047288
     3  C   -0.567488   0.015876
     4  C    0.026653   0.003619
     5  S    0.046819  -0.006903
     6  C   -0.573311  -0.023440
     7  C   -0.391545   0.064183
     8  C   -0.169047   0.135348
     9  O   -0.344370   0.091486
    10  N   -0.155381  -0.052045
    11  C   -0.023063   0.117881
    12  N   -0.032350   0.061359
    13  C   -0.412774  -0.452381
    14  C    1.053620  -0.506194
    15  S   -0.211822   0.066047
    16  C    0.268040   0.153119
    17  C   -0.266085  -0.111793
    18  C   -0.123932   0.059326
    19  C   -0.440417   0.305077
    20  N   -0.279333  -0.045649
    21  H    0.120180   0.000041
    22  H    0.166296  -0.001299
    23  H    0.117264   0.008584
    24  H    0.117151  -0.000122
    25  H    0.141317   0.000718
    26  H    0.216848   0.011321
    27  H   -0.088401  -0.010440
    28  H    0.123832   0.001542
    29  H    0.159096   0.017215
    30  H    0.174891   0.004620
    31  H    0.128456   0.048847
    32  H    0.211588  -0.033574
    33  H    0.256434   0.057893
    34  H   -0.056497   0.211947
    35  H    0.014147   0.142325
    36  H    0.112718   0.027754
    37  H   -0.147575   0.386322
    38  H   -0.083606   0.316350
 Sum of Mulliken charges =  -1.00000   1.00000

 Dipole moment (field-independent basis, Debye):
    X=             -4.7709    Y=              1.2607    Z=              0.1117  Tot=              4.9359
 Quadrupole moment (field-independent basis, Debye-Ang):
   XX=           -226.0981   YY=           -170.8411   ZZ=           -148.3904
   XY=            -13.4175   XZ=             -5.4425   YZ=             -9.0183

 Summary of Natural Population Analysis:

                                       Natural Population
                Natural  -----------------------------------------------
    Atom  No    Charge         Core      Valence    Rydberg      Total
 -----------------------------------------------------------------------
      C    1   -0.17502      0.99965     2.16834    0.00703     3.17502
      N    2   -0.27633      0.99973     2.76408    0.01252     3.77633
      C    3   -0.08845      0.99960     2.07777    0.01108     3.08845
      C    4   -0.25892      0.99957     2.25076    0.00858     3.25892
      S    5    0.07620      4.99964     2.90476    0.01939     7.92380
      C    6   -0.35234      0.99962     2.34668    0.00604     3.35234
      C    7   -0.13827      0.99957     2.12599    0.01271     3.13827
      C    8    0.37394      0.99970     1.60515    0.02121     2.62606
      O    9   -0.29690      0.99987     3.29080    0.00623     4.29690
      N   10   -0.33760      0.99962     2.82646    0.01151     3.83760
      C   11    0.20514      0.99959     1.77545    0.01982     2.79486
      N   12   -0.25979      0.99961     2.74945    0.01072     3.75979
      C   13    0.03953      0.99942     1.94706    0.01398     2.96047
      C   14   -0.08534      0.99940     2.07539    0.01055     3.08534
      S   15    0.14730      4.99946     2.83508    0.01816     7.85270
      C   16   -0.14087      0.99946     2.13091    0.01049     3.14087
      C   17    0.10353      0.99951     1.88577    0.01120     2.89647
      C   18   -0.13797      0.99954     2.12839    0.01005     3.13797
      C   19   -0.07180      0.99953     2.06415    0.00812     3.07180
      N   20   -0.39661      0.99972     2.88662    0.01027     3.89661
      H   21    0.08735      0.00000     0.41167    0.00098     0.41265
      H   22    0.09160      0.00000     0.40684    0.00156     0.40840
      H   23    0.09334      0.00000     0.40579    0.00087     0.40666
      H   24    0.09490      0.00000     0.40396    0.00114     0.40510
      H   25    0.08513      0.00000     0.41286    0.00200     0.41487
      H   26    0.10619      0.00000     0.39290    0.00092     0.39381
      H   27    0.11568      0.00000     0.38180    0.00252     0.38432
      H   28    0.10498      0.00000     0.39309    0.00193     0.39502
      H   29    0.10757      0.00000     0.38966    0.00278     0.39243
      H   30    0.10026      0.00000     0.39866    0.00108     0.39974
      H   31    0.10281      0.00000     0.39631    0.00088     0.39719
      H   32    0.11737      0.00000     0.38081    0.00182     0.38263
      H   33    0.19975      0.00000     0.29850    0.00175     0.30025
      H   34    0.09922      0.00000     0.39913    0.00165     0.40078
      H   35    0.09599      0.00000     0.40306    0.00095     0.40401
      H   36    0.09921      0.00000     0.39935    0.00144     0.40079
      H   37    0.18526      0.00000     0.31124    0.00350     0.31474
      H   38    0.18396      0.00000     0.31345    0.00259     0.31604
 =======================================================================
   * Total *   -0.00000     27.99182    53.73815    0.27003    82.00000

 Normal termination of Gaussian 16 at Sun Dec 13 18:36:34 2020.
