 Gaussian 16, Revision A.03,

 -----------------------------------------------------------
 # opt freq B3LYP/6-31G(d) empiricaldispersion=gd3bj scf=xqc
 -----------------------------------------------------------

 -------------------------------
 CID_82216156_JID_10544_neutraal
 -------------------------------
 Symbolic Z-matrix:
 Charge =  0 Multiplicity = 1

 SCF Done:  E(RB3LYP) =  -978.197473851     A.U. after   13 cycles
 SCF Done:  E(RB3LYP) =  -978.184112830     A.U. after   13 cycles
 SCF Done:  E(RB3LYP) =  -978.202836607     A.U. after   12 cycles
 SCF Done:  E(RB3LYP) =  -978.195347642     A.U. after   12 cycles
 SCF Done:  E(RB3LYP) =  -978.204363905     A.U. after   12 cycles
 SCF Done:  E(RB3LYP) =  -978.206679685     A.U. after   11 cycles
 SCF Done:  E(RB3LYP) =  -978.205516263     A.U. after   12 cycles
 SCF Done:  E(RB3LYP) =  -978.207899601     A.U. after   11 cycles
 SCF Done:  E(RB3LYP) =  -978.208200848     A.U. after   11 cycles
 SCF Done:  E(RB3LYP) =  -978.208535607     A.U. after   11 cycles
 SCF Done:  E(RB3LYP) =  -978.209634427     A.U. after    8 cycles
 SCF Done:  E(RB3LYP) =  -978.209634655     A.U. after    7 cycles
 SCF Done:  E(RB3LYP) =  -978.209635136     A.U. after    7 cycles
 SCF Done:  E(RB3LYP) =  -978.209635255     A.U. after    7 cycles
 SCF Done:  E(RB3LYP) =  -978.209635323     A.U. after    6 cycles
 Optimization completed.
    -- Stationary point found.
 Normal termination of Gaussian 16 at Sat Dec 12 16:21:30 2020.

 --------------------------------------------------------------------
 #N Geom=AllCheck Guess=TCheck SCRF=Check GenChk RB3LYP/6-31G(d) Freq
 --------------------------------------------------------------------

 Structure from the checkpoint file:  "JID_10544.chk"
 -------------------------------
 CID_82216156_JID_10544_neutraal
 -------------------------------
 Charge =  0 Multiplicity = 1

 SCF Done:  E(RB3LYP) =  -978.209635323     A.U. after    1 cycles

  Exact polarizability: 215.300 -22.908 138.929   5.206   0.263 155.959
 Approx polarizability: 267.037 -39.215 213.126  14.247  11.414 257.959

                      1                      2                      3
                      A                      A                      A
 Frequencies --     20.8400                30.5432                43.2623
 Red. masses --      4.5262                 4.4867                 4.5946
 Frc consts  --      0.0012                 0.0025                 0.0051
 IR Inten    --      0.6535                 1.4475                 0.2440

                      4                      5                      6
                      A                      A                      A
 Frequencies --     75.9536                77.9109                92.6539
 Red. masses --      3.9474                 3.7001                 2.5949
 Frc consts  --      0.0134                 0.0132                 0.0131
 IR Inten    --      0.3127                 0.4242                 3.2786

                      7                      8                      9
                      A                      A                      A
 Frequencies --     96.0707               122.4170               139.9265
 Red. masses --      4.2308                 3.0907                 3.4016
 Frc consts  --      0.0230                 0.0273                 0.0392
 IR Inten    --     11.5092                 4.5638                 4.1022

                     10                     11                     12
                      A                      A                      A
 Frequencies --    157.8662               158.6777               166.1007
 Red. masses --      1.8179                 2.0947                 1.2800
 Frc consts  --      0.0267                 0.0311                 0.0208
 IR Inten    --      4.4625                 3.5272                 0.2448

                     13                     14                     15
                      A                      A                      A
 Frequencies --    179.6214               188.4198               211.8820
 Red. masses --      3.5490                 3.4589                 3.1188
 Frc consts  --      0.0675                 0.0724                 0.0825
 IR Inten    --      2.5839                 5.8898                 4.9901

                     16                     17                     18
                      A                      A                      A
 Frequencies --    223.3538               239.6004               264.2799
 Red. masses --      2.8943                 4.3038                 4.5597
 Frc consts  --      0.0851                 0.1456                 0.1876
 IR Inten    --     16.0262                 0.5019                 4.5232

                     19                     20                     21
                      A                      A                      A
 Frequencies --    293.1429               320.9973               348.1355
 Red. masses --      4.1037                 3.1897                 4.6814
 Frc consts  --      0.2078                 0.1936                 0.3343
 IR Inten    --      3.6013                 0.5330                 5.6187

                     22                     23                     24
                      A                      A                      A
 Frequencies --    364.0624               369.0609               392.6830
 Red. masses --      4.3760                 4.4436                 1.3674
 Frc consts  --      0.3417                 0.3566                 0.1242
 IR Inten    --      0.4606                 2.8787                73.9595

                     25                     26                     27
                      A                      A                      A
 Frequencies --    408.7543               421.7645               465.7874
 Red. masses --      1.7866                 3.7574                 2.1962
 Frc consts  --      0.1759                 0.3938                 0.2807
 IR Inten    --     28.5814                11.8157                 4.6642

                     28                     29                     30
                      A                      A                      A
 Frequencies --    500.2263               513.7041               526.0623
 Red. masses --      3.5449                 3.2094                 2.9579
 Frc consts  --      0.5226                 0.4990                 0.4823
 IR Inten    --      3.4526                 8.4120                 2.3769

                     31                     32                     33
                      A                      A                      A
 Frequencies --    564.8665               573.2329               595.9353
 Red. masses --      4.0360                 2.5267                 4.2532
 Frc consts  --      0.7587                 0.4892                 0.8900
 IR Inten    --     19.0510                14.7618                 3.8290

                     34                     35                     36
                      A                      A                      A
 Frequencies --    629.8319               654.5299               704.5773
 Red. masses --      4.2970                 1.1111                 2.7371
 Frc consts  --      1.0043                 0.2805                 0.8006
 IR Inten    --      1.9647                85.7055                10.1497

                     37                     38                     39
                      A                      A                      A
 Frequencies --    714.6519               722.0991               756.2295
 Red. masses --      4.0125                 1.1088                 4.7791
 Frc consts  --      1.2074                 0.3406                 1.6103
 IR Inten    --     36.2918               161.6926                 3.3513

                     40                     41                     42
                      A                      A                      A
 Frequencies --    771.4061               811.1391               853.0744
 Red. masses --      3.8788                 2.7952                 1.7636
 Frc consts  --      1.3599                 1.0836                 0.7562
 IR Inten    --     15.3534                13.4308                12.2079

                     43                     44                     45
                      A                      A                      A
 Frequencies --    861.0843               872.2084               891.1316
 Red. masses --      2.8562                 2.0338                 2.4113
 Frc consts  --      1.2478                 0.9116                 1.1282
 IR Inten    --      6.4441                 9.1254                12.7692

                     46                     47                     48
                      A                      A                      A
 Frequencies --    913.7243               928.0290               948.9755
 Red. masses --      2.3544                 1.7159                 1.3367
 Frc consts  --      1.1581                 0.8707                 0.7093
 IR Inten    --     28.2894                 4.1189                 0.4625

                     49                     50                     51
                      A                      A                      A
 Frequencies --    960.0691               994.6556              1019.8205
 Red. masses --      2.3016                 2.2770                 2.3858
 Frc consts  --      1.2499                 1.3272                 1.4620
 IR Inten    --     11.7135                17.8387                23.2441

                     52                     53                     54
                      A                      A                      A
 Frequencies --   1046.9656              1057.4925              1071.2301
 Red. masses --      7.8454                 3.4538                 2.7627
 Frc consts  --      5.0667                 2.2756                 1.8679
 IR Inten    --     67.9276                65.9384                61.1765

                     55                     56                     57
                      A                      A                      A
 Frequencies --   1082.5832              1099.9177              1112.9648
 Red. masses --      2.5875                 1.9958                 3.6073
 Frc consts  --      1.7867                 1.4226                 2.6327
 IR Inten    --     41.0708                 7.5741                91.6489

                     58                     59                     60
                      A                      A                      A
 Frequencies --   1122.1226              1143.7208              1156.7546
 Red. masses --      4.5186                 2.0218                 1.9302
 Frc consts  --      3.3522                 1.5583                 1.5217
 IR Inten    --     52.3155                63.2969                30.7639

                     61                     62                     63
                      A                      A                      A
 Frequencies --   1174.6199              1188.2558              1188.8520
 Red. masses --      1.9206                 1.2511                 1.2568
 Frc consts  --      1.5612                 1.0408                 1.0466
 IR Inten    --     45.5009                 0.0890                14.9015

                     64                     65                     66
                      A                      A                      A
 Frequencies --   1194.2405              1210.3162              1222.2631
 Red. masses --      1.7203                 1.4489                 1.4178
 Frc consts  --      1.4456                 1.2505                 1.2480
 IR Inten    --     12.3541                10.4617                 1.4808

                     67                     68                     69
                      A                      A                      A
 Frequencies --   1249.4219              1251.0558              1257.7554
 Red. masses --      1.2806                 1.7295                 1.2950
 Frc consts  --      1.1778                 1.5949                 1.2070
 IR Inten    --     49.9598                28.3252                28.8371

                     70                     71                     72
                      A                      A                      A
 Frequencies --   1265.8236              1282.0539              1300.5145
 Red. masses --      1.1442                 1.5739                 1.1865
 Frc consts  --      1.0802                 1.5242                 1.1824
 IR Inten    --     13.3644                 9.1382                11.3805

                     73                     74                     75
                      A                      A                      A
 Frequencies --   1304.1356              1314.9198              1343.8985
 Red. masses --      3.1469                 1.3065                 5.8178
 Frc consts  --      3.1534                 1.3309                 6.1907
 IR Inten    --    164.6516                 2.4986                70.8722

                     76                     77                     78
                      A                      A                      A
 Frequencies --   1353.0305              1380.0407              1382.4630
 Red. masses --      1.4100                 1.7122                 1.3129
 Frc consts  --      1.5209                 1.9212                 1.4784
 IR Inten    --     10.6996                27.0171                18.4872

                     79                     80                     81
                      A                      A                      A
 Frequencies --   1410.0963              1414.1318              1433.0504
 Red. masses --      1.3054                 1.2502                 1.3092
 Frc consts  --      1.5293                 1.4730                 1.5841
 IR Inten    --     55.7019                 8.2100                27.9116

                     82                     83                     84
                      A                      A                      A
 Frequencies --   1434.6314              1450.2493              1465.1646
 Red. masses --      1.3793                 2.2308                 1.3950
 Frc consts  --      1.6726                 2.7643                 1.7644
 IR Inten    --     27.1632                23.1348                 7.4227

                     85                     86                     87
                      A                      A                      A
 Frequencies --   1469.3532              1485.6083              1494.5172
 Red. masses --      1.2808                 1.2025                 1.0910
 Frc consts  --      1.6293                 1.5637                 1.4358
 IR Inten    --     96.4545                11.5503                 2.3375

                     88                     89                     90
                      A                      A                      A
 Frequencies --   1500.6513              1506.9737              1514.4622
 Red. masses --      1.1935                 1.3234                 1.0585
 Frc consts  --      1.5836                 1.7707                 1.4304
 IR Inten    --     40.0288                11.6348                 6.2711

                     91                     92                     93
                      A                      A                      A
 Frequencies --   1515.9965              1523.8526              1530.1233
 Red. masses --      1.0865                 1.0916                 1.0841
 Frc consts  --      1.4712                 1.4935                 1.4954
 IR Inten    --      0.8569                10.6329                 3.6580

                     94                     95                     96
                      A                      A                      A
 Frequencies --   1534.8904              1540.9394              1546.0744
 Red. masses --      1.0942                 1.0636                 1.1036
 Frc consts  --      1.5189                 1.4879                 1.5543
 IR Inten    --      2.5780                 3.1948                 0.1453

                     97                     98                     99
                      A                      A                      A
 Frequencies --   1550.5254              1557.5548              1629.5195
 Red. masses --      2.4062                 1.0871                 7.2019
 Frc consts  --      3.4083                 1.5538                11.2671
 IR Inten    --    127.7589                19.2979                11.3197

                    100                    101                    102
                      A                      A                      A
 Frequencies --   1668.0576              2978.1172              3022.8172
 Red. masses --      6.2486                 1.0750                 1.0604
 Frc consts  --     10.2436                 5.6173                 5.7085
 IR Inten    --      2.8980                69.6436                46.0557

                    103                    104                    105
                      A                      A                      A
 Frequencies --   3034.6524              3036.5532              3039.5505
 Red. masses --      1.0376                 1.0832                 1.0364
 Frc consts  --      5.6300                 5.8849                 5.6414
 IR Inten    --     66.3010                23.0660                69.1772

                    106                    107                    108
                      A                      A                      A
 Frequencies --   3044.4384              3048.1325              3069.0855
 Red. masses --      1.0632                 1.0639                 1.0612
 Frc consts  --      5.8061                 5.8237                 5.8891
 IR Inten    --     54.3565                26.0553                22.9021

                    109                    110                    111
                      A                      A                      A
 Frequencies --   3075.9042              3092.6165              3099.4802
 Red. masses --      1.1042                 1.1016                 1.0972
 Frc consts  --      6.1554                 6.2077                 6.2101
 IR Inten    --     43.5013                18.5366                23.5996

                    112                    113                    114
                      A                      A                      A
 Frequencies --   3110.7562              3111.1494              3115.5896
 Red. masses --      1.1057                 1.0980                 1.0993
 Frc consts  --      6.3041                 6.2615                 6.2871
 IR Inten    --     33.0315                25.2071                31.2403

                    115                    116                    117
                      A                      A                      A
 Frequencies --   3123.8370              3154.1902              3154.9378
 Red. masses --      1.0912                 1.1052                 1.1058
 Frc consts  --      6.2738                 6.4787                 6.4848
 IR Inten    --     44.0302                28.8123                27.7684

                    118                    119                    120
                      A                      A                      A
 Frequencies --   3177.5803              3210.9275              3230.5323
 Red. masses --      1.0882                 1.0930                 1.0898
 Frc consts  --      6.4740                 6.6397                 6.7009
 IR Inten    --     12.3825                 9.5012                 0.7678

                    121                    122                    123
                      A                      A                      A
 Frequencies --   3516.5982              3599.9117              3746.8879
 Red. masses --      1.0641                 1.0663                 1.0664
 Frc consts  --      7.7529                 8.1415                 8.8206
 IR Inten    --    159.8325               302.7295                28.8470

 - Thermochemistry -
 -------------------
 Temperature   298.150 Kelvin.  Pressure   1.00000 Atm.
 Atom     1 has atomic number  6 and mass  12.00000

 Molecular mass:   285.15762 amu.
 Principal axes and moments of inertia in atomic units:
                           1         2         3
     Eigenvalues --  2834.61268********************
           X            0.99998  -0.00561   0.00285
           Y            0.00579   0.99764  -0.06842
           Z           -0.00246   0.06843   0.99765
 This molecule is an asymmetric top.
 Rotational symmetry number  1.
 Warning -- assumption of classical behavior for rotation
           may cause significant error
 Rotational temperatures (Kelvin)      0.03056     0.00833     0.00796
 Rotational constants (GHZ):           0.63668     0.17352     0.16580
 Zero-point vibrational energy     974257.4 (Joules/Mol)
                                  232.85310 (Kcal/Mol)
 Warning -- explicit consideration of  33 degrees of freedom as
           vibrations may cause significant error
 Vibrational temperatures:     29.98    43.94    62.24   109.28   112.10
          (Kelvin)            133.31   138.22   176.13   201.32   227.13
                              228.30   238.98   258.44   271.09   304.85
                              321.36   344.73   380.24   421.77   461.84
                              500.89   523.80   531.00   564.98   588.11
                              606.82   670.16   719.71   739.11   756.89
                              812.72   824.75   857.42   906.19   941.72
                             1013.73  1028.22  1038.94  1088.05  1109.88
                             1167.05  1227.38  1238.91  1254.91  1282.14
                             1314.65  1335.23  1365.36  1381.33  1431.09
                             1467.29  1506.35  1521.50  1541.26  1557.60
                             1582.54  1601.31  1614.48  1645.56  1664.31
                             1690.02  1709.64  1710.49  1718.25  1741.38
                             1758.56  1797.64  1799.99  1809.63  1821.24
                             1844.59  1871.15  1876.36  1891.88  1933.57
                             1946.71  1985.57  1989.06  2028.81  2034.62
                             2061.84  2064.11  2086.59  2108.05  2114.07
                             2137.46  2150.28  2159.10  2168.20  2178.97
                             2181.18  2192.48  2201.51  2208.37  2217.07
                             2224.46  2230.86  2240.97  2344.52  2399.96
                             4284.85  4349.16  4366.19  4368.92  4373.24
                             4380.27  4385.58  4415.73  4425.54  4449.59
                             4459.46  4475.68  4476.25  4482.64  4494.50
                             4538.18  4539.25  4571.83  4619.81  4648.02
                             5059.60  5179.47  5390.94

 Zero-point correction=                           0.371075 (Hartree/Particle)
 Thermal correction to Energy=                    0.392133
 Thermal correction to Enthalpy=                  0.393077
 Thermal correction to Gibbs Free Energy=         0.320386
 Sum of electronic and zero-point Energies=           -977.838560
 Sum of electronic and thermal Energies=              -977.817502
 Sum of electronic and thermal Enthalpies=            -977.816558
 Sum of electronic and thermal Free Energies=         -977.889249

                     E (Thermal)             CV                S
                      KCal/Mol        Cal/Mol-Kelvin    Cal/Mol-Kelvin
 Total                  246.067             78.943            152.991
 Electronic               0.000              0.000              0.000
 Translational            0.889              2.981             42.842
 Rotational               0.889              2.981             34.128
 Vibrational            244.290             72.982             76.021
 Vibration     1          0.593              1.986              6.553
 Vibration     2          0.594              1.984              5.794
 Vibration     3          0.595              1.980              5.104
 Vibration     4          0.599              1.965              3.993
 Vibration     5          0.599              1.964              3.943
 Vibration     6          0.602              1.954              3.603
 Vibration     7          0.603              1.952              3.533
 Vibration     8          0.610              1.930              3.062
 Vibration     9          0.615              1.913              2.805
 Vibration    10          0.621              1.894              2.575
 Vibration    11          0.621              1.893              2.565
 Vibration    12          0.624              1.884              2.479
 Vibration    13          0.629              1.867              2.332
 Vibration    14          0.633              1.856              2.243
 Vibration    15          0.643              1.823              2.027
 Vibration    16          0.649              1.806              1.932
 Vibration    17          0.657              1.780              1.806
 Vibration    18          0.671              1.738              1.633
 Vibration    19          0.688              1.687              1.456
 Vibration    20          0.706              1.633              1.305
 Vibration    21          0.726              1.579              1.175
 Vibration    22          0.738              1.546              1.105
 Vibration    23          0.741              1.536              1.084
 Vibration    24          0.760              1.486              0.990
 Vibration    25          0.773              1.451              0.931
 Vibration    26          0.784              1.423              0.886
 Vibration    27          0.823              1.326              0.749
 Vibration    28          0.856              1.250              0.658
 Vibration    29          0.869              1.220              0.625
 Vibration    30          0.881              1.192              0.596
 Vibration    31          0.921              1.107              0.514
 Vibration    32          0.929              1.089              0.498
 Vibration    33          0.954              1.040              0.457

 Optimization completed.
    -- Stationary point found.
 Normal termination of Gaussian 16 at Sat Dec 12 16:48:26 2020.

 ----------------------------------------------------------------------
 # B3LYP/6-311++G(d,p) empiricaldispersion=gd3bj scf=xqc pop=npa geom=c
 heck
 ----------------------------------------------------------------------

 ---------------------------------------
 CID_82216156_JID_10544_Energie_neutraal
 ---------------------------------------
 Structure from the checkpoint file:  "JID_10544.chk"
 Charge =  0 Multiplicity = 1

 SCF Done:  E(RB3LYP) =  -978.512490662     A.U. after   15 cycles
 Normal termination of Gaussian 16 at Sat Dec 12 17:00:57 2020.

 ----------------------------------------------------------------------
 # B3LYP/6-311++G(d,p) empiricaldispersion=gd3bj scf=xqc pop=npa geom=c
 heck
 ----------------------------------------------------------------------

 -------------------------------------
 CID_82216156_JID_10544_Energie_kation
 -------------------------------------
 Structure from the checkpoint file:  "JID_10544.chk"
 Charge =  1 Multiplicity = 2

 SCF Done:  E(UB3LYP) =  -978.231639808     A.U. after   25 cycles
 Normal termination of Gaussian 16 at Sat Dec 12 17:30:13 2020.
 Gaussian 16:  ES64L-G16RevA.03 25-Dec-2016

 ----------------------------------------------------------------------
 # B3LYP/6-311++G(d,p) empiricaldispersion=gd3bj scf=xqc pop=npa geom=c
 heck
 ----------------------------------------------------------------------

 ------------------------------------
 CID_82216156_JID_10544_Energie_anion
 ------------------------------------
 Structure from the checkpoint file:  "JID_10544.chk"
 Charge = -1 Multiplicity = 2

                         Standard orientation:
 ---------------------------------------------------------------------
 Center     Atomic      Atomic             Coordinates (Angstroms)
 Number     Number       Type             X           Y           Z
 ---------------------------------------------------------------------
      1          6           0        5.311462   -0.398273   -0.549299
      2          8           0        4.087373   -1.128869   -0.677985
      3          6           0        2.953873   -0.345719   -0.649034
      4          6           0        2.549508    0.326885    0.516790
      5          6           0        1.389724    1.100032    0.506618
      6          6           0        0.600275    1.195464   -0.640116
      7          6           0        1.004447    0.516200   -1.795335
      8          6           0        2.172478   -0.243857   -1.800035
      9          6           0       -0.692767    2.000739   -0.635612
     10          6           0       -1.957962    1.117344   -0.820816
     11          7           0       -2.353530    0.524841    0.458208
     12          6           0       -3.767599    0.647549    0.793366
     13          6           0       -4.784080   -0.178637    0.002027
     14          8           0       -4.753204   -1.539507    0.469370
     15          6           0       -1.682243   -0.721742    0.861192
     16          6           0       -1.406979   -1.751317   -0.245080
     17          8           0       -2.520629   -2.027650   -1.073481
     18          8           0       -0.858681    2.764691    0.542252
     19          8           0        3.297295    0.268942    1.673738
     20          6           0        3.304366   -1.016639    2.300257
     21          1           0        6.113518   -1.138186   -0.596613
     22          1           0        5.354644    0.139693    0.402634
     23          1           0        5.422099    0.314217   -1.376840
     24          1           0        1.105058    1.635407    1.405067
     25          1           0        0.407662    0.584375   -2.701919
     26          1           0        2.501325   -0.769364   -2.691244
     27          1           0       -0.655913    2.704015   -1.478209
     28          1           0       -2.769381    1.779057   -1.139669
     29          1           0       -1.818053    0.370060   -1.609167
     30          1           0       -3.896815    0.405264    1.855090
     31          1           0       -4.041312    1.703045    0.674195
     32          1           0       -5.784897    0.243212    0.171162
     33          1           0       -4.560971   -0.136785   -1.071737
     34          1           0       -5.485459   -2.016510    0.048496
     35          1           0       -0.715622   -0.485110    1.324663
     36          1           0       -2.304415   -1.179664    1.636647
     37          1           0       -0.610824   -1.393507   -0.903122
     38          1           0       -1.024132   -2.662472    0.246696
     39          1           0       -3.295862   -2.121345   -0.485691
     40          1           0       -1.384546    2.165809    1.116794
     41          1           0        2.285403   -1.310680    2.584894
     42          1           0        3.732018   -1.778509    1.640913
     43          1           0        3.916934   -0.914933    3.198814
 ---------------------------------------------------------------------

 SCF Done:  E(UB3LYP) =  -978.504748814     A.U. after   33 cycles
 SCF Done:  E(UB3LYP) =  -978.504748814     a.u. after    1 cycles

 The electronic state is 2-A.
 Alpha  occ. eigenvalues --  -19.06341 -19.06202 -19.03961 -19.02977 -19.01113
 Alpha  occ. eigenvalues --  -14.22798 -10.14729 -10.14670 -10.14201 -10.13657
 Alpha  occ. eigenvalues --  -10.13522 -10.12331 -10.11664 -10.11251 -10.11187
 Alpha  occ. eigenvalues --  -10.10577 -10.09778 -10.09704 -10.09407 -10.08925
 Alpha  occ. eigenvalues --   -0.98764  -0.96639  -0.94188  -0.93910  -0.91524
 Alpha  occ. eigenvalues --   -0.83669  -0.77654  -0.69368  -0.67528  -0.66820
 Alpha  occ. eigenvalues --   -0.65662  -0.62397  -0.61165  -0.59299  -0.55603
 Alpha  occ. eigenvalues --   -0.53701  -0.53236  -0.50396  -0.47793  -0.45112
 Alpha  occ. eigenvalues --   -0.43726  -0.43189  -0.42487  -0.41926  -0.40762
 Alpha  occ. eigenvalues --   -0.39449  -0.39373  -0.39116  -0.37765  -0.36355
 Alpha  occ. eigenvalues --   -0.36251  -0.35778  -0.35491  -0.35285  -0.34908
 Alpha  occ. eigenvalues --   -0.33848  -0.32669  -0.31945  -0.30948  -0.29629
 Alpha  occ. eigenvalues --   -0.28991  -0.28340  -0.28238  -0.27594  -0.27079
 Alpha  occ. eigenvalues --   -0.26559  -0.25899  -0.24575  -0.23228  -0.22317
 Alpha  occ. eigenvalues --   -0.19626  -0.19512  -0.19157  -0.17967  -0.16988
 Alpha  occ. eigenvalues --   -0.15143  -0.13268   0.03768
 Alpha virt. eigenvalues --    0.04722   0.06186   0.06477   0.06636   0.07375
 Alpha virt. eigenvalues --    0.07446   0.07910   0.08201   0.08839   0.09363
 Alpha virt. eigenvalues --    0.09885   0.10133   0.10278   0.10697   0.11324

  Beta  occ. eigenvalues --  -19.06341 -19.06203 -19.03894 -19.02973 -19.01102
  Beta  occ. eigenvalues --  -14.22800 -10.14711 -10.14656 -10.14202 -10.13627
  Beta  occ. eigenvalues --  -10.13493 -10.12288 -10.11658 -10.11244 -10.11178
  Beta  occ. eigenvalues --  -10.10571 -10.09762 -10.09707 -10.09393 -10.08927
  Beta  occ. eigenvalues --   -0.98753  -0.96629  -0.94170  -0.93793  -0.91491
  Beta  occ. eigenvalues --   -0.83659  -0.77630  -0.69340  -0.67502  -0.66769
  Beta  occ. eigenvalues --   -0.65634  -0.62351  -0.61122  -0.59256  -0.55581
  Beta  occ. eigenvalues --   -0.53645  -0.53210  -0.50363  -0.47768  -0.45095
  Beta  occ. eigenvalues --   -0.43576  -0.43170  -0.42456  -0.41903  -0.40737
  Beta  occ. eigenvalues --   -0.39430  -0.39356  -0.39075  -0.37739  -0.36330
  Beta  occ. eigenvalues --   -0.36230  -0.35757  -0.35466  -0.35266  -0.34882
  Beta  occ. eigenvalues --   -0.33828  -0.32635  -0.31925  -0.30909  -0.29604
  Beta  occ. eigenvalues --   -0.28955  -0.28302  -0.28218  -0.27569  -0.27058
  Beta  occ. eigenvalues --   -0.26513  -0.25871  -0.24560  -0.23202  -0.22298
  Beta  occ. eigenvalues --   -0.19614  -0.19452  -0.19143  -0.17953  -0.16950
  Beta  occ. eigenvalues --   -0.15058  -0.13255
  Beta virt. eigenvalues --    0.05383   0.06135   0.06529   0.06547   0.07247
  Beta virt. eigenvalues --    0.07543   0.08010   0.08073   0.08521   0.08962
  Beta virt. eigenvalues --    0.09664   0.09893   0.10236   0.10390   0.11025

 Mulliken charges and spin densities:
               1          2
     1  C    0.297700  -0.571612
     2  O   -0.183296   0.032110
     3  C    0.132039  -0.317185
     4  C   -0.558901  -0.105578
     5  C   -0.543842   0.134471
     6  C    1.061521   0.233350
     7  C   -0.453206   0.209716
     8  C   -0.195444   0.117878
     9  C   -0.745121  -0.333061
    10  C    0.057392  -0.199700
    11  N   -0.030767   0.024621
    12  C   -0.829607   0.681819
    13  C    1.749514  -2.107415
    14  O   -0.327319   0.008343
    15  C   -0.298334   0.083183
    16  C   -0.491778  -0.117463
    17  O   -0.263191  -0.020132
    18  O   -0.153547   0.002981
    19  O   -0.148046   0.020392
    20  C    0.270770  -0.513884
    21  H   -0.186060   0.347383
    22  H    0.033307   0.152543
    23  H   -0.048322   0.167810
    24  H    0.168158   0.025548
    25  H    0.097730   0.052592
    26  H    0.109348   0.079214
    27  H    0.186872   0.017817
    28  H    0.142812   0.024020
    29  H    0.207730  -0.018571
    30  H    0.069337   0.119220
    31  H    0.076878   0.063287
    32  H   -0.768918   0.945946
    33  H   -0.191003   0.369237
    34  H   -0.435190   0.731831
    35  H    0.297665  -0.076523
    36  H    0.087278   0.104977
    37  H    0.266872  -0.011776
    38  H    0.017113   0.113965
    39  H    0.437623  -0.124829
    40  H    0.213616   0.072281
    41  H   -0.081532   0.202470
    42  H    0.035601   0.137497
    43  H   -0.083449   0.241225
 Sum of Mulliken charges =  -1.00000   1.00000

 Dipole moment (field-independent basis, Debye):
    X=              6.9885    Y=              3.3056    Z=             -0.9232  Tot=              7.7858
 Quadrupole moment (field-independent basis, Debye-Ang):
   XX=           -270.3559   YY=           -165.9295   ZZ=           -147.5082
   XY=            -13.6427   XZ=             -5.7453   YZ=             -5.5603

 Summary of Natural Population Analysis:

                                       Natural Population
                Natural  -----------------------------------------------
    Atom  No    Charge         Core      Valence    Rydberg      Total
 -----------------------------------------------------------------------
      C    1   -0.09992      0.99959     2.09145    0.00888     3.09992
      O    2   -0.29203      0.99986     3.28174    0.01043     4.29203
      C    3    0.12901      0.99931     1.85779    0.01388     2.87099
      C    4    0.13768      0.99932     1.84925    0.01376     2.86232
      C    5   -0.11638      0.99946     2.10765    0.00926     3.11638
      C    6   -0.02350      0.99949     2.01444    0.00957     3.02350
      C    7   -0.10705      0.99952     2.09918    0.00835     3.10705
      C    8   -0.11191      0.99952     2.10320    0.00919     3.11191
      C    9    0.05507      0.99952     1.93171    0.01369     2.94493
      C   10   -0.09374      0.99959     2.08347    0.01069     3.09374
      N   11   -0.30037      0.99972     2.78572    0.01493     3.80037
      C   12   -0.08895      0.99959     2.07627    0.01309     3.08895
      C   13   -0.02215      0.99958     2.00999    0.01257     3.02215
      O   14   -0.38303      0.99989     3.37472    0.00842     4.38303
      C   15   -0.09858      0.99960     2.08852    0.01046     3.09858
      C   16   -0.02348      0.99960     2.01123    0.01265     3.02348
      O   17   -0.38330      0.99989     3.37707    0.00634     4.38330
      O   18   -0.37530      0.99990     3.36929    0.00610     4.37530
      O   19   -0.29188      0.99986     3.28182    0.01020     4.29188
      C   20   -0.10023      0.99959     2.09168    0.00896     3.10023
      H   21    0.09064      0.00000     0.40805    0.00131     0.40936
      H   22    0.09074      0.00000     0.40774    0.00152     0.40926
      H   23    0.08172      0.00000     0.41714    0.00115     0.41828
      H   24    0.11580      0.00000     0.38279    0.00141     0.38420
      H   25    0.10170      0.00000     0.39731    0.00098     0.39830
      H   26    0.10623      0.00000     0.39272    0.00105     0.39377
      H   27    0.08835      0.00000     0.41006    0.00158     0.41165
      H   28    0.09835      0.00000     0.40048    0.00117     0.40165
      H   29    0.10201      0.00000     0.39648    0.00151     0.39799
      H   30    0.09906      0.00000     0.39974    0.00120     0.40094
      H   31    0.09762      0.00000     0.40126    0.00111     0.40238
      H   32    0.08674      0.00000     0.40935    0.00391     0.41326
      H   33    0.08425      0.00000     0.41419    0.00156     0.41575
      H   34    0.24576      0.00000     0.23402    0.02022     0.25424
      H   35    0.09618      0.00000     0.40240    0.00142     0.40382
      H   36    0.10005      0.00000     0.39861    0.00134     0.39995
      H   37    0.08834      0.00000     0.40997    0.00169     0.41166
      H   38    0.07689      0.00000     0.42197    0.00114     0.42311
      H   39    0.24031      0.00000     0.25558    0.00411     0.25969
      H   40    0.23590      0.00000     0.26097    0.00313     0.26410
      H   41    0.08306      0.00000     0.41562    0.00132     0.41694
      H   42    0.09015      0.00000     0.40825    0.00159     0.40985
      H   43    0.09019      0.00000     0.40867    0.00114     0.40981
 =======================================================================
   * Total *    0.00000     19.99243    56.73960    0.26797    77.00000

 Normal termination of Gaussian 16 at Sat Dec 12 18:09:53 2020.
