 Gaussian 16, Revision A.03,

 -----------------------------------------------------------
 # opt freq B3LYP/6-31G(d) empiricaldispersion=gd3bj scf=xqc
 -----------------------------------------------------------

 -------------------------------
 CID_114516898_JID_7070_neutraal
 -------------------------------
 Symbolic Z-matrix:
 Charge =  0 Multiplicity = 1

 SCF Done:  E(RB3LYP) =  -1107.65230726     A.U. after   14 cycles
 SCF Done:  E(RB3LYP) =  -1107.66016227     A.U. after   12 cycles
 SCF Done:  E(RB3LYP) =  -1107.66029968     A.U. after   13 cycles
 SCF Done:  E(RB3LYP) =  -1107.66114151     A.U. after   12 cycles
 SCF Done:  E(RB3LYP) =  -1107.66152880     A.U. after   11 cycles
 SCF Done:  E(RB3LYP) =  -1107.66161062     A.U. after   11 cycles
 SCF Done:  E(RB3LYP) =  -1107.66165836     A.U. after   10 cycles
 SCF Done:  E(RB3LYP) =  -1107.66167114     A.U. after   10 cycles
 SCF Done:  E(RB3LYP) =  -1107.66167292     A.U. after    8 cycles
 SCF Done:  E(RB3LYP) =  -1107.66167330     A.U. after    7 cycles
 SCF Done:  E(RB3LYP) =  -1107.66167337     A.U. after    7 cycles
 SCF Done:  E(RB3LYP) =  -1107.66167340     A.U. after    6 cycles
 Optimization completed.
    -- Stationary point found.
 Normal termination of Gaussian 16 at Sun Dec 13 12:28:36 2020.

 --------------------------------------------------------------------
 #N Geom=AllCheck Guess=TCheck SCRF=Check GenChk RB3LYP/6-31G(d) Freq
 --------------------------------------------------------------------

 Structure from the checkpoint file:  "JID_7070.chk"
 -------------------------------
 CID_114516898_JID_7070_neutraal
 -------------------------------
 Charge =  0 Multiplicity = 1

 SCF Done:  E(RB3LYP) =  -1107.66167340     A.U. after    1 cycles

  Exact polarizability: 182.775  -8.731 179.024  13.296  10.833 129.475
 Approx polarizability: 229.065 -16.180 282.849  24.728  24.821 209.733

                      1                      2                      3
                      A                      A                      A
 Frequencies --     30.7616                47.1110                54.9697
 Red. masses --      4.8639                 3.6730                 4.4859
 Frc consts  --      0.0027                 0.0048                 0.0080
 IR Inten    --      0.5542                 0.9568                 3.8366

                      4                      5                      6
                      A                      A                      A
 Frequencies --     78.0247                84.1926               126.4990
 Red. masses --      5.7979                 4.5451                 3.9275
 Frc consts  --      0.0208                 0.0190                 0.0370
 IR Inten    --      3.7269                 1.2612                 2.1308

                      7                      8                      9
                      A                      A                      A
 Frequencies --    139.3627               183.8606               193.2914
 Red. masses --      3.7260                 5.1897                 2.8754
 Frc consts  --      0.0426                 0.1034                 0.0633
 IR Inten    --      1.6164                 1.8525                 3.3876

                     10                     11                     12
                      A                      A                      A
 Frequencies --    223.6902               242.4888               264.1004
 Red. masses --      4.1851                 1.8003                 1.6581
 Frc consts  --      0.1234                 0.0624                 0.0681
 IR Inten    --      1.2355                 2.5174                 1.6684

                     13                     14                     15
                      A                      A                      A
 Frequencies --    271.4025               321.4555               342.0322
 Red. masses --      2.1222                 2.4558                 1.9553
 Frc consts  --      0.0921                 0.1495                 0.1348
 IR Inten    --      5.4448                 4.6746                 7.7184

                     16                     17                     18
                      A                      A                      A
 Frequencies --    365.1418               375.5516               389.4421
 Red. masses --      2.0715                 1.6049                 1.9144
 Frc consts  --      0.1627                 0.1334                 0.1711
 IR Inten    --      0.6620                84.6224                31.1215

                     19                     20                     21
                      A                      A                      A
 Frequencies --    396.3310               407.1261               455.3086
 Red. masses --      3.3609                 2.0308                 2.8798
 Frc consts  --      0.3110                 0.1983                 0.3517
 IR Inten    --     14.1082                 2.8765                 5.8989

                     22                     23                     24
                      A                      A                      A
 Frequencies --    480.6896               488.4510               512.2018
 Red. masses --      2.7799                 2.8778                 3.7975
 Frc consts  --      0.3784                 0.4045                 0.5870
 IR Inten    --     21.6449                 0.1398                19.2358

                     25                     26                     27
                      A                      A                      A
 Frequencies --    540.6923               552.8441               634.4992
 Red. masses --      2.0826                 1.9587                 2.6959
 Frc consts  --      0.3587                 0.3527                 0.6395
 IR Inten    --     24.1047                66.0573                 1.6711

                     28                     29                     30
                      A                      A                      A
 Frequencies --    644.6231               684.4804               691.4995
 Red. masses --      2.0993                 6.2397                 3.2552
 Frc consts  --      0.5140                 1.7224                 0.9171
 IR Inten    --      2.1639                 4.7047                 4.1474

                     31                     32                     33
                      A                      A                      A
 Frequencies --    728.9914               767.1483               774.0537
 Red. masses --      1.5352                 2.9715                 3.1437
 Frc consts  --      0.4807                 1.0303                 1.1098
 IR Inten    --     28.2025                 3.0484                 6.5472

                     34                     35                     36
                      A                      A                      A
 Frequencies --    793.9079               832.5394               903.2752
 Red. masses --      2.8407                 1.5409                 2.1910
 Frc consts  --      1.0549                 0.6293                 1.0533
 IR Inten    --      9.2313                 0.7000                 0.6582

                     37                     38                     39
                      A                      A                      A
 Frequencies --    923.1371               947.3711               973.5376
 Red. masses --      2.4643                 1.9969                 3.0693
 Frc consts  --      1.2373                 1.0560                 1.7139
 IR Inten    --      2.3328                 3.2945                 4.2178

                     40                     41                     42
                      A                      A                      A
 Frequencies --    977.6078              1018.2665              1032.7876
 Red. masses --      1.5807                 2.2658                 1.5588
 Frc consts  --      0.8901                 1.3842                 0.9796
 IR Inten    --     23.9597                 9.6173                 1.1389

                     43                     44                     45
                      A                      A                      A
 Frequencies --   1038.4395              1051.9702              1053.1102
 Red. masses --      2.0662                 3.5248                 2.3596
 Frc consts  --      1.3128                 2.2982                 1.5418
 IR Inten    --     13.4479                63.9538                12.9064

                     46                     47                     48
                      A                      A                      A
 Frequencies --   1076.7990              1084.9207              1099.9538
 Red. masses --      2.0454                 1.8910                 1.6449
 Frc consts  --      1.3973                 1.3114                 1.1726
 IR Inten    --      7.8087                 6.2900                41.5802

                     49                     50                     51
                      A                      A                      A
 Frequencies --   1134.4316              1152.4003              1179.4532
 Red. masses --      1.6757                 1.7185                 1.8880
 Frc consts  --      1.2706                 1.3447                 1.5475
 IR Inten    --     12.2065                 5.4567                20.6367

                     52                     53                     54
                      A                      A                      A
 Frequencies --   1183.7069              1186.2452              1201.2908
 Red. masses --      2.0425                 1.6321                 1.5154
 Frc consts  --      1.6862                 1.3531                 1.2885
 IR Inten    --     24.7948                 5.0333                28.0548

                     55                     56                     57
                      A                      A                      A
 Frequencies --   1205.4491              1222.3903              1241.8971
 Red. masses --      2.6392                 1.2392                 1.4794
 Frc consts  --      2.2596                 1.0909                 1.3443
 IR Inten    --      9.4609                 9.7138                49.5696

                     58                     59                     60
                      A                      A                      A
 Frequencies --   1247.4394              1278.2864              1314.9375
 Red. masses --      1.5188                 1.5295                 1.3600
 Frc consts  --      1.3925                 1.4725                 1.3855
 IR Inten    --      5.8088                22.5579                 4.4057

                     61                     62                     63
                      A                      A                      A
 Frequencies --   1319.8400              1322.6919              1344.7022
 Red. masses --      2.9167                 2.4998                 1.3198
 Frc consts  --      2.9936                 2.5767                 1.4061
 IR Inten    --     78.3089                11.6146                14.2407

                     64                     65                     66
                      A                      A                      A
 Frequencies --   1348.5850              1364.8169              1382.5424
 Red. masses --      1.4278                 1.4398                 1.4220
 Frc consts  --      1.5299                 1.5802                 1.6015
 IR Inten    --      1.2643                15.6675                 8.1733

                     67                     68                     69
                      A                      A                      A
 Frequencies --   1384.6463              1394.1221              1406.5084
 Red. masses --      1.3270                 1.7150                 1.5401
 Frc consts  --      1.4990                 1.9639                 1.7950
 IR Inten    --      0.0642                48.8405                 7.8207

                     70                     71                     72
                      A                      A                      A
 Frequencies --   1416.4416              1421.8683              1429.6192
 Red. masses --      1.4490                 1.5274                 1.4457
 Frc consts  --      1.7129                 1.8194                 1.7409
 IR Inten    --      4.5438                 5.8235                 9.6163

                     73                     74                     75
                      A                      A                      A
 Frequencies --   1443.0817              1444.8076              1448.5317
 Red. masses --      1.4915                 1.3981                 1.9856
 Frc consts  --      1.8300                 1.7195                 2.4546
 IR Inten    --     94.8080                40.9009                17.2971

                     76                     77                     78
                      A                      A                      A
 Frequencies --   1486.3581              1502.8742              1506.3827
 Red. masses --      1.2112                 1.4891                 1.2587
 Frc consts  --      1.5765                 1.9816                 1.6828
 IR Inten    --      0.2569               137.5682                71.1089

                     79                     80                     81
                      A                      A                      A
 Frequencies --   1515.2714              1517.4074              1520.3397
 Red. masses --      1.0729                 1.0748                 1.2057
 Frc consts  --      1.4515                 1.4580                 1.6419
 IR Inten    --     11.8533                11.0085                21.3631

                     82                     83                     84
                      A                      A                      A
 Frequencies --   1527.3260              1530.6379              1532.0601
 Red. masses --      1.1322                 1.1068                 1.1774
 Frc consts  --      1.5561                 1.5278                 1.6282
 IR Inten    --     31.3691                 2.2856                45.8966

                     85                     86                     87
                      A                      A                      A
 Frequencies --   1538.6611              1546.8395              1670.8836
 Red. masses --      1.0598                 1.1049                 6.0862
 Frc consts  --      1.4782                 1.5576                10.0112
 IR Inten    --      3.0811                 8.5799                 4.2449

                     88                     89                     90
                      A                      A                      A
 Frequencies --   2905.1682              2913.8977              2934.2439
 Red. masses --      1.0736                 1.0715                 1.0636
 Frc consts  --      5.3389                 5.3604                 5.3952
 IR Inten    --     32.4090                56.4453               137.1994

                     91                     92                     93
                      A                      A                      A
 Frequencies --   3023.5846              3025.9611              3044.2673
 Red. masses --      1.0801                 1.0726                 1.0612
 Frc consts  --      5.8178                 5.7864                 5.7946
 IR Inten    --     21.0228                54.2688                14.3309

                     94                     95                     96
                      A                      A                      A
 Frequencies --   3050.7852              3064.3071              3070.2797
 Red. masses --      1.0652                 1.0612                 1.0849
 Frc consts  --      5.8412                 5.8708                 6.0256
 IR Inten    --     57.1714                20.2544                61.3992

                     97                     98                     99
                      A                      A                      A
 Frequencies --   3071.5726              3076.5488              3086.1365
 Red. masses --      1.0789                 1.0762                 1.1021
 Frc consts  --      5.9973                 6.0016                 6.1845
 IR Inten    --      7.3969                77.5266                24.2627

                    100                    101                    102
                      A                      A                      A
 Frequencies --   3089.6751              3093.8811              3106.0235
 Red. masses --      1.1034                 1.0709                 1.0977
 Frc consts  --      6.2062                 6.0398                 6.2392
 IR Inten    --     40.6008                10.0206                25.6136

                    103                    104                    105
                      A                      A                      A
 Frequencies --   3118.5608              3127.3579              3159.2853
 Red. masses --      1.1040                 1.0906                 1.1020
 Frc consts  --      6.3261                 6.2847                 6.4804
 IR Inten    --     33.5813                13.2863                 3.0523

                    106                    107                    108
                      A                      A                      A
 Frequencies --   3300.7241              3672.7701              3730.1220
 Red. masses --      1.0991                 1.0811                 1.0662
 Frc consts  --      7.0552                 8.5922                 8.7404
 IR Inten    --      1.1642                94.6603                17.1354

 - Thermochemistry -
 -------------------
 Temperature   298.150 Kelvin.  Pressure   1.00000 Atm.
 Atom     1 has atomic number  6 and mass  12.00000

 Molecular mass:   255.14053 amu.
 Principal axes and moments of inertia in atomic units:
                           1         2         3
     Eigenvalues --  2652.167977653.946329218.09980
           X            0.99980   0.01864   0.00659
           Y           -0.01861   0.99982  -0.00462
           Z           -0.00667   0.00450   0.99997
 This molecule is an asymmetric top.
 Rotational symmetry number  1.
 Warning -- assumption of classical behavior for rotation
           may cause significant error
 Rotational temperatures (Kelvin)      0.03266     0.01132     0.00940
 Rotational constants (GHZ):           0.68048     0.23579     0.19578
 Zero-point vibrational energy     877944.6 (Joules/Mol)
                                  209.83379 (Kcal/Mol)
 Warning -- explicit consideration of  26 degrees of freedom as
           vibrations may cause significant error
 Vibrational temperatures:     44.26    67.78    79.09   112.26   121.13
          (Kelvin)            182.00   200.51   264.53   278.10   321.84
                              348.89   379.98   390.49   462.50   492.11
                              525.36   540.34   560.32   570.23   585.76
                              655.09   691.61   702.77   736.94   777.94
                              795.42   912.90   927.47   984.81   994.91
                             1048.86  1103.76  1113.69  1142.26  1197.84
                             1299.61  1328.19  1363.06  1400.70  1406.56
                             1465.06  1485.95  1494.08  1513.55  1515.19
                             1549.27  1560.96  1582.59  1632.19  1658.05
                             1696.97  1703.09  1706.74  1728.39  1734.37
                             1758.75  1786.81  1794.79  1839.17  1891.90
                             1898.96  1903.06  1934.73  1940.31  1963.67
                             1989.17  1992.20  2005.83  2023.65  2037.94
                             2045.75  2056.90  2076.27  2078.76  2084.11
                             2138.54  2162.30  2167.35  2180.14  2183.21
                             2187.43  2197.48  2202.25  2204.29  2213.79
                             2225.56  2404.03  4179.89  4192.45  4221.72
                             4350.26  4353.68  4380.02  4389.40  4408.85
                             4417.45  4419.31  4426.47  4440.26  4445.35
                             4451.40  4468.88  4486.91  4499.57  4545.51
                             4749.01  5284.30  5366.81

 Zero-point correction=                           0.334391 (Hartree/Particle)
 Thermal correction to Energy=                    0.351237
 Thermal correction to Enthalpy=                  0.352181
 Thermal correction to Gibbs Free Energy=         0.289220
 Sum of electronic and zero-point Energies=          -1107.327282
 Sum of electronic and thermal Energies=             -1107.310436
 Sum of electronic and thermal Enthalpies=           -1107.309492
 Sum of electronic and thermal Free Energies=        -1107.372454

                     E (Thermal)             CV                S
                      KCal/Mol        Cal/Mol-Kelvin    Cal/Mol-Kelvin
 Total                  220.405             65.229            132.515
 Electronic               0.000              0.000              0.000
 Translational            0.889              2.981             42.510
 Rotational               0.889              2.981             33.592
 Vibrational            218.627             59.267             56.413
 Vibration     1          0.594              1.984              5.780
 Vibration     2          0.595              1.979              4.935
 Vibration     3          0.596              1.976              4.630
 Vibration     4          0.599              1.964              3.940
 Vibration     5          0.601              1.960              3.791
 Vibration     6          0.611              1.927              2.999
 Vibration     7          0.615              1.914              2.813
 Vibration     8          0.631              1.862              2.289
 Vibration     9          0.635              1.849              2.196
 Vibration    10          0.649              1.805              1.929
 Vibration    11          0.659              1.775              1.785
 Vibration    12          0.671              1.739              1.635
 Vibration    13          0.675              1.726              1.587
 Vibration    14          0.707              1.632              1.303
 Vibration    15          0.721              1.591              1.203
 Vibration    16          0.738              1.544              1.100
 Vibration    17          0.746              1.522              1.057
 Vibration    18          0.757              1.493              1.002
 Vibration    19          0.763              1.478              0.976
 Vibration    20          0.772              1.455              0.937
 Vibration    21          0.814              1.349              0.780
 Vibration    22          0.837              1.293              0.708
 Vibration    23          0.844              1.276              0.688
 Vibration    24          0.867              1.223              0.628
 Vibration    25          0.896              1.160              0.564
 Vibration    26          0.908              1.133              0.538

 Optimization completed.
    -- Stationary point found.
 Normal termination of Gaussian 16 at Sun Dec 13 12:44:32 2020.

 ----------------------------------------------------------------------
 # B3LYP/6-311++G(d,p) empiricaldispersion=gd3bj scf=xqc pop=npa geom=c
 heck
 ----------------------------------------------------------------------

 ---------------------------------------
 CID_114516898_JID_7070_Energie_neutraal
 ---------------------------------------
 Structure from the checkpoint file:  "JID_7070.chk"
 Charge =  0 Multiplicity = 1

 SCF Done:  E(RB3LYP) =  -1107.89224524     A.U. after   16 cycles
 Normal termination of Gaussian 16 at Sun Dec 13 12:53:28 2020.

 ----------------------------------------------------------------------
 # B3LYP/6-311++G(d,p) empiricaldispersion=gd3bj scf=xqc pop=npa geom=c
 heck
 ----------------------------------------------------------------------

 -------------------------------------
 CID_114516898_JID_7070_Energie_kation
 -------------------------------------
 Structure from the checkpoint file:  "JID_7070.chk"
 Charge =  1 Multiplicity = 2

 SCF Done:  E(UB3LYP) =  -1107.63168095     A.U. after   32 cycles
 Normal termination of Gaussian 16 at Sun Dec 13 13:18:48 2020.
 Gaussian 16:  ES64L-G16RevA.03 25-Dec-2016

 ----------------------------------------------------------------------
 # B3LYP/6-311++G(d,p) empiricaldispersion=gd3bj scf=xqc pop=npa geom=c
 heck
 ----------------------------------------------------------------------

 ------------------------------------
 CID_114516898_JID_7070_Energie_anion
 ------------------------------------
 Structure from the checkpoint file:  "JID_7070.chk"
 Charge = -1 Multiplicity = 2

                         Standard orientation:
 ---------------------------------------------------------------------
 Center     Atomic      Atomic             Coordinates (Angstroms)
 Number     Number       Type             X           Y           Z
 ---------------------------------------------------------------------
      1          6           0       -5.333518   -0.287547   -0.374170
      2          7           0       -4.053086   -0.016554    0.255613
      3          6           0       -3.368479   -1.253034    0.628617
      4          6           0       -2.079054   -0.949256    1.392882
      5          6           0       -1.122665   -0.048907    0.589266
      6          6           0       -1.905410    1.192826    0.116098
      7          6           0       -3.209275    0.819642   -0.593801
      8          6           0       -0.448016   -0.813822   -0.561849
      9          6           0        0.744684   -0.094182   -1.199155
     10          7           0        1.877655    0.053922   -0.281342
     11          6           0        2.250340    1.213064    0.411648
     12          6           0        3.373774    0.908201    1.113574
     13          7           0        3.665540   -0.418531    0.855982
     14          6           0        2.759228   -0.969162   -0.016642
     15         16           0        2.771824   -2.533511   -0.622017
     16          6           0        1.520045    2.512260    0.343571
     17          8           0        1.410227    3.038592   -0.978733
     18          1           0       -5.240603   -0.853082   -1.323118
     19          1           0       -5.963952   -0.870509    0.306043
     20          1           0       -5.845985    0.655950   -0.591943
     21          1           0       -4.044111   -1.839348    1.262454
     22          1           0       -3.148934   -1.876802   -0.262380
     23          1           0       -1.579494   -1.887717    1.662058
     24          1           0       -2.349895   -0.440251    2.326194
     25          1           0       -0.328160    0.276410    1.275198
     26          1           0       -1.301542    1.816681   -0.553765
     27          1           0       -2.158119    1.807588    0.989201
     28          1           0       -2.988906    0.317986   -1.559179
     29          1           0       -3.766278    1.731744   -0.838490
     30          1           0       -0.096901   -1.788350   -0.205271
     31          1           0       -1.166832   -1.020037   -1.363312
     32          1           0        1.111040   -0.681729   -2.045408
     33          1           0        0.491200    0.905878   -1.553355
     34          1           0        3.967926    1.518500    1.775328
     35          1           0        4.439957   -0.956926    1.213536
     36          1           0        0.488713    2.408908    0.689584
     37          1           0        2.023784    3.218459    1.019838
     38          1           0        2.305403    3.071735   -1.353075
 ---------------------------------------------------------------------

 SCF Done:  E(UB3LYP) =  -1107.88667566     A.U. after   31 cycles

 The electronic state is 2-A.
 Alpha  occ. eigenvalues --  -88.69046 -19.03897 -14.28199 -14.27839 -14.22728
 Alpha  occ. eigenvalues --  -10.18101 -10.14185 -10.12462 -10.12056 -10.12027
 Alpha  occ. eigenvalues --  -10.11263 -10.11212 -10.11186 -10.09051 -10.08372
 Alpha  occ. eigenvalues --  -10.08260 -10.08104  -7.77798  -5.74250  -5.73568
 Alpha  occ. eigenvalues --   -5.73350  -0.95325  -0.93762  -0.85275  -0.83311
 Alpha  occ. eigenvalues --   -0.73637  -0.71318  -0.67586  -0.67199  -0.62966
 Alpha  occ. eigenvalues --   -0.61851  -0.59120  -0.56596  -0.54864  -0.52965
 Alpha  occ. eigenvalues --   -0.52056  -0.49258  -0.45841  -0.44977  -0.42175
 Alpha  occ. eigenvalues --   -0.40382  -0.39489  -0.38751  -0.38419  -0.38178
 Alpha  occ. eigenvalues --   -0.37559  -0.36648  -0.35467  -0.35395  -0.34284
 Alpha  occ. eigenvalues --   -0.33810  -0.31775  -0.31355  -0.30660  -0.29569
 Alpha  occ. eigenvalues --   -0.28596  -0.27746  -0.27618  -0.26737  -0.26176
 Alpha  occ. eigenvalues --   -0.23917  -0.23257  -0.23005  -0.21097  -0.20086
 Alpha  occ. eigenvalues --   -0.18816  -0.14353  -0.11953  -0.10199   0.03668
 Alpha virt. eigenvalues --    0.04995   0.06479   0.06932   0.07091   0.07635
 Alpha virt. eigenvalues --    0.08218   0.09238   0.09370   0.09753   0.09929
 Alpha virt. eigenvalues --    0.10152   0.10370   0.10876   0.11317   0.12157

  Beta  occ. eigenvalues --  -88.69044 -19.03853 -14.28181 -14.27821 -14.22724
  Beta  occ. eigenvalues --  -10.18093 -10.14156 -10.12465 -10.12021 -10.12001
  Beta  occ. eigenvalues --  -10.11257 -10.11197 -10.11178 -10.09049 -10.08368
  Beta  occ. eigenvalues --  -10.08252 -10.08101  -7.77796  -5.74249  -5.73565
  Beta  occ. eigenvalues --   -5.73349  -0.95284  -0.93674  -0.85265  -0.83272
  Beta  occ. eigenvalues --   -0.73624  -0.71278  -0.67571  -0.67178  -0.62914
  Beta  occ. eigenvalues --   -0.61814  -0.59072  -0.56554  -0.54845  -0.52935
  Beta  occ. eigenvalues --   -0.52011  -0.49219  -0.45777  -0.44956  -0.42148
  Beta  occ. eigenvalues --   -0.40283  -0.39452  -0.38736  -0.38376  -0.38143
  Beta  occ. eigenvalues --   -0.37538  -0.36606  -0.35427  -0.35341  -0.34255
  Beta  occ. eigenvalues --   -0.33795  -0.31756  -0.31337  -0.30645  -0.29550
  Beta  occ. eigenvalues --   -0.28578  -0.27728  -0.27604  -0.26726  -0.26128
  Beta  occ. eigenvalues --   -0.23904  -0.23241  -0.22992  -0.21069  -0.20037
  Beta  occ. eigenvalues --   -0.18756  -0.14329  -0.11947  -0.10159
  Beta virt. eigenvalues --    0.05180   0.06563   0.06837   0.07218   0.07596
  Beta virt. eigenvalues --    0.08116   0.08812   0.09278   0.09554   0.09947
  Beta virt. eigenvalues --    0.10018   0.10156   0.10648   0.10963   0.11696

 Mulliken charges and spin densities:
               1          2
     1  C    0.087546  -0.322842
     2  N    0.066467   0.072962
     3  C   -0.321302  -0.103316
     4  C   -0.276845  -0.224158
     5  C    0.382162   0.354331
     6  C   -0.320506  -0.146589
     7  C   -0.558921  -0.116828
     8  C   -0.113981  -0.136377
     9  C   -0.660168  -0.196199
    10  N    0.317413   0.104158
    11  C   -1.400385   1.667928
    12  C    1.411378  -1.436202
    13  N   -0.041237  -0.004875
    14  C    0.342509  -0.167411
    15  S   -0.452830  -0.288834
    16  C    1.548723  -2.578957
    17  O   -0.157871   0.028006
    18  H    0.049173   0.059174
    19  H   -0.075193   0.196453
    20  H   -0.045710   0.165373
    21  H    0.085081   0.102511
    22  H    0.096075   0.022164
    23  H    0.077894   0.072124
    24  H    0.068047   0.094003
    25  H    0.188399   0.046099
    26  H    0.064859   0.063639
    27  H    0.084941   0.101543
    28  H    0.025624   0.086220
    29  H    0.056510   0.133015
    30  H    0.155838  -0.004680
    31  H    0.150031  -0.033732
    32  H    0.036113   0.138884
    33  H    0.364877  -0.169312
    34  H   -1.841722   2.052753
    35  H   -0.003106   0.358042
    36  H    0.130541   0.061641
    37  H   -0.405603   0.572565
    38  H   -0.114821   0.376724
 Sum of Mulliken charges =  -1.00000   1.00000

 Dipole moment (field-independent basis, Debye):
    X=             -8.5353    Y=             -3.0118    Z=             -2.2521  Tot=              9.3271
 Quadrupole moment (field-independent basis, Debye-Ang):
   XX=           -209.5114   YY=           -173.1156   ZZ=           -148.5979
   XY=             -7.6655   XZ=             -9.8403   YZ=             -6.9593

 Summary of Natural Population Analysis:

                                       Natural Population
                Natural  -----------------------------------------------
    Atom  No    Charge         Core      Valence    Rydberg      Total
 -----------------------------------------------------------------------
      C    1   -0.17348      0.99965     2.16700    0.00682     3.17348
      N    2   -0.28104      0.99971     2.76880    0.01253     3.78104
      C    3   -0.08335      0.99962     2.07439    0.00934     3.08335
      C    4   -0.18954      0.99961     2.18177    0.00816     3.18954
      C    5   -0.11481      0.99958     2.10481    0.01041     3.11481
      C    6   -0.19975      0.99961     2.19043    0.00971     3.19975
      C    7   -0.08568      0.99961     2.07348    0.01259     3.08568
      C    8   -0.19913      0.99960     2.19167    0.00786     3.19913
      C    9   -0.08992      0.99960     2.07944    0.01088     3.08992
      N   10   -0.22310      0.99958     2.70940    0.01412     3.72310
      C   11    0.04681      0.99949     1.93929    0.01441     2.95319
      C   12   -0.00605      0.99947     1.99357    0.01302     3.00605
      N   13   -0.27871      0.99965     2.76707    0.01199     3.77871
      C   14    0.13027      0.99961     1.84829    0.02183     2.86973
      S   15   -0.16317      4.99960     3.15015    0.01341     8.16317
      C   16   -0.02924      0.99954     2.01640    0.01330     3.02924
      O   17   -0.36699      0.99990     3.36049    0.00660     4.36699
      H   18    0.07811      0.00000     0.42002    0.00187     0.42189
      H   19    0.09408      0.00000     0.40466    0.00126     0.40592
      H   20    0.09472      0.00000     0.40402    0.00126     0.40528
      H   21    0.09538      0.00000     0.40329    0.00132     0.40462
      H   22    0.07857      0.00000     0.41992    0.00151     0.42143
      H   23    0.10145      0.00000     0.39763    0.00092     0.39855
      H   24    0.09990      0.00000     0.39876    0.00135     0.40010
      H   25    0.10180      0.00000     0.39621    0.00199     0.39820
      H   26    0.10505      0.00000     0.39386    0.00110     0.39495
      H   27    0.10066      0.00000     0.39768    0.00166     0.39934
      H   28    0.07752      0.00000     0.42105    0.00144     0.42248
      H   29    0.09734      0.00000     0.40157    0.00109     0.40266
      H   30    0.11164      0.00000     0.38712    0.00124     0.38836
      H   31    0.09851      0.00000     0.40039    0.00111     0.40149
      H   32    0.11171      0.00000     0.38727    0.00102     0.38829
      H   33    0.11066      0.00000     0.38765    0.00169     0.38934
      H   34    0.11737      0.00000     0.36921    0.01342     0.38263
      H   35    0.21164      0.00000     0.28526    0.00310     0.28836
      H   36    0.09362      0.00000     0.40400    0.00238     0.40638
      H   37    0.09400      0.00000     0.40364    0.00236     0.40600
      H   38    0.23314      0.00000     0.26111    0.00574     0.26686
 =======================================================================
   * Total *    0.00000     20.99344    47.76077    0.24579    69.00000

 Normal termination of Gaussian 16 at Sun Dec 13 13:43:38 2020.
