 Gaussian 16, Revision A.03,

 -----------------------------------------------------------
 # opt freq B3LYP/6-31G(d) empiricaldispersion=gd3bj scf=xqc
 -----------------------------------------------------------

 -------------------------------
 CID_112519728_JID_9180_neutraal
 -------------------------------
 Symbolic Z-matrix:
 Charge =  0 Multiplicity = 1

 SCF Done:  E(RB3LYP) =  -916.705534676     A.U. after   15 cycles
 SCF Done:  E(RB3LYP) =  -916.710757937     A.U. after   13 cycles
 SCF Done:  E(RB3LYP) =  -916.712474741     A.U. after   13 cycles
 SCF Done:  E(RB3LYP) =  -916.712622625     A.U. after   13 cycles
 SCF Done:  E(RB3LYP) =  -916.713781648     A.U. after   13 cycles
 SCF Done:  E(RB3LYP) =  -916.713916138     A.U. after   12 cycles
 SCF Done:  E(RB3LYP) =  -916.713965494     A.U. after   12 cycles
 SCF Done:  E(RB3LYP) =  -916.714076848     A.U. after   11 cycles
 SCF Done:  E(RB3LYP) =  -916.714104446     A.U. after   11 cycles
 SCF Done:  E(RB3LYP) =  -916.714113904     A.U. after   11 cycles
 SCF Done:  E(RB3LYP) =  -916.714370844     A.U. after    9 cycles
 SCF Done:  E(RB3LYP) =  -916.714372115     A.U. after    9 cycles
 SCF Done:  E(RB3LYP) =  -916.714372827     A.U. after    9 cycles
 SCF Done:  E(RB3LYP) =  -916.714373121     A.U. after    9 cycles
 SCF Done:  E(RB3LYP) =  -916.714373163     A.U. after    7 cycles
 Optimization completed.
    -- Stationary point found.
 Normal termination of Gaussian 16 at Sun Dec 13 12:50:14 2020.

 --------------------------------------------------------------------
 #N Geom=AllCheck Guess=TCheck SCRF=Check GenChk RB3LYP/6-31G(d) Freq
 --------------------------------------------------------------------

 Structure from the checkpoint file:  "JID_9180.chk"
 -------------------------------
 CID_112519728_JID_9180_neutraal
 -------------------------------
 Charge =  0 Multiplicity = 1

 SCF Done:  E(RB3LYP) =  -916.714373163     A.U. after    1 cycles

  Exact polarizability: 204.886  -6.515 167.496 -22.223 -15.030 110.023
 Approx polarizability: 278.304  -7.139 273.068 -46.869 -37.939 186.421

                      1                      2                      3
                      A                      A                      A
 Frequencies --     10.1009                32.7848                34.5767
 Red. masses --      5.0090                 5.2852                 4.2259
 Frc consts  --      0.0003                 0.0033                 0.0030
 IR Inten    --      0.9320                 1.0129                 0.8870

                      4                      5                      6
                      A                      A                      A
 Frequencies --     66.5760                66.6736                76.7195
 Red. masses --      3.4369                 6.2492                 4.1464
 Frc consts  --      0.0090                 0.0164                 0.0144
 IR Inten    --      1.1469                 0.4085                 0.0627

                      7                      8                      9
                      A                      A                      A
 Frequencies --     82.4018                95.2077               120.7423
 Red. masses --      3.6345                 4.4297                 3.9223
 Frc consts  --      0.0145                 0.0237                 0.0337
 IR Inten    --      1.5605                 2.4241                 1.8810

                     10                     11                     12
                      A                      A                      A
 Frequencies --    150.4171               202.5578               226.8012
 Red. masses --      3.6161                 4.3315                 1.1212
 Frc consts  --      0.0482                 0.1047                 0.0340
 IR Inten    --      1.0980                 0.4363                 0.0500

                     13                     14                     15
                      A                      A                      A
 Frequencies --    245.2744               250.6027               261.3276
 Red. masses --      3.1815                 1.5759                 2.9852
 Frc consts  --      0.1128                 0.0583                 0.1201
 IR Inten    --      7.2245                 6.4528                 4.9003

                     16                     17                     18
                      A                      A                      A
 Frequencies --    322.9372               327.2130               341.2584
 Red. masses --      3.1087                 2.4576                 3.7885
 Frc consts  --      0.1910                 0.1550                 0.2599
 IR Inten    --      1.2301                 0.9230                 2.5164

                     19                     20                     21
                      A                      A                      A
 Frequencies --    368.1087               386.1553               414.2864
 Red. masses --      4.4966                 4.1372                 2.4403
 Frc consts  --      0.3590                 0.3635                 0.2468
 IR Inten    --     17.2293                 9.3161                 4.1656

                     22                     23                     24
                      A                      A                      A
 Frequencies --    415.9594               424.4815               455.8624
 Red. masses --      1.5267                 3.3115                 2.8393
 Frc consts  --      0.1556                 0.3516                 0.3476
 IR Inten    --     96.7669                42.6672                 7.0399

                     25                     26                     27
                      A                      A                      A
 Frequencies --    470.2531               503.5922               518.6664
 Red. masses --      2.6387                 2.9794                 1.4425
 Frc consts  --      0.3438                 0.4452                 0.2286
 IR Inten    --     42.1107                32.8201               116.7240

                     28                     29                     30
                      A                      A                      A
 Frequencies --    546.0036               582.7831               586.3781
 Red. masses --      4.7313                 4.1323                 1.3783
 Frc consts  --      0.8310                 0.8269                 0.2792
 IR Inten    --      5.7269                12.7804                71.3864

                     31                     32                     33
                      A                      A                      A
 Frequencies --    592.8104               600.8562               674.4990
 Red. masses --      3.5256                 4.3590                 4.2221
 Frc consts  --      0.7300                 0.9272                 1.1317
 IR Inten    --     42.4694                15.3734                18.1999

                     34                     35                     36
                      A                      A                      A
 Frequencies --    697.1533               713.4957               727.8479
 Red. masses --      3.6680                 2.9442                 3.3843
 Frc consts  --      1.0504                 0.8831                 1.0563
 IR Inten    --      7.9930                34.0767                13.6129

                     37                     38                     39
                      A                      A                      A
 Frequencies --    749.5621               763.5566               775.2061
 Red. masses --      3.5265                 5.5031                 3.7208
 Frc consts  --      1.1674                 1.8903                 1.3174
 IR Inten    --      8.9081                14.3117                31.4926

                     40                     41                     42
                      A                      A                      A
 Frequencies --    799.1251               808.3510               826.8557
 Red. masses --      1.2336                 1.1424                 1.7641
 Frc consts  --      0.4642                 0.4398                 0.7106
 IR Inten    --     11.9249                 4.6684                 0.6458

                     43                     44                     45
                      A                      A                      A
 Frequencies --    858.5972               932.4975               960.1685
 Red. masses --      1.7526                 2.4079                 2.1760
 Frc consts  --      0.7612                 1.2336                 1.1820
 IR Inten    --     31.4652                 0.4899                 5.5645

                     46                     47                     48
                      A                      A                      A
 Frequencies --    978.5149               981.3834              1020.5354
 Red. masses --      1.4065                 3.2714                 2.5377
 Frc consts  --      0.7935                 1.8564                 1.5572
 IR Inten    --      0.2557                 8.9184                31.3147

                     49                     50                     51
                      A                      A                      A
 Frequencies --   1046.1403              1055.7921              1097.6946
 Red. masses --      3.9952                 2.2351                 4.3119
 Frc consts  --      2.5762                 1.4679                 3.0611
 IR Inten    --     80.9849                22.8919                35.7728

                     52                     53                     54
                      A                      A                      A
 Frequencies --   1102.0192              1113.8488              1115.4305
 Red. masses --      1.9668                 1.9143                 1.7690
 Frc consts  --      1.4073                 1.3993                 1.2968
 IR Inten    --      7.2833               189.4741                 8.8715

                     55                     56                     57
                      A                      A                      A
 Frequencies --   1130.9452              1162.7845              1193.1113
 Red. masses --      1.7065                 1.2544                 1.9603
 Frc consts  --      1.2860                 0.9993                 1.6441
 IR Inten    --     16.7692                56.3043                52.4083

                     58                     59                     60
                      A                      A                      A
 Frequencies --   1218.3417              1222.8613              1263.7192
 Red. masses --      2.0013                 2.0173                 2.6309
 Frc consts  --      1.7502                 1.7774                 2.4755
 IR Inten    --     38.9784               242.0177                23.9103

                     61                     62                     63
                      A                      A                      A
 Frequencies --   1283.5544              1307.3266              1323.4545
 Red. masses --      1.3457                 2.3745                 1.6955
 Frc consts  --      1.3063                 2.3910                 1.7498
 IR Inten    --     35.6721               118.3952                72.6598

                     64                     65                     66
                      A                      A                      A
 Frequencies --   1328.6321              1356.7496              1364.9413
 Red. masses --      1.3168                 1.3286                 2.4159
 Frc consts  --      1.3696                 1.4409                 2.6519
 IR Inten    --     44.0869                16.9804                35.6268

                     67                     68                     69
                      A                      A                      A
 Frequencies --   1393.0461              1398.7396              1405.6728
 Red. masses --      1.5629                 1.3525                 3.1116
 Frc consts  --      1.7870                 1.5590                 3.6224
 IR Inten    --      7.5159                 6.1319                 8.6780

                     70                     71                     72
                      A                      A                      A
 Frequencies --   1420.4641              1432.9780              1441.1435
 Red. masses --      1.2766                 1.2901                 1.2548
 Frc consts  --      1.5176                 1.5608                 1.5355
 IR Inten    --      9.1413                 3.3353                 9.2695

                     73                     74                     75
                      A                      A                      A
 Frequencies --   1483.9492              1501.5641              1509.9158
 Red. masses --      2.1680                 4.2939                 1.1622
 Frc consts  --      2.8128                 5.7042                 1.5611
 IR Inten    --     98.1257                88.9071                12.2418

                     76                     77                     78
                      A                      A                      A
 Frequencies --   1513.4206              1520.5857              1522.9969
 Red. masses --      1.1655                 1.0454                 1.0466
 Frc consts  --      1.5728                 1.4242                 1.4303
 IR Inten    --      7.2324                 2.3245                 7.9076

                     79                     80                     81
                      A                      A                      A
 Frequencies --   1529.3624              1532.0497              1548.7122
 Red. masses --      1.0697                 1.0801                 2.4597
 Frc consts  --      1.4742                 1.4936                 3.4760
 IR Inten    --      1.4387                14.3717                23.8365

                     82                     83                     84
                      A                      A                      A
 Frequencies --   1554.1765              1618.5173              1671.8605
 Red. masses --      1.1102                 5.5415                 3.4633
 Frc consts  --      1.5800                 8.5529                 5.7035
 IR Inten    --      3.7273                65.0783               219.6293

                     85                     86                     87
                      A                      A                      A
 Frequencies --   1690.8812              1760.7815              1810.3242
 Red. masses --      1.4645                 9.7081                 9.1835
 Frc consts  --      2.4669                17.7335                17.7326
 IR Inten    --    207.0299               249.5585               403.8488

                     88                     89                     90
                      A                      A                      A
 Frequencies --   3044.0010              3052.0102              3054.7709
 Red. masses --      1.0395                 1.0416                 1.0654
 Frc consts  --      5.6748                 5.7162                 5.8577
 IR Inten    --     16.3384                13.0822                33.7937

                     91                     92                     93
                      A                      A                      A
 Frequencies --   3076.1951              3082.3266              3106.3998
 Red. masses --      1.0669                 1.0567                 1.0984
 Frc consts  --      5.9485                 5.9153                 6.2446
 IR Inten    --     33.0648                32.7918                30.2903

                     94                     95                     96
                      A                      A                      A
 Frequencies --   3120.4631              3124.3274              3138.7454
 Red. masses --      1.1014                 1.1025                 1.1100
 Frc consts  --      6.3187                 6.3405                 6.4429
 IR Inten    --     22.3586                36.1276                19.3463

                     97                     98                     99
                      A                      A                      A
 Frequencies --   3139.3516              3150.8793              3161.2656
 Red. masses --      1.0988                 1.1024                 1.0937
 Frc consts  --      6.3805                 6.4486                 6.4396
 IR Inten    --     21.3453                15.5655                 9.2204

                    100                    101                    102
                      A                      A                      A
 Frequencies --   3218.2423              3219.1218              3234.5090
 Red. masses --      1.0902                 1.0887                 1.0944
 Frc consts  --      6.6525                 6.6473                 6.7461
 IR Inten    --      8.4411                 2.4898                 3.2626

                    103                    104                    105
                      A                      A                      A
 Frequencies --   3585.6763              3694.9098              3700.7230
 Red. masses --      1.0461                 1.0738                 1.0918
 Frc consts  --      7.9247                 8.6371                 8.8095
 IR Inten    --     56.2014               140.7823                 7.5851

 - Thermochemistry -
 -------------------
 Temperature   298.150 Kelvin.  Pressure   1.00000 Atm.
 Atom     1 has atomic number  6 and mass  12.00000

 Molecular mass:   266.12666 amu.
 Principal axes and moments of inertia in atomic units:
                           1         2         3
     Eigenvalues --  2528.735788536.685749596.00364
           X            0.99997   0.00446  -0.00697
           Y           -0.00450   0.99998  -0.00461
           Z            0.00695   0.00465   0.99997
 This molecule is an asymmetric top.
 Rotational symmetry number  1.
 Warning -- assumption of classical behavior for rotation
           may cause significant error
 Rotational temperatures (Kelvin)      0.03425     0.01015     0.00903
 Rotational constants (GHZ):           0.71369     0.21141     0.18807
 Zero-point vibrational energy     806881.9 (Joules/Mol)
                                  192.84941 (Kcal/Mol)
 Warning -- explicit consideration of  32 degrees of freedom as
           vibrations may cause significant error
 Vibrational temperatures:     14.53    47.17    49.75    95.79    95.93
          (Kelvin)            110.38   118.56   136.98   173.72   216.42
                              291.44   326.32   352.90   360.56   375.99
                              464.63   470.79   490.99   529.63   555.59
                              596.07   598.47   610.73   655.88   676.59
                              724.56   746.25   785.58   838.49   843.67
                              852.92   864.50   970.45  1003.05  1026.56
                             1047.21  1078.45  1098.59  1115.35  1149.76
                             1163.04  1189.66  1235.33  1341.66  1381.47
                             1407.86  1411.99  1468.32  1505.16  1519.05
                             1579.34  1585.56  1602.58  1604.86  1627.18
                             1672.99  1716.62  1752.92  1759.42  1818.21
                             1846.75  1880.95  1904.16  1911.61  1952.06
                             1963.85  2004.28  2012.47  2022.45  2043.73
                             2061.74  2073.48  2135.07  2160.42  2172.43
                             2177.47  2187.78  2191.25  2200.41  2204.28
                             2228.25  2236.11  2328.69  2405.43  2432.80
                             2533.37  2604.65  4379.64  4391.16  4395.13
                             4425.96  4434.78  4469.42  4489.65  4495.21
                             4515.95  4516.83  4533.41  4548.36  4630.33
                             4631.60  4653.74  5158.99  5316.15  5324.52

 Zero-point correction=                           0.307325 (Hartree/Particle)
 Thermal correction to Energy=                    0.326686
 Thermal correction to Enthalpy=                  0.327630
 Thermal correction to Gibbs Free Energy=         0.257168
 Sum of electronic and zero-point Energies=           -916.407048
 Sum of electronic and thermal Energies=              -916.387687
 Sum of electronic and thermal Enthalpies=            -916.386743
 Sum of electronic and thermal Free Energies=         -916.457205

                     E (Thermal)             CV                S
                      KCal/Mol        Cal/Mol-Kelvin    Cal/Mol-Kelvin
 Total                  204.999             72.335            148.300
 Electronic               0.000              0.000              0.000
 Translational            0.889              2.981             42.636
 Rotational               0.889              2.981             33.693
 Vibrational            203.221             66.374             71.971
 Vibration     1          0.593              1.987              7.991
 Vibration     2          0.594              1.983              5.653
 Vibration     3          0.594              1.983              5.548
 Vibration     4          0.598              1.970              4.252
 Vibration     5          0.598              1.970              4.249
 Vibration     6          0.599              1.965              3.973
 Vibration     7          0.600              1.961              3.833
 Vibration     8          0.603              1.953              3.550
 Vibration     9          0.609              1.932              3.088
 Vibration    10          0.618              1.902              2.667
 Vibration    11          0.639              1.836              2.110
 Vibration    12          0.650              1.800              1.904
 Vibration    13          0.660              1.771              1.764
 Vibration    14          0.663              1.762              1.726
 Vibration    15          0.669              1.744              1.653
 Vibration    16          0.708              1.630              1.295
 Vibration    17          0.711              1.621              1.274
 Vibration    18          0.721              1.593              1.206
 Vibration    19          0.741              1.538              1.088
 Vibration    20          0.755              1.500              1.015
 Vibration    21          0.778              1.439              0.912
 Vibration    22          0.779              1.436              0.906
 Vibration    23          0.786              1.417              0.877
 Vibration    24          0.814              1.348              0.778
 Vibration    25          0.827              1.316              0.737
 Vibration    26          0.859              1.242              0.649
 Vibration    27          0.874              1.209              0.613
 Vibration    28          0.901              1.148              0.553
 Vibration    29          0.940              1.069              0.480
 Vibration    30          0.943              1.061              0.474
 Vibration    31          0.950              1.047              0.462
 Vibration    32          0.959              1.030              0.448

                           ! Non-Optimized Parameters !
 Normal termination of Gaussian 16 at Sun Dec 13 13:09:02 2020.

 ----------------------------------------------------------------------
 # B3LYP/6-311++G(d,p) empiricaldispersion=gd3bj scf=xqc pop=npa geom=c
 heck
 ----------------------------------------------------------------------

 ---------------------------------------
 CID_112519728_JID_9180_Energie_neutraal
 ---------------------------------------
 Structure from the checkpoint file:  "JID_9180.chk"
 Charge =  0 Multiplicity = 1

 SCF Done:  E(RB3LYP) =  -916.987871196     A.U. after   15 cycles
 Normal termination of Gaussian 16 at Sun Dec 13 13:17:18 2020.

 ----------------------------------------------------------------------
 # B3LYP/6-311++G(d,p) empiricaldispersion=gd3bj scf=xqc pop=npa geom=c
 heck
 ----------------------------------------------------------------------

 -------------------------------------
 CID_112519728_JID_9180_Energie_kation
 -------------------------------------
 Structure from the checkpoint file:  "JID_9180.chk"
 Charge =  1 Multiplicity = 2

 SCF Done:  E(UB3LYP) =  -916.699985356     A.U. after   27 cycles
 Normal termination of Gaussian 16 at Sun Dec 13 13:38:52 2020.
 Gaussian 16:  ES64L-G16RevA.03 25-Dec-2016

 ----------------------------------------------------------------------
 # B3LYP/6-311++G(d,p) empiricaldispersion=gd3bj scf=xqc pop=npa geom=c
 heck
 ----------------------------------------------------------------------

 ------------------------------------
 CID_112519728_JID_9180_Energie_anion
 ------------------------------------
 Structure from the checkpoint file:  "JID_9180.chk"
 Charge = -1 Multiplicity = 2

                         Standard orientation:
 ---------------------------------------------------------------------
 Center     Atomic      Atomic             Coordinates (Angstroms)
 Number     Number       Type             X           Y           Z
 ---------------------------------------------------------------------
      1          6           0        1.672253    2.618853    0.612031
      2          6           0        2.887840    1.737362    0.907354
      3          7           0        2.763760    0.412599    0.295834
      4          6           0        3.350189    0.215938   -1.030084
      5          6           0        4.842304   -0.120159   -0.975009
      6          6           0        2.123268   -0.556796    1.015410
      7          8           0        1.711739   -0.369228    2.156960
      8          6           0        1.886459   -1.915546    0.337920
      9          8           0        1.065223   -1.812765   -0.833582
     10          6           0       -0.200871   -1.311469   -0.588334
     11          6           0       -0.466898    0.001617   -0.932077
     12          6           0       -1.737129    0.572370   -0.708271
     13          6           0       -2.745040   -0.249515   -0.129934
     14          6           0       -2.439733   -1.587913    0.187617
     15          6           0       -1.187835   -2.131768   -0.025631
     16          6           0       -4.116944    0.176734    0.195426
     17          8           0       -4.990090   -0.539641    0.646794
     18          8           0       -4.376678    1.504093   -0.038325
     19          7           0       -1.938903    1.876242   -1.095227
     20          1           0        1.550382    2.772600   -0.467605
     21          1           0        1.784303    3.602044    1.082536
     22          1           0        0.767471    2.144925    1.003216
     23          1           0        3.804966    2.200358    0.528347
     24          1           0        2.995501    1.599746    1.984597
     25          1           0        2.793627   -0.561928   -1.552829
     26          1           0        3.195070    1.140992   -1.598834
     27          1           0        5.008383   -1.063520   -0.443555
     28          1           0        5.250831   -0.219896   -1.986859
     29          1           0        5.407595    0.661019   -0.455344
     30          1           0        2.817946   -2.378863    0.000786
     31          1           0        1.414938   -2.552702    1.091316
     32          1           0        0.321293    0.601102   -1.373537
     33          1           0       -3.235396   -2.184113    0.619939
     34          1           0       -0.963476   -3.162679    0.223945
     35          1           0       -5.306034    1.629086    0.228684
     36          1           0       -2.758141    2.346557   -0.739315
     37          1           0       -1.111988    2.445464   -1.203016
 ---------------------------------------------------------------------

 SCF Done:  E(UB3LYP) =  -916.989414505     A.U. after   33 cycles
 SCF Done:  E(UB3LYP) =  -916.989414505     a.u. after    1 cycles

 The electronic state is 2-A.
 Alpha  occ. eigenvalues --  -19.05428 -19.03839 -18.98994 -18.97679 -14.24609
 Alpha  occ. eigenvalues --  -14.21050 -10.17148 -10.16591 -10.13099 -10.11389
 Alpha  occ. eigenvalues --  -10.11056 -10.10819 -10.10306 -10.07482 -10.07277
 Alpha  occ. eigenvalues --  -10.05493 -10.05116 -10.04810 -10.04807  -0.98761
 Alpha  occ. eigenvalues --   -0.95778  -0.93637  -0.89115  -0.84255  -0.81669
 Alpha  occ. eigenvalues --   -0.72501  -0.68353  -0.66258  -0.64656  -0.62003
 Alpha  occ. eigenvalues --   -0.61171  -0.55306  -0.54989  -0.53045  -0.50123
 Alpha  occ. eigenvalues --   -0.47765  -0.44587  -0.44020  -0.42286  -0.40746
 Alpha  occ. eigenvalues --   -0.40157  -0.38636  -0.37191  -0.36546  -0.35984
 Alpha  occ. eigenvalues --   -0.35510  -0.34154  -0.33864  -0.33394  -0.33012
 Alpha  occ. eigenvalues --   -0.31662  -0.31279  -0.30923  -0.30105  -0.29040
 Alpha  occ. eigenvalues --   -0.28349  -0.27853  -0.27374  -0.26661  -0.26425
 Alpha  occ. eigenvalues --   -0.25603  -0.25270  -0.24545  -0.21637  -0.19794
 Alpha  occ. eigenvalues --   -0.18704  -0.16148  -0.15515  -0.15033  -0.13368
 Alpha  occ. eigenvalues --   -0.10076   0.03800
 Alpha virt. eigenvalues --    0.05393   0.06581   0.07562   0.07912   0.08427
 Alpha virt. eigenvalues --    0.09299   0.09732   0.10002   0.10339   0.10722
 Alpha virt. eigenvalues --    0.11246   0.11790   0.11873   0.12909   0.13201

  Beta  occ. eigenvalues --  -19.05366 -19.03838 -18.98991 -18.97498 -14.24608
  Beta  occ. eigenvalues --  -14.21020 -10.17148 -10.16367 -10.13053 -10.11375
  Beta  occ. eigenvalues --  -10.11042 -10.10732 -10.10021 -10.07442 -10.07267
  Beta  occ. eigenvalues --  -10.05453 -10.04949 -10.04879 -10.04818  -0.98534
  Beta  occ. eigenvalues --   -0.95696  -0.93607  -0.88829  -0.84245  -0.81563
  Beta  occ. eigenvalues --   -0.72288  -0.68317  -0.66146  -0.64442  -0.61847
  Beta  occ. eigenvalues --   -0.61037  -0.55239  -0.54862  -0.52746  -0.50021
  Beta  occ. eigenvalues --   -0.47592  -0.44542  -0.43943  -0.42153  -0.40692
  Beta  occ. eigenvalues --   -0.40075  -0.38503  -0.37054  -0.36440  -0.35932
  Beta  occ. eigenvalues --   -0.35390  -0.34093  -0.33831  -0.32910  -0.32470
  Beta  occ. eigenvalues --   -0.31596  -0.31213  -0.30860  -0.30003  -0.28963
  Beta  occ. eigenvalues --   -0.28292  -0.27625  -0.27330  -0.26560  -0.26208
  Beta  occ. eigenvalues --   -0.25578  -0.25120  -0.24409  -0.20935  -0.19229
  Beta  occ. eigenvalues --   -0.18673  -0.15976  -0.15371  -0.15020  -0.12511
  Beta  occ. eigenvalues --   -0.09664
  Beta virt. eigenvalues --    0.06066   0.06840   0.07627   0.08176   0.08232
  Beta virt. eigenvalues --    0.08708   0.09444   0.09794   0.10307   0.10496
  Beta virt. eigenvalues --    0.10785   0.11465   0.11847   0.11979   0.12940

 Mulliken charges and spin densities:
               1          2
     1  C   -0.294418  -0.263517
     2  C    0.132717  -0.253646
     3  N    0.179874  -0.003965
     4  C   -1.128851   0.943215
     5  C    1.325427  -1.919769
     6  C   -0.185477   0.139644
     7  O   -0.260666  -0.004264
     8  C    0.038459  -0.441766
     9  O   -0.079257   0.014050
    10  C   -0.241835  -0.002189
    11  C   -0.253979   0.165583
    12  C   -0.201432   0.190083
    13  C    0.640473  -0.034277
    14  C   -0.542219   0.113838
    15  C   -0.066029  -0.171422
    16  C    0.039687   0.132515
    17  O   -0.403381   0.065991
    18  O   -0.289421   0.008807
    19  N   -0.341519   0.029163
    20  H    0.064946   0.079753
    21  H   -0.006265   0.135794
    22  H    0.204145   0.010827
    23  H   -0.175941   0.305464
    24  H    0.158641   0.020874
    25  H    0.235415  -0.002361
    26  H   -0.255923   0.411173
    27  H   -0.099913   0.234261
    28  H   -0.324295   0.465953
    29  H   -0.157106   0.304539
    30  H   -0.086443   0.234576
    31  H    0.214812  -0.030637
    32  H    0.077026   0.081386
    33  H    0.185048  -0.012533
    34  H    0.118338   0.025447
    35  H    0.290753   0.002507
    36  H    0.281807   0.014891
    37  H    0.206803   0.010011
 Sum of Mulliken charges =  -1.00000   1.00000

 Dipole moment (field-independent basis, Debye):
    X=             -0.3186    Y=              1.9961    Z=              0.1096  Tot=              2.0244
 Quadrupole moment (field-independent basis, Debye-Ang):
   XX=           -200.8390   YY=           -132.0816   ZZ=           -145.1718
   XY=            -15.1174   XZ=              8.7186   YZ=              0.5155

 Summary of Natural Population Analysis:

                                       Natural Population
                Natural  -----------------------------------------------
    Atom  No    Charge         Core      Valence    Rydberg      Total
 -----------------------------------------------------------------------
      C    1   -0.29335      0.99966     2.28737    0.00633     3.29335
      C    2   -0.08721      0.99962     2.07683    0.01076     3.08721
      N    3   -0.25691      0.99963     2.74431    0.01296     3.75691
      C    4   -0.09136      0.99961     2.08074    0.01101     3.09136
      C    5   -0.28923      0.99966     2.28480    0.00477     3.28923
      C    6    0.32971      0.99964     1.64719    0.02346     2.67029
      O    7   -0.32158      0.99988     3.31660    0.00510     4.32158
      C    8   -0.04416      0.99953     2.03277    0.01186     3.04416
      O    9   -0.29354      0.99987     3.28424    0.00944     4.29354
      C   10    0.21080      0.99936     1.77574    0.01409     2.78920
      C   11   -0.15854      0.99947     2.15021    0.00885     3.15854
      C   12    0.12635      0.99951     1.86358    0.01057     2.87365
      C   13   -0.11565      0.99943     2.10698    0.00924     3.11565
      C   14   -0.02540      0.99956     2.01797    0.00786     3.02540
      C   15   -0.16579      0.99951     2.15818    0.00810     3.16579
      C   16    0.42395      0.99965     1.55303    0.02337     2.57605
      O   17   -0.31397      0.99987     3.30742    0.00668     4.31397
      O   18   -0.36800      0.99987     3.36033    0.00779     4.36800
      N   19   -0.39119      0.99970     2.88311    0.00838     3.89119
      H   20    0.09348      0.00000     0.40533    0.00119     0.40652
      H   21    0.09700      0.00000     0.40222    0.00078     0.40300
      H   22    0.10999      0.00000     0.38901    0.00100     0.39001
      H   23    0.09364      0.00000     0.40514    0.00122     0.40636
      H   24    0.10817      0.00000     0.39073    0.00110     0.39183
      H   25    0.11218      0.00000     0.38597    0.00185     0.38782
      H   26    0.09486      0.00000     0.40371    0.00143     0.40514
      H   27    0.09741      0.00000     0.40148    0.00110     0.40259
      H   28    0.10151      0.00000     0.39727    0.00123     0.39849
      H   29    0.09857      0.00000     0.40009    0.00134     0.40143
      H   30    0.09539      0.00000     0.40332    0.00129     0.40461
      H   31    0.09610      0.00000     0.40274    0.00116     0.40390
      H   32    0.09876      0.00000     0.39922    0.00202     0.40124
      H   33    0.10633      0.00000     0.39266    0.00101     0.39367
      H   34    0.09970      0.00000     0.39921    0.00109     0.40030
      H   35    0.23764      0.00000     0.25954    0.00282     0.26236
      H   36    0.20138      0.00000     0.29658    0.00204     0.29862
      H   37    0.18297      0.00000     0.31539    0.00164     0.31703
 =======================================================================
   * Total *   -0.00000     18.99302    51.78102    0.22595    71.00000

 Normal termination of Gaussian 16 at Sun Dec 13 14:04:15 2020.
