 Gaussian 16, Revision A.03,

 -----------------------------------------------------------
 # opt freq B3LYP/6-31G(d) empiricaldispersion=gd3bj scf=xqc
 -----------------------------------------------------------

 -------------------------------
 CID_135766905_JID_1355_neutraal
 -------------------------------
 Symbolic Z-matrix:
 Charge =  0 Multiplicity = 1

 SCF Done:  E(RB3LYP) =  -547.497691765     A.U. after   15 cycles
 SCF Done:  E(RB3LYP) =  -547.506038191     A.U. after   13 cycles
 SCF Done:  E(RB3LYP) =  -547.507003603     A.U. after   13 cycles
 SCF Done:  E(RB3LYP) =  -547.507451133     A.U. after   12 cycles
 SCF Done:  E(RB3LYP) =  -547.507527989     A.U. after   11 cycles
 SCF Done:  E(RB3LYP) =  -547.507539340     A.U. after   11 cycles
 SCF Done:  E(RB3LYP) =  -547.507547347     A.U. after    9 cycles
 SCF Done:  E(RB3LYP) =  -547.507548158     A.U. after    8 cycles
 SCF Done:  E(RB3LYP) =  -547.507549636     A.U. after    8 cycles
 SCF Done:  E(RB3LYP) =  -547.507553422     A.U. after   10 cycles
 SCF Done:  E(RB3LYP) =  -547.507556376     A.U. after   10 cycles
 SCF Done:  E(RB3LYP) =  -547.507559272     A.U. after   10 cycles
 SCF Done:  E(RB3LYP) =  -547.507560407     A.U. after    9 cycles
 SCF Done:  E(RB3LYP) =  -547.507560808     A.U. after    8 cycles
 SCF Done:  E(RB3LYP) =  -547.507560832     A.U. after    7 cycles
 Optimization completed.
    -- Stationary point found.
 Normal termination of Gaussian 16 at Tue Dec  8 19:47:24 2020.

 --------------------------------------------------------------------
 #N Geom=AllCheck Guess=TCheck SCRF=Check GenChk RB3LYP/6-31G(d) Freq
 --------------------------------------------------------------------

 Structure from the checkpoint file:  "JID_1355.chk"
 -------------------------------
 CID_135766905_JID_1355_neutraal
 -------------------------------
 Charge =  0 Multiplicity = 1

 SCF Done:  E(RB3LYP) =  -547.507560831     A.U. after    1 cycles

  Exact polarizability: 130.760   0.407  99.510  -2.681  -1.471  42.160
 Approx polarizability: 211.864  -0.963 179.012  -7.826  -5.497  65.583

                      1                      2                      3
                      A                      A                      A
 Frequencies --     34.0560                64.2909                99.3251
 Red. masses --      1.2465                 2.7538                 5.9892
 Frc consts  --      0.0009                 0.0067                 0.0348
 IR Inten    --      0.2266                 1.4336                 0.9888

                      4                      5                      6
                      A                      A                      A
 Frequencies --    167.5209               191.4321               305.3126
 Red. masses --      5.4555                 6.0631                 6.5932
 Frc consts  --      0.0902                 0.1309                 0.3621
 IR Inten    --      0.6857                 1.6717                 3.7793

                      7                      8                      9
                      A                      A                      A
 Frequencies --    310.1365               352.4167               377.5185
 Red. masses --      5.2438                 3.5496                 5.7854
 Frc consts  --      0.2972                 0.2597                 0.4858
 IR Inten    --      0.3467                 1.8026                 6.5781

                     10                     11                     12
                      A                      A                      A
 Frequencies --    414.0368               470.4498               530.9886
 Red. masses --      1.7094                 2.3058                 3.2747
 Frc consts  --      0.1727                 0.3007                 0.5440
 IR Inten    --     61.1390                20.0356                37.7925

                     13                     14                     15
                      A                      A                      A
 Frequencies --    561.1381               597.3571               611.8918
 Red. masses --      4.1178                 7.0963                 4.9479
 Frc consts  --      0.7639                 1.4919                 1.0915
 IR Inten    --     24.6444                 6.3483                 1.3201

                     16                     17                     18
                      A                      A                      A
 Frequencies --    643.7633               748.0695               757.3535
 Red. masses --      6.0401                 1.2694                 3.8314
 Frc consts  --      1.4749                 0.4185                 1.2948
 IR Inten    --     36.2389                91.6859                10.4677

                     19                     20                     21
                      A                      A                      A
 Frequencies --    782.1496               874.0084               879.5903
 Red. masses --      8.9248                 1.3997                 4.0678
 Frc consts  --      3.2168                 0.6300                 1.8543
 IR Inten    --     11.7354                21.8626                80.8022

                     22                     23                     24
                      A                      A                      A
 Frequencies --    966.3536               978.3162              1047.8787
 Red. masses --      1.4710                 3.7827                 2.1051
 Frc consts  --      0.8094                 2.1331                 1.3619
 IR Inten    --     11.3049                24.1579                57.7001

                     25                     26                     27
                      A                      A                      A
 Frequencies --   1070.0853              1082.1812              1100.2452
 Red. masses --      1.7305                 1.9922                 4.4844
 Frc consts  --      1.1675                 1.3746                 3.1984
 IR Inten    --     23.3148                45.6446                50.3537

                     28                     29                     30
                      A                      A                      A
 Frequencies --   1183.1805              1206.7834              1328.4899
 Red. masses --      2.5570                 3.3388                 2.5908
 Frc consts  --      2.1091                 2.8648                 2.6941
 IR Inten    --     13.6470                21.3343                50.3770

                     31                     32                     33
                      A                      A                      A
 Frequencies --   1370.3257              1407.6040              1421.1367
 Red. masses --      2.1880                 1.6449                 1.6449
 Frc consts  --      2.4208                 1.9202                 1.9573
 IR Inten    --      2.3420                66.4117                12.0990

                     34                     35                     36
                      A                      A                      A
 Frequencies --   1436.6321              1465.1127              1495.7794
 Red. masses --      1.2432                 1.7314                 1.0580
 Frc consts  --      1.5118                 2.1898                 1.3947
 IR Inten    --     13.8830                 1.7600                16.0069

                     37                     38                     39
                      A                      A                      A
 Frequencies --   1513.4853              1592.0474              1640.5206
 Red. masses --      1.1102                 4.6615                 5.1467
 Frc consts  --      1.4983                 6.9612                 8.1610
 IR Inten    --      8.7471                 0.7471                24.9075

                     40                     41                     42
                      A                      A                      A
 Frequencies --   1693.6147              1779.0879              3074.0399
 Red. masses --      6.5577                 8.7046                 1.0401
 Frc consts  --     11.0823                16.2328                 5.7911
 IR Inten    --      3.9627               381.4328                 4.3575

                     43                     44                     45
                      A                      A                      A
 Frequencies --   3132.3396              3194.1231              3217.6194
 Red. masses --      1.0985                 1.1005                 1.0891
 Frc consts  --      6.3503                 6.6155                 6.6434
 IR Inten    --      8.2402                 3.1976                 6.4742

                     46                     47                     48
                      A                      A                      A
 Frequencies --   3230.2819              3587.3065              3755.2122
 Red. masses --      1.0944                 1.0786                 1.0676
 Frc consts  --      6.7286                 8.1779                 8.8702
 IR Inten    --      6.4414                59.0498                94.6495

 - Thermochemistry -
 -------------------
 Temperature   298.150 Kelvin.  Pressure   1.00000 Atm.
 Atom     1 has atomic number  6 and mass  12.00000

 Molecular mass:   153.05383 amu.
 Principal axes and moments of inertia in atomic units:
                           1         2         3
     Eigenvalues --   821.633072306.893403029.38235
           X            0.99987   0.01567   0.00355
           Y           -0.01570   0.99982   0.01037
           Z           -0.00339  -0.01042   0.99994
 This molecule is an asymmetric top.
 Rotational symmetry number  1.
 Warning -- assumption of classical behavior for rotation
           may cause significant error
 Rotational temperatures (Kelvin)      0.10542     0.03755     0.02859
 Rotational constants (GHZ):           2.19653     0.78233     0.59575
 Zero-point vibrational energy     357340.0 (Joules/Mol)
                                   85.40632 (Kcal/Mol)
 Warning -- explicit consideration of  15 degrees of freedom as
           vibrations may cause significant error
 Vibrational temperatures:     49.00    92.50   142.91   241.03   275.43
          (Kelvin)            439.28   446.22   507.05   543.16   595.71
                              676.87   763.97   807.35   859.46   880.38
                              926.23  1076.31  1089.66  1125.34  1257.50
                             1265.53  1390.37  1407.58  1507.66  1539.61
                             1557.02  1583.01  1702.33  1736.29  1911.40
                             1971.59  2025.23  2044.70  2066.99  2107.97
                             2152.09  2177.57  2290.60  2360.34  2436.73
                             2559.71  4422.86  4506.74  4595.63  4629.44
                             4647.66  5161.33  5402.91

 Zero-point correction=                           0.136104 (Hartree/Particle)
 Thermal correction to Energy=                    0.146104
 Thermal correction to Enthalpy=                  0.147048
 Thermal correction to Gibbs Free Energy=         0.099589
 Sum of electronic and zero-point Energies=           -547.371457
 Sum of electronic and thermal Energies=              -547.361457
 Sum of electronic and thermal Enthalpies=            -547.360513
 Sum of electronic and thermal Free Energies=         -547.407971

                     E (Thermal)             CV                S
                      KCal/Mol        Cal/Mol-Kelvin    Cal/Mol-Kelvin
 Total                   91.682             36.639             99.885
 Electronic               0.000              0.000              0.000
 Translational            0.889              2.981             40.987
 Rotational               0.889              2.981             30.130
 Vibrational             89.904             30.677             28.768
 Vibration     1          0.594              1.983              5.578
 Vibration     2          0.597              1.971              4.321
 Vibration     3          0.604              1.950              3.468
 Vibration     4          0.624              1.882              2.463
 Vibration     5          0.634              1.852              2.214
 Vibration     6          0.696              1.664              1.388
 Vibration     7          0.699              1.654              1.362
 Vibration     8          0.729              1.570              1.155
 Vibration     9          0.748              1.518              1.049
 Vibration    10          0.778              1.440              0.912
 Vibration    11          0.827              1.316              0.736
 Vibration    12          0.886              1.181              0.585
 Vibration    13          0.917              1.115              0.522
 Vibration    14          0.955              1.037              0.454
 Vibration    15          0.971              1.007              0.430

                           ! Non-Optimized Parameters !
 Normal termination of Gaussian 16 at Tue Dec  8 19:50:45 2020.

 ----------------------------------------------------------------------
 # B3LYP/6-311++G(d,p) empiricaldispersion=gd3bj scf=xqc pop=npa geom=c
 heck
 ----------------------------------------------------------------------

 ---------------------------------------
 CID_135766905_JID_1355_Energie_neutraal
 ---------------------------------------
 Structure from the checkpoint file:  "JID_1355.chk"
 Charge =  0 Multiplicity = 1

 SCF Done:  E(RB3LYP) =  -547.672128053     A.U. after   15 cycles
 Normal termination of Gaussian 16 at Tue Dec  8 19:52:01 2020.

 ----------------------------------------------------------------------
 # B3LYP/6-311++G(d,p) empiricaldispersion=gd3bj scf=xqc pop=npa geom=c
 heck
 ----------------------------------------------------------------------

 -------------------------------------
 CID_135766905_JID_1355_Energie_kation
 -------------------------------------
 Structure from the checkpoint file:  "JID_1355.chk"
 Charge =  1 Multiplicity = 2

 SCF Done:  E(UB3LYP) =  -547.356223931     A.U. after   24 cycles
 Normal termination of Gaussian 16 at Tue Dec  8 19:55:05 2020.
 Gaussian 16:  ES64L-G16RevA.03 25-Dec-2016

 ----------------------------------------------------------------------
 # B3LYP/6-311++G(d,p) empiricaldispersion=gd3bj scf=xqc pop=npa geom=c
 heck
 ----------------------------------------------------------------------

 ------------------------------------
 CID_135766905_JID_1355_Energie_anion
 ------------------------------------
 Structure from the checkpoint file:  "JID_1355.chk"
 Charge = -1 Multiplicity = 2

                         Standard orientation:
 ---------------------------------------------------------------------
 Center     Atomic      Atomic             Coordinates (Angstroms)
 Number     Number       Type             X           Y           Z
 ---------------------------------------------------------------------
      1          6           0        1.949000    1.330821    0.602810
      2          6           0        1.345864    0.050638    0.091804
      3          7           0        2.038042   -0.949949   -0.336613
      4          8           0        3.412004   -0.698474   -0.255247
      5          6           0       -0.115547   -0.167189    0.071684
      6          6           0       -0.669908   -1.411872    0.218807
      7          6           0       -2.079580   -1.591759    0.170309
      8          7           0       -2.921716   -0.604297    0.000252
      9          7           0       -2.365904    0.606702   -0.134554
     10          6           0       -1.013137    0.971604   -0.144070
     11          8           0       -0.700560    2.143857   -0.328690
     12          1           0        2.825387    1.099205    1.214279
     13          1           0        1.226391    1.911446    1.173251
     14          1           0        2.283407    1.951692   -0.235577
     15          1           0        3.789911   -1.511088   -0.626315
     16          1           0       -0.022724   -2.268334    0.375005
     17          1           0       -2.526565   -2.573737    0.283303
     18          1           0       -3.020464    1.367113   -0.284107
 ---------------------------------------------------------------------

 SCF Done:  E(UB3LYP) =  -547.700583502     A.U. after   21 cycles

 The electronic state is 2-A.
 Alpha  occ. eigenvalues --  -19.02178 -18.92760 -14.21195 -14.18943 -14.16947
 Alpha  occ. eigenvalues --  -10.11140 -10.05402 -10.03875 -10.02457 -10.00856
 Alpha  occ. eigenvalues --  -10.00684  -0.94195  -0.89313  -0.84651  -0.72413
 Alpha  occ. eigenvalues --   -0.67129  -0.63096  -0.57925  -0.50965  -0.48527
 Alpha  occ. eigenvalues --   -0.43628  -0.38010  -0.35582  -0.34904  -0.31433
 Alpha  occ. eigenvalues --   -0.30434  -0.29732  -0.28765  -0.28437  -0.26065
 Alpha  occ. eigenvalues --   -0.24614  -0.23634  -0.22613  -0.20819  -0.16257
 Alpha  occ. eigenvalues --   -0.14887  -0.13056  -0.11423  -0.09519  -0.07454
 Alpha  occ. eigenvalues --    0.03807
 Alpha virt. eigenvalues --    0.09152   0.10596   0.11247   0.12056   0.13495
 Alpha virt. eigenvalues --    0.13947   0.15092   0.15236   0.16047   0.16987
 Alpha virt. eigenvalues --    0.17721   0.18274   0.19784   0.20300   0.20924

  Beta  occ. eigenvalues --  -19.02105 -18.92784 -14.20897 -14.18551 -14.16235
  Beta  occ. eigenvalues --  -10.11186 -10.05423 -10.03985 -10.02452 -10.00545
  Beta  occ. eigenvalues --  -10.00355  -0.93906  -0.88990  -0.84101  -0.72021
  Beta  occ. eigenvalues --   -0.66509  -0.62349  -0.57729  -0.50260  -0.48188
  Beta  occ. eigenvalues --   -0.43415  -0.37764  -0.35261  -0.34633  -0.31094
  Beta  occ. eigenvalues --   -0.30246  -0.29002  -0.28377  -0.27774  -0.25964
  Beta  occ. eigenvalues --   -0.24010  -0.23363  -0.22340  -0.19739  -0.14608
  Beta  occ. eigenvalues --   -0.14123  -0.12609  -0.10202  -0.09203  -0.05607
  Beta virt. eigenvalues --    0.09125   0.10543   0.10908   0.11247   0.12059
  Beta virt. eigenvalues --    0.13540   0.13996   0.15120   0.15787   0.16936
  Beta virt. eigenvalues --    0.17094   0.17750   0.18862   0.19809   0.20284

 Mulliken charges and spin densities:
               1          2
     1  C   -0.735309   0.006480
     2  C   -0.432305  -0.044097
     3  N   -0.356264   0.179025
     4  O   -0.080255   0.012109
     5  C    0.606501   0.198689
     6  C    0.349074   0.336454
     7  C   -0.631799  -0.070102
     8  N   -0.254118   0.336107
     9  N   -0.148452   0.104515
    10  C   -0.196912  -0.044444
    11  O   -0.411635  -0.002901
    12  H    0.128535  -0.000251
    13  H    0.169815  -0.000108
    14  H    0.152643   0.012212
    15  H    0.247138   0.000940
    16  H    0.172003  -0.019226
    17  H    0.119137   0.001617
    18  H    0.302206  -0.007018
 Sum of Mulliken charges =  -1.00000   1.00000

 Dipole moment (field-independent basis, Debye):
    X=              2.2127    Y=             -1.0104    Z=              0.5683  Tot=              2.4980
 Quadrupole moment (field-independent basis, Debye-Ang):
   XX=            -88.8480   YY=            -78.9679   ZZ=            -70.6753
   XY=             -5.1479   XZ=             -0.5513   YZ=              1.7590

 Summary of Natural Population Analysis:

                                       Natural Population
                Natural  -----------------------------------------------
    Atom  No    Charge         Core      Valence    Rydberg      Total
 -----------------------------------------------------------------------
      C    1   -0.31126      0.99963     2.30622    0.00541     3.31126
      C    2    0.09865      0.99960     1.88387    0.01788     2.90135
      N    3   -0.04613      0.99960     2.53127    0.01527     3.54613
      O    4   -0.29580      0.99989     3.28830    0.00761     4.29580
      C    5   -0.03092      0.99942     2.01720    0.01430     3.03092
      C    6   -0.02745      0.99953     2.01972    0.00820     3.02745
      C    7   -0.04429      0.99964     2.02771    0.01694     3.04429
      N    8   -0.03177      0.99971     2.51643    0.01563     3.53177
      N    9   -0.15591      0.99968     2.64258    0.01365     3.65591
      C   10    0.30265      0.99959     1.67661    0.02115     2.69735
      O   11   -0.36350      0.99988     3.35595    0.00767     4.36350
      H   12    0.10007      0.00000     0.39880    0.00113     0.39993
      H   13    0.11093      0.00000     0.38816    0.00091     0.38907
      H   14    0.10764      0.00000     0.39123    0.00113     0.39236
      H   15    0.22565      0.00000     0.27182    0.00254     0.27435
      H   16    0.09810      0.00000     0.40057    0.00133     0.40190
      H   17    0.08292      0.00000     0.41578    0.00130     0.41708
      H   18    0.18042      0.00000     0.31697    0.00261     0.31958
 =======================================================================
   * Total *    0.00000     10.99618    28.84919    0.15462    40.00000

 Normal termination of Gaussian 16 at Tue Dec  8 19:57:48 2020.
