 Gaussian 16, Revision A.03,

 -----------------------------------------------------------
 # opt freq B3LYP/6-31G(d) empiricaldispersion=gd3bj scf=xqc
 -----------------------------------------------------------

 ------------------------------
 CID_79291411_JID_8573_neutraal
 ------------------------------
 Symbolic Z-matrix:
 Charge =  0 Multiplicity = 1

 SCF Done:  E(RB3LYP) =  -1149.61715117     A.U. after   15 cycles
 SCF Done:  E(RB3LYP) =  -1149.34749572     A.U. after   17 cycles
 SCF Done:  E(RB3LYP) =  -1149.62052928     A.U. after   13 cycles
 SCF Done:  E(RB3LYP) =  -1149.62282986     A.U. after   13 cycles
 SCF Done:  E(RB3LYP) =  -1149.62131749     A.U. after   13 cycles
 SCF Done:  E(RB3LYP) =  -1149.62365955     A.U. after   13 cycles
 SCF Done:  E(RB3LYP) =  -1149.62415944     A.U. after   12 cycles
 SCF Done:  E(RB3LYP) =  -1149.62439649     A.U. after   11 cycles
 SCF Done:  E(RB3LYP) =  -1149.62431995     A.U. after   12 cycles
 SCF Done:  E(RB3LYP) =  -1149.62446752     A.U. after   12 cycles
 SCF Done:  E(RB3LYP) =  -1149.62620789     A.U. after   10 cycles
 SCF Done:  E(RB3LYP) =  -1149.62620907     A.U. after    8 cycles
 SCF Done:  E(RB3LYP) =  -1149.62620946     A.U. after    7 cycles
 SCF Done:  E(RB3LYP) =  -1149.62620957     A.U. after    7 cycles
 Optimization completed.
    -- Stationary point found.
 Normal termination of Gaussian 16 at Fri Dec 11 21:27:34 2020.

 --------------------------------------------------------------------
 #N Geom=AllCheck Guess=TCheck SCRF=Check GenChk RB3LYP/6-31G(d) Freq
 --------------------------------------------------------------------

 Structure from the checkpoint file:  "JID_8573.chk"
 ------------------------------
 CID_79291411_JID_8573_neutraal
 ------------------------------
 Charge =  0 Multiplicity = 1

 SCF Done:  E(RB3LYP) =  -1149.62620957     A.U. after    1 cycles

  Exact polarizability: 162.394   8.712 185.401 -14.707   5.891 157.363
 Approx polarizability: 222.542  20.202 288.242 -31.555   8.750 283.176

                      1                      2                      3
                      A                      A                      A
 Frequencies --     39.2893                66.6379                72.8607
 Red. masses --      4.5114                 4.5934                 4.0902
 Frc consts  --      0.0041                 0.0120                 0.0128
 IR Inten    --      0.6344                 0.7596                 0.4104

                      4                      5                      6
                      A                      A                      A
 Frequencies --     86.7580               100.0780               119.3065
 Red. masses --      4.2825                 3.7534                 5.4439
 Frc consts  --      0.0190                 0.0221                 0.0457
 IR Inten    --      0.1227                 1.6084                 6.0034

                      7                      8                      9
                      A                      A                      A
 Frequencies --    127.9114               160.6841               177.0921
 Red. masses --      3.3203                 3.7742                 1.4651
 Frc consts  --      0.0320                 0.0574                 0.0271
 IR Inten    --      3.8108                 1.9695                 0.0944

                     10                     11                     12
                      A                      A                      A
 Frequencies --    187.3099               205.4058               224.6900
 Red. masses --      2.2589                 1.6189                 1.5292
 Frc consts  --      0.0467                 0.0402                 0.0455
 IR Inten    --      4.4478                 1.9265                 1.0218

                     13                     14                     15
                      A                      A                      A
 Frequencies --    233.1305               258.7936               262.6058
 Red. masses --      1.2084                 3.1020                 3.4711
 Frc consts  --      0.0387                 0.1224                 0.1410
 IR Inten    --      0.5711                 1.1733                 0.9607

                     16                     17                     18
                      A                      A                      A
 Frequencies --    269.9626               293.1327               302.8243
 Red. masses --      1.6728                 2.3486                 3.5462
 Frc consts  --      0.0718                 0.1189                 0.1916
 IR Inten    --      1.4633                 1.7389                 8.0964

                     19                     20                     21
                      A                      A                      A
 Frequencies --    324.6849               355.2276               368.9278
 Red. masses --      2.1577                 2.7751                 4.4490
 Frc consts  --      0.1340                 0.2063                 0.3568
 IR Inten    --      0.9898                 2.1608                 0.6169

                     22                     23                     24
                      A                      A                      A
 Frequencies --    391.9336               421.6047               433.9625
 Red. masses --      2.3614                 1.3677                 2.2231
 Frc consts  --      0.2137                 0.1432                 0.2467
 IR Inten    --      6.1717                48.2995                14.4276

                     25                     26                     27
                      A                      A                      A
 Frequencies --    448.7743               464.7437               469.9498
 Red. masses --      3.1324                 1.9605                 3.3688
 Frc consts  --      0.3717                 0.2495                 0.4384
 IR Inten    --      8.7221                 4.8934                 6.2044

                     28                     29                     30
                      A                      A                      A
 Frequencies --    481.2231               528.7822               535.1481
 Red. masses --      2.9209                 4.3220                 4.6753
 Frc consts  --      0.3985                 0.7120                 0.7889
 IR Inten    --     12.5320                 1.6476                 4.3113

                     31                     32                     33
                      A                      A                      A
 Frequencies --    563.1668               599.3429               661.6302
 Red. masses --      5.4299                 3.7293                 5.9649
 Frc consts  --      1.0147                 0.7893                 1.5385
 IR Inten    --      0.3266                 6.3941                 6.9398

                     34                     35                     36
                      A                      A                      A
 Frequencies --    692.1905               725.9248               766.5789
 Red. masses --      6.1893                 3.7731                 1.9680
 Frc consts  --      1.7472                 1.1715                 0.6814
 IR Inten    --      4.3207                 2.7371                30.7203

                     37                     38                     39
                      A                      A                      A
 Frequencies --    774.3932               783.9554               792.7050
 Red. masses --      2.0024                 3.6744                 4.0251
 Frc consts  --      0.7075                 1.3305                 1.4902
 IR Inten    --     15.3350                 7.4653                 4.6678

                     40                     41                     42
                      A                      A                      A
 Frequencies --    822.2456               884.9068               903.8017
 Red. masses --      4.8347                 1.2915                 2.0168
 Frc consts  --      1.9259                 0.5959                 0.9706
 IR Inten    --      0.6934                 1.9881                 2.4184

                     43                     44                     45
                      A                      A                      A
 Frequencies --    928.4943               936.5375               954.9063
 Red. masses --      2.3171                 1.8693                 1.3523
 Frc consts  --      1.1769                 0.9660                 0.7265
 IR Inten    --     10.0349                 3.7478                 2.1127

                     46                     47                     48
                      A                      A                      A
 Frequencies --    959.4933               990.8745               999.7182
 Red. masses --      1.5266                 1.2722                 1.8301
 Frc consts  --      0.8281                 0.7359                 1.0776
 IR Inten    --      4.4260                 0.1908                20.3008

                     49                     50                     51
                      A                      A                      A
 Frequencies --   1018.5609              1024.9734              1044.5184
 Red. masses --      2.1840                 1.5924                 1.4727
 Frc consts  --      1.3350                 0.9856                 0.9467
 IR Inten    --      5.1511                 0.4613                 7.6661

                     52                     53                     54
                      A                      A                      A
 Frequencies --   1071.1807              1084.0013              1086.0406
 Red. masses --      3.8457                 2.4820                 1.5290
 Frc consts  --      2.5999                 1.7184                 1.0626
 IR Inten    --      7.5656                 1.8250                11.9890

                     55                     56                     57
                      A                      A                      A
 Frequencies --   1128.2716              1151.7485              1160.7441
 Red. masses --      1.3756                 1.5466                 1.3494
 Frc consts  --      1.0317                 1.2088                 1.0711
 IR Inten    --     45.9538                18.3345                18.8204

                     58                     59                     60
                      A                      A                      A
 Frequencies --   1163.3200              1186.7516              1198.2978
 Red. masses --      1.5408                 1.5783                 1.0958
 Frc consts  --      1.2286                 1.3097                 0.9270
 IR Inten    --      1.8798                43.5003                 0.6077

                     61                     62                     63
                      A                      A                      A
 Frequencies --   1236.2346              1237.7165              1258.4393
 Red. masses --      2.0009                 2.3912                 2.8193
 Frc consts  --      1.8017                 2.1582                 2.6306
 IR Inten    --     10.2306                 3.3859                17.2093

                     64                     65                     66
                      A                      A                      A
 Frequencies --   1273.2444              1287.6691              1312.4897
 Red. masses --      2.7720                 1.3440                 1.5236
 Frc consts  --      2.6477                 1.3130                 1.5464
 IR Inten    --      7.6010                 8.7090                 1.5421

                     67                     68                     69
                      A                      A                      A
 Frequencies --   1340.8845              1343.6248              1383.7732
 Red. masses --      3.0534                 2.3241                 1.3677
 Frc consts  --      3.2345                 2.4721                 1.5430
 IR Inten    --     23.6744                45.8183                18.6368

                     70                     71                     72
                      A                      A                      A
 Frequencies --   1419.4708              1439.7377              1441.5945
 Red. masses --      1.2859                 1.5451                 1.2903
 Frc consts  --      1.5265                 1.8870                 1.5799
 IR Inten    --     13.5355                 5.0333                13.1623

                     73                     74                     75
                      A                      A                      A
 Frequencies --   1450.7153              1457.0073              1479.8417
 Red. masses --      1.2560                 1.6012                 1.9661
 Frc consts  --      1.5574                 2.0028                 2.5368
 IR Inten    --      8.2536                41.2662                 3.9945

                     76                     77                     78
                      A                      A                      A
 Frequencies --   1489.5381              1498.6193              1508.1016
 Red. masses --      1.1584                 1.1064                 1.1967
 Frc consts  --      1.5143                 1.4641                 1.6036
 IR Inten    --     12.4365                12.1350                21.4420

                     79                     80                     81
                      A                      A                      A
 Frequencies --   1509.1857              1511.0669              1518.9650
 Red. masses --      1.0756                 1.1665                 1.1747
 Frc consts  --      1.4434                 1.5693                 1.5968
 IR Inten    --      7.2946                 6.6348                 6.0787

                     82                     83                     84
                      A                      A                      A
 Frequencies --   1519.5853              1526.5750              1536.7679
 Red. masses --      1.8028                 1.0734                 1.0673
 Frc consts  --      2.4528                 1.4738                 1.4851
 IR Inten    --     17.4085                 7.0672                 5.0375

                     85                     86                     87
                      A                      A                      A
 Frequencies --   1539.9152              1547.0365              1558.2438
 Red. masses --      1.2075                 1.1167                 1.0562
 Frc consts  --      1.6871                 1.5747                 1.5110
 IR Inten    --     28.7985                10.5561                 8.7645

                     88                     89                     90
                      A                      A                      A
 Frequencies --   1623.8228              1649.8951              1740.6910
 Red. masses --      5.1495                 5.5565                 8.6449
 Frc consts  --      8.0000                 8.9117                15.4331
 IR Inten    --      0.4014                 1.1358               221.9639

                     91                     92                     93
                      A                      A                      A
 Frequencies --   3026.8408              3052.5412              3054.9376
 Red. masses --      1.0534                 1.0356                 1.0360
 Frc consts  --      5.6861                 5.6856                 5.6964
 IR Inten    --     64.4396                19.1589                10.9654

                     94                     95                     96
                      A                      A                      A
 Frequencies --   3064.5620              3069.2476              3088.4584
 Red. masses --      1.0475                 1.0543                 1.0646
 Frc consts  --      5.7961                 5.8515                 5.9828
 IR Inten    --     30.8654                31.6145                11.6559

                     97                     98                     99
                      A                      A                      A
 Frequencies --   3117.8314              3125.0346              3130.7429
 Red. masses --      1.1012                 1.1027                 1.1030
 Frc consts  --      6.3069                 6.3449                 6.3700
 IR Inten    --      2.6769                14.1251                 5.2472

                    100                    101                    102
                      A                      A                      A
 Frequencies --   3133.7969              3136.6222              3137.7345
 Red. masses --      1.1026                 1.1020                 1.0828
 Frc consts  --      6.3796                 6.3877                 6.2813
 IR Inten    --     15.2726                33.8497                 1.0885

                    103                    104                    105
                      A                      A                      A
 Frequencies --   3142.6144              3166.7385              3170.3565
 Red. masses --      1.0999                 1.0981                 1.1010
 Frc consts  --      6.4001                 6.4882                 6.5202
 IR Inten    --     16.8363                11.4487                 3.4106

                    106                    107                    108
                      A                      A                      A
 Frequencies --   3181.1481              3185.2184              3195.1781
 Red. masses --      1.1043                 1.0866                 1.0881
 Frc consts  --      6.5845                 6.4952                 6.5452
 IR Inten    --      0.5482                 5.3589                 3.2710

                    109                    110                    111
                      A                      A                      A
 Frequencies --   3204.4577              3216.1741              3702.7959
 Red. masses --      1.0926                 1.0975                 1.0657
 Frc consts  --      6.6102                 6.6887                 8.6088
 IR Inten    --     15.5745                14.6336               118.7339

 - Thermochemistry -
 -------------------
 Temperature   298.150 Kelvin.  Pressure   1.00000 Atm.
 Atom     1 has atomic number  6 and mass  12.00000

 Molecular mass:   267.12930 amu.
 Principal axes and moments of inertia in atomic units:
                           1         2         3
     Eigenvalues --  3601.168854948.254226229.15205
           X            0.99984   0.00610  -0.01656
           Y           -0.00561   0.99956   0.02910
           Z            0.01673  -0.02900   0.99944
 This molecule is an asymmetric top.
 Rotational symmetry number  1.
 Warning -- assumption of classical behavior for rotation
           may cause significant error
 Rotational temperatures (Kelvin)      0.02405     0.01750     0.01390
 Rotational constants (GHZ):           0.50115     0.36472     0.28973
 Zero-point vibrational energy     875763.3 (Joules/Mol)
                                  209.31246 (Kcal/Mol)
 Warning -- explicit consideration of  32 degrees of freedom as
           vibrations may cause significant error
 Vibrational temperatures:     56.53    95.88   104.83   124.83   143.99
          (Kelvin)            171.66   184.04   231.19   254.80   269.50
                              295.53   323.28   335.42   372.35   377.83
                              388.42   421.75   435.70   467.15   511.09
                              530.80   563.90   606.60   624.38   645.69
                              668.66   676.15   692.37   760.80   769.96
                              810.27   862.32   951.94   995.91  1044.44
                             1102.94  1114.18  1127.94  1140.53  1183.03
                             1273.18  1300.37  1335.90  1347.47  1373.90
                             1380.50  1425.65  1438.37  1465.48  1474.71
                             1502.83  1541.19  1559.64  1562.57  1623.33
                             1657.11  1670.05  1673.76  1707.47  1724.08
                             1778.67  1780.80  1810.61  1831.91  1852.67
                             1888.38  1929.23  1933.18  1990.94  2042.30
                             2071.46  2074.13  2087.26  2096.31  2129.16
                             2143.11  2156.18  2169.82  2171.38  2174.09
                             2185.45  2186.34  2196.40  2211.07  2215.59
                             2225.84  2241.97  2336.32  2373.83  2504.47
                             4354.95  4391.93  4395.37  4409.22  4415.96
                             4443.60  4485.86  4496.23  4504.44  4508.83
                             4512.90  4514.50  4521.52  4556.23  4561.44
                             4576.96  4582.82  4597.15  4610.50  4627.36
                             5327.50

 Zero-point correction=                           0.333561 (Hartree/Particle)
 Thermal correction to Energy=                    0.352693
 Thermal correction to Enthalpy=                  0.353637
 Thermal correction to Gibbs Free Energy=         0.287606
 Sum of electronic and zero-point Energies=          -1149.292649
 Sum of electronic and thermal Energies=             -1149.273517
 Sum of electronic and thermal Enthalpies=           -1149.272573
 Sum of electronic and thermal Free Energies=        -1149.338603

                     E (Thermal)             CV                S
                      KCal/Mol        Cal/Mol-Kelvin    Cal/Mol-Kelvin
 Total                  221.318             73.701            138.974
 Electronic               0.000              0.000              0.000
 Translational            0.889              2.981             42.647
 Rotational               0.889              2.981             33.073
 Vibrational            219.541             67.739             63.254
 Vibration     1          0.594              1.981              5.295
 Vibration     2          0.598              1.970              4.250
 Vibration     3          0.599              1.967              4.075
 Vibration     4          0.601              1.958              3.732
 Vibration     5          0.604              1.949              3.453
 Vibration     6          0.609              1.933              3.112
 Vibration     7          0.611              1.925              2.977
 Vibration     8          0.622              1.891              2.542
 Vibration     9          0.628              1.871              2.359
 Vibration    10          0.632              1.857              2.254
 Vibration    11          0.640              1.832              2.084
 Vibration    12          0.649              1.803              1.921
 Vibration    13          0.654              1.790              1.855
 Vibration    14          0.668              1.748              1.670
 Vibration    15          0.670              1.741              1.644
 Vibration    16          0.674              1.728              1.596
 Vibration    17          0.688              1.687              1.456
 Vibration    18          0.694              1.668              1.401
 Vibration    19          0.709              1.626              1.286
 Vibration    20          0.731              1.565              1.143
 Vibration    21          0.741              1.536              1.084
 Vibration    22          0.759              1.487              0.993
 Vibration    23          0.784              1.423              0.887
 Vibration    24          0.795              1.396              0.846
 Vibration    25          0.808              1.364              0.799
 Vibration    26          0.822              1.328              0.752
 Vibration    27          0.827              1.317              0.738
 Vibration    28          0.838              1.292              0.707
 Vibration    29          0.884              1.186              0.590
 Vibration    30          0.890              1.172              0.576
 Vibration    31          0.919              1.111              0.518
 Vibration    32          0.957              1.033              0.451

 Optimization completed.
    -- Stationary point found.
 Normal termination of Gaussian 16 at Fri Dec 11 21:48:58 2020.

 ----------------------------------------------------------------------
 # B3LYP/6-311++G(d,p) empiricaldispersion=gd3bj scf=xqc pop=npa geom=c
 heck
 ----------------------------------------------------------------------

 --------------------------------------
 CID_79291411_JID_8573_Energie_neutraal
 --------------------------------------
 Structure from the checkpoint file:  "JID_8573.chk"
 Charge =  0 Multiplicity = 1

 SCF Done:  E(RB3LYP) =  -1149.86751786     A.U. after   16 cycles
 Normal termination of Gaussian 16 at Fri Dec 11 21:58:01 2020.

 ----------------------------------------------------------------------
 # B3LYP/6-311++G(d,p) empiricaldispersion=gd3bj scf=xqc pop=npa geom=c
 heck
 ----------------------------------------------------------------------

 ------------------------------------
 CID_79291411_JID_8573_Energie_kation
 ------------------------------------
 Structure from the checkpoint file:  "JID_8573.chk"
 Charge =  1 Multiplicity = 2

 SCF Done:  E(UB3LYP) =  -1149.56619957     A.U. after   33 cycles
 SCF Done:  E(UB3LYP) =  -1149.56708424     a.u. after    5 cycles
 Normal termination of Gaussian 16 at Fri Dec 11 23:30:26 2020.
 Gaussian 16:  ES64L-G16RevA.03 25-Dec-2016

 ----------------------------------------------------------------------
 # B3LYP/6-311++G(d,p) empiricaldispersion=gd3bj scf=xqc pop=npa geom=c
 heck
 ----------------------------------------------------------------------

 -----------------------------------
 CID_79291411_JID_8573_Energie_anion
 -----------------------------------
 Structure from the checkpoint file:  "JID_8573.chk"
 Charge = -1 Multiplicity = 2

                         Standard orientation:
 ---------------------------------------------------------------------
 Center     Atomic      Atomic             Coordinates (Angstroms)
 Number     Number       Type             X           Y           Z
 ---------------------------------------------------------------------
      1          6           0       -2.785874    0.179088    1.750247
      2          6           0       -2.120335    0.921264    0.623591
      3          6           0       -1.810095    2.281290    0.761411
      4          6           0       -1.181868    3.000793   -0.252603
      5          6           0       -0.841667    2.366489   -1.447359
      6          6           0       -1.132543    1.011932   -1.607696
      7          6           0       -1.765837    0.289468   -0.585514
      8         16           0       -2.187620   -1.414218   -0.942540
      9          6           0       -1.171028   -2.384791    0.267340
     10          6           0        0.101289   -1.702140    0.766066
     11          8           0        0.156217   -1.327815    1.938206
     12          7           0        1.135513   -1.528974   -0.104273
     13          6           0        1.166417   -2.060077   -1.464153
     14          6           0        2.403681   -1.003182    0.407557
     15          6           0        2.582717    0.520963    0.195054
     16          6           0        1.739409    1.328537    1.184255
     17          6           0        4.064794    0.865158    0.330664
     18          8           0        2.221481    0.866274   -1.150425
     19          1           0       -2.048865   -0.434809    2.280779
     20          1           0       -3.229695    0.875808    2.467191
     21          1           0       -3.570317   -0.486351    1.374442
     22          1           0       -2.072585    2.781335    1.689921
     23          1           0       -0.957384    4.053666   -0.109405
     24          1           0       -0.349363    2.914837   -2.244880
     25          1           0       -0.878591    0.501618   -2.531943
     26          1           0       -1.765581   -2.599459    1.154241
     27          1           0       -0.951724   -3.325317   -0.247791
     28          1           0        1.756523   -1.378487   -2.078486
     29          1           0        1.627775   -3.057591   -1.493275
     30          1           0        0.161346   -2.111924   -1.881565
     31          1           0        2.470816   -1.242822    1.470750
     32          1           0        3.204401   -1.530936   -0.121688
     33          1           0        2.038538    1.120587    2.216274
     34          1           0        1.865013    2.397752    0.984792
     35          1           0        0.680057    1.079553    1.097577
     36          1           0        4.643610    0.366400   -0.453949
     37          1           0        4.211114    1.944750    0.229946
     38          1           0        4.451707    0.549530    1.305847
     39          1           0        1.250579    0.915762   -1.173635
 ---------------------------------------------------------------------

 SCF Done:  E(UB3LYP) =  -1149.85881351     A.U. after   33 cycles
 SCF Done:  E(UB3LYP) =  -1149.85881351     a.u. after    1 cycles

 The electronic state is 2-A.
 Alpha  occ. eigenvalues --  -88.72787 -19.01148 -18.97509 -14.23643 -10.16173
 Alpha  occ. eigenvalues --  -10.12761 -10.09529 -10.08889 -10.08425 -10.07699
 Alpha  occ. eigenvalues --  -10.06861 -10.06575 -10.06207 -10.06058 -10.05875
 Alpha  occ. eigenvalues --  -10.05181 -10.05132 -10.04793  -7.81332  -5.77733
 Alpha  occ. eigenvalues --   -5.77368  -5.76718  -0.92955  -0.91693  -0.82682
 Alpha  occ. eigenvalues --   -0.75135  -0.69309  -0.68122  -0.65947  -0.63413
 Alpha  occ. eigenvalues --   -0.60782  -0.59117  -0.58911  -0.57604  -0.53920
 Alpha  occ. eigenvalues --   -0.48752  -0.47765  -0.46135  -0.44003  -0.39931
 Alpha  occ. eigenvalues --   -0.39571  -0.38127  -0.37380  -0.36484  -0.35624
 Alpha  occ. eigenvalues --   -0.33703  -0.33335  -0.33119  -0.31967  -0.31288
 Alpha  occ. eigenvalues --   -0.30397  -0.30198  -0.29540  -0.29327  -0.29125
 Alpha  occ. eigenvalues --   -0.28304  -0.27828  -0.27503  -0.26800  -0.25688
 Alpha  occ. eigenvalues --   -0.25415  -0.25301  -0.23558  -0.23031  -0.21897
 Alpha  occ. eigenvalues --   -0.20951  -0.17789  -0.15391  -0.14566  -0.13974
 Alpha  occ. eigenvalues --   -0.13448  -0.11350   0.04821
 Alpha virt. eigenvalues --    0.06829   0.07505   0.08001   0.08745   0.08881
 Alpha virt. eigenvalues --    0.09323   0.09707   0.10112   0.10395   0.10841
 Alpha virt. eigenvalues --    0.11282   0.11679   0.12034   0.12528   0.12908

  Beta  occ. eigenvalues --  -88.72768 -19.01143 -18.97463 -14.23644 -10.16155
  Beta  occ. eigenvalues --  -10.12762 -10.09518 -10.08862 -10.08268 -10.07523
  Beta  occ. eigenvalues --  -10.06761 -10.06567 -10.06154 -10.06059 -10.05893
  Beta  occ. eigenvalues --  -10.05138 -10.04941 -10.04786  -7.81313  -5.77683
  Beta  occ. eigenvalues --   -5.77359  -5.76699  -0.92893  -0.91676  -0.82656
  Beta  occ. eigenvalues --   -0.74868  -0.69224  -0.67899  -0.65759  -0.63137
  Beta  occ. eigenvalues --   -0.60735  -0.59092  -0.58815  -0.57508  -0.53696
  Beta  occ. eigenvalues --   -0.48643  -0.47715  -0.45883  -0.43960  -0.39820
  Beta  occ. eigenvalues --   -0.39526  -0.38044  -0.37330  -0.36415  -0.35500
  Beta  occ. eigenvalues --   -0.33570  -0.33284  -0.33035  -0.31856  -0.31142
  Beta  occ. eigenvalues --   -0.30334  -0.30108  -0.29475  -0.29221  -0.29075
  Beta  occ. eigenvalues --   -0.28253  -0.27788  -0.27417  -0.26679  -0.25521
  Beta  occ. eigenvalues --   -0.25386  -0.24969  -0.23460  -0.22816  -0.21806
  Beta  occ. eigenvalues --   -0.20713  -0.17765  -0.14857  -0.14284  -0.13512
  Beta  occ. eigenvalues --   -0.13211  -0.10973
  Beta virt. eigenvalues --    0.06916   0.07862   0.08237   0.08659   0.08920
  Beta virt. eigenvalues --    0.09087   0.09689   0.09970   0.10147   0.10520
  Beta virt. eigenvalues --    0.11003   0.11545   0.11882   0.12124   0.12594

 Mulliken charges and spin densities:
               1          2
     1  C   -0.472501  -0.085400
     2  C    0.130542   0.165661
     3  C   -0.211521  -0.095053
     4  C   -0.321471   0.239530
     5  C   -0.433641  -0.059308
     6  C   -0.305165  -0.017739
     7  C    0.427928   0.237571
     8  S   -0.460610   0.112390
     9  C    0.473925  -1.108026
    10  C   -0.688354   0.619427
    11  O   -0.264216   0.014331
    12  N    0.110815   0.073765
    13  C    0.659905  -1.048871
    14  C   -0.418046  -0.268068
    15  C   -0.076080   0.418457
    16  C   -0.202835  -0.296003
    17  C   -0.107324  -0.340504
    18  O   -0.235549  -0.001642
    19  H    0.161417   0.055141
    20  H    0.126101  -0.007566
    21  H    0.146363   0.018829
    22  H    0.127539   0.007057
    23  H    0.115179   0.003472
    24  H    0.116100   0.027025
    25  H    0.169930   0.011345
    26  H    0.117593   0.120121
    27  H   -0.573615   0.815216
    28  H    0.141025   0.031969
    29  H   -0.636242   0.800797
    30  H    0.217365  -0.053774
    31  H   -0.016052   0.221407
    32  H   -0.002811   0.192340
    33  H    0.182380  -0.014383
    34  H    0.063961   0.066170
    35  H    0.257686  -0.032282
    36  H    0.040321   0.107620
    37  H    0.104717   0.042239
    38  H    0.066276   0.064358
    39  H    0.468966  -0.037617
 Sum of Mulliken charges =  -1.00000   1.00000

 Dipole moment (field-independent basis, Debye):
    X=              0.0529    Y=              5.4996    Z=              0.7556  Tot=              5.5515
 Quadrupole moment (field-independent basis, Debye-Ang):
   XX=           -158.2816   YY=           -171.5879   ZZ=           -143.1058
   XY=              3.3550   XZ=             -0.1805   YZ=             -0.0203

 Summary of Natural Population Analysis:

                                       Natural Population
                Natural  -----------------------------------------------
    Atom  No    Charge         Core      Valence    Rydberg      Total
 -----------------------------------------------------------------------
      C    1   -0.30307      0.99963     2.29819    0.00526     3.30307
      C    2    0.00238      0.99944     1.98812    0.01006     2.99762
      C    3   -0.10718      0.99952     2.09981    0.00785     3.10718
      C    4   -0.05788      0.99957     2.04946    0.00885     3.05788
      C    5   -0.11901      0.99956     2.10974    0.00971     3.11901
      C    6   -0.10650      0.99950     2.09633    0.01067     3.10650
      C    7   -0.06889      0.99934     2.05662    0.01294     3.06889
      S    8    0.10925      4.99956     2.87265    0.01855     7.89075
      C    9   -0.27410      0.99954     2.26433    0.01023     3.27410
      C   10    0.34589      0.99960     1.63046    0.02404     2.65411
      O   11   -0.32920      0.99988     3.32366    0.00565     4.32920
      N   12   -0.26237      0.99963     2.74600    0.01674     3.76237
      C   13   -0.18259      0.99961     2.17468    0.00830     3.18259
      C   14   -0.09229      0.99954     2.08005    0.01270     3.09229
      C   15    0.12042      0.99954     1.86626    0.01378     2.87958
      C   16   -0.29839      0.99961     2.29284    0.00594     3.29839
      C   17   -0.28832      0.99961     2.28311    0.00559     3.28832
      O   18   -0.38739      0.99989     3.38091    0.00660     4.38739
      H   19    0.12057      0.00000     0.37813    0.00130     0.37943
      H   20    0.09486      0.00000     0.40431    0.00083     0.40514
      H   21    0.10579      0.00000     0.39311    0.00110     0.39421
      H   22    0.09335      0.00000     0.40542    0.00123     0.40665
      H   23    0.09140      0.00000     0.40713    0.00146     0.40860
      H   24    0.09812      0.00000     0.40074    0.00114     0.40188
      H   25    0.10277      0.00000     0.39621    0.00102     0.39723
      H   26    0.10924      0.00000     0.38947    0.00129     0.39076
      H   27    0.11447      0.00000     0.38313    0.00240     0.38553
      H   28    0.10460      0.00000     0.39432    0.00108     0.39540
      H   29    0.09345      0.00000     0.40430    0.00225     0.40655
      H   30    0.10841      0.00000     0.38995    0.00163     0.39159
      H   31    0.11177      0.00000     0.38713    0.00111     0.38823
      H   32    0.09600      0.00000     0.40290    0.00111     0.40400
      H   33    0.10045      0.00000     0.39883    0.00072     0.39955
      H   34    0.09873      0.00000     0.40031    0.00096     0.40127
      H   35    0.11419      0.00000     0.38392    0.00189     0.38581
      H   36    0.10133      0.00000     0.39780    0.00087     0.39867
      H   37    0.10157      0.00000     0.39760    0.00083     0.39843
      H   38    0.09789      0.00000     0.40139    0.00071     0.40211
      H   39    0.24032      0.00000     0.25600    0.00368     0.25968
 =======================================================================
   * Total *   -0.00000     21.99258    49.78533    0.22210    72.00000

 Normal termination of Gaussian 16 at Fri Dec 11 23:54:42 2020.
