 Gaussian 16, Revision A.03,

 -----------------------------------------------------------
 # opt freq B3LYP/6-31G(d) empiricaldispersion=gd3bj scf=xqc
 -----------------------------------------------------------

 ------------------------------
 CID_21537622_JID_4012_neutraal
 ------------------------------
 Symbolic Z-matrix:
 Charge =  0 Multiplicity = 1

 SCF Done:  E(RB3LYP) =  -669.155160338     A.U. after   14 cycles
 SCF Done:  E(RB3LYP) =  -669.160671241     A.U. after   11 cycles
 SCF Done:  E(RB3LYP) =  -669.161282934     A.U. after   11 cycles
 SCF Done:  E(RB3LYP) =  -669.161375390     A.U. after   11 cycles
 SCF Done:  E(RB3LYP) =  -669.161549220     A.U. after   10 cycles
 SCF Done:  E(RB3LYP) =  -669.161567080     A.U. after    9 cycles
 SCF Done:  E(RB3LYP) =  -669.161573199     A.U. after    8 cycles
 SCF Done:  E(RB3LYP) =  -669.161574194     A.U. after    8 cycles
 SCF Done:  E(RB3LYP) =  -669.161574874     A.U. after    8 cycles
 SCF Done:  E(RB3LYP) =  -669.161575187     A.U. after    8 cycles
 SCF Done:  E(RB3LYP) =  -669.161575274     A.U. after    6 cycles
 SCF Done:  E(RB3LYP) =  -669.161575292     A.U. after    6 cycles
 Optimization completed.
    -- Stationary point found.
 Normal termination of Gaussian 16 at Thu Dec 10 09:15:24 2020.

 --------------------------------------------------------------------
 #N Geom=AllCheck Guess=TCheck SCRF=Check GenChk RB3LYP/6-31G(d) Freq
 --------------------------------------------------------------------

 Structure from the checkpoint file:  "JID_4012.chk"
 ------------------------------
 CID_21537622_JID_4012_neutraal
 ------------------------------
 Charge =  0 Multiplicity = 1

 SCF Done:  E(RB3LYP) =  -669.161575292     A.U. after    1 cycles

  Exact polarizability: 134.626  -0.895 115.284   5.637  -3.400 104.414
 Approx polarizability: 176.280   1.339 163.688  13.394  -5.219 154.960

                      1                      2                      3
                      A                      A                      A
 Frequencies --     42.3115                47.0111                51.8896
 Red. masses --      3.1842                 3.6453                 4.2071
 Frc consts  --      0.0034                 0.0047                 0.0067
 IR Inten    --      0.4534                 0.7262                 0.6164

                      4                      5                      6
                      A                      A                      A
 Frequencies --     99.4626               108.7837               132.2408
 Red. masses --      3.7874                 3.7215                 2.7481
 Frc consts  --      0.0221                 0.0259                 0.0283
 IR Inten    --      2.2935                 1.7283                 3.1730

                      7                      8                      9
                      A                      A                      A
 Frequencies --    165.5933               191.8624               225.6915
 Red. masses --      3.9166                 2.4923                 2.7537
 Frc consts  --      0.0633                 0.0541                 0.0826
 IR Inten    --      3.7598                 0.3477                 2.5825

                     10                     11                     12
                      A                      A                      A
 Frequencies --    244.9049               305.9442               327.3941
 Red. masses --      1.3323                 2.8979                 2.8723
 Frc consts  --      0.0471                 0.1598                 0.1814
 IR Inten    --      1.3093                 7.4931                 1.9349

                     13                     14                     15
                      A                      A                      A
 Frequencies --    335.7385               390.0777               413.7401
 Red. masses --      2.3979                 2.1105                 2.1796
 Frc consts  --      0.1593                 0.1892                 0.2198
 IR Inten    --     12.1428                 4.4210                 2.9134

                     16                     17                     18
                      A                      A                      A
 Frequencies --    449.4493               462.4734               482.0088
 Red. masses --      1.9890                 2.6536                 4.6332
 Frc consts  --      0.2367                 0.3344                 0.6342
 IR Inten    --      2.5119                16.5160                 0.1405

                     19                     20                     21
                      A                      A                      A
 Frequencies --    500.3689               564.8981               572.8197
 Red. masses --      2.9186                 2.6026                 1.2008
 Frc consts  --      0.4305                 0.4893                 0.2321
 IR Inten    --      5.2229                 7.8815                90.8270

                     22                     23                     24
                      A                      A                      A
 Frequencies --    625.3892               645.0790               700.7163
 Red. masses --      2.1337                 2.4091                 1.2210
 Frc consts  --      0.4917                 0.5907                 0.3532
 IR Inten    --     11.3621                19.2144                90.7976

                     25                     26                     27
                      A                      A                      A
 Frequencies --    776.7616               784.5072               808.3463
 Red. masses --      3.4731                 2.3893                 3.8346
 Frc consts  --      1.2347                 0.8664                 1.4763
 IR Inten    --     39.2983                34.9194                12.3762

                     28                     29                     30
                      A                      A                      A
 Frequencies --    820.7786               855.5831               865.0523
 Red. masses --      1.9798                 1.6682                 3.3237
 Frc consts  --      0.7858                 0.7195                 1.4654
 IR Inten    --      6.3482                 1.1102                13.8369

                     31                     32                     33
                      A                      A                      A
 Frequencies --    877.9685               904.1643               915.1578
 Red. masses --      2.7163                 2.1999                 1.4834
 Frc consts  --      1.2336                 1.0596                 0.7320
 IR Inten    --      4.8642                10.4198                10.0084

                     34                     35                     36
                      A                      A                      A
 Frequencies --    994.8482              1012.5327              1036.7332
 Red. masses --      2.6443                 1.9036                 2.5046
 Frc consts  --      1.5420                 1.1499                 1.5861
 IR Inten    --     58.5165                13.4512                37.3756

                     37                     38                     39
                      A                      A                      A
 Frequencies --   1056.9258              1076.6645              1100.0727
 Red. masses --      1.9187                 2.2023                 1.8304
 Frc consts  --      1.2629                 1.5041                 1.3051
 IR Inten    --      4.7836                 3.4812                30.4258

                     40                     41                     42
                      A                      A                      A
 Frequencies --   1106.8437              1123.8771              1146.2037
 Red. masses --      2.0559                 1.8898                 2.6155
 Frc consts  --      1.4840                 1.4064                 2.0246
 IR Inten    --     25.0028                31.6331                22.5364

                     43                     44                     45
                      A                      A                      A
 Frequencies --   1147.8889              1179.6717              1193.2852
 Red. masses --      4.1108                 2.1780                 2.8332
 Frc consts  --      3.1914                 1.7858                 2.3769
 IR Inten    --     72.6998                 7.7557                14.8418

                     46                     47                     48
                      A                      A                      A
 Frequencies --   1230.4844              1245.3155              1264.3526
 Red. masses --      1.9073                 1.3414                 1.7280
 Frc consts  --      1.7015                 1.2257                 1.6276
 IR Inten    --      4.7553                23.1919                 8.4848

                     49                     50                     51
                      A                      A                      A
 Frequencies --   1294.2350              1312.2656              1331.2777
 Red. masses --      1.2897                 1.2154                 1.2203
 Frc consts  --      1.2728                 1.2331                 1.2743
 IR Inten    --     25.7173                 8.2615                 5.6754

                     52                     53                     54
                      A                      A                      A
 Frequencies --   1345.0827              1357.4931              1376.0191
 Red. masses --      1.6107                 1.4371                 1.2588
 Frc consts  --      1.7169                 1.5603                 1.4043
 IR Inten    --     82.3419                12.7654                 2.3014

                     55                     56                     57
                      A                      A                      A
 Frequencies --   1382.6354              1397.2659              1402.7264
 Red. masses --      1.5182                 1.4783                 1.2739
 Frc consts  --      1.7100                 1.7005                 1.4768
 IR Inten    --      7.7836                43.7957                30.9494

                     58                     59                     60
                      A                      A                      A
 Frequencies --   1407.4394              1418.3555              1430.6050
 Red. masses --      1.2974                 1.3454                 1.4622
 Frc consts  --      1.5142                 1.5947                 1.7631
 IR Inten    --     47.4411                 1.7002                47.2426

                     61                     62                     63
                      A                      A                      A
 Frequencies --   1440.4468              1449.0691              1486.6440
 Red. masses --      1.3621                 1.2622                 1.4661
 Frc consts  --      1.6652                 1.5615                 1.9091
 IR Inten    --      5.6857                 6.3838                55.2815

                     64                     65                     66
                      A                      A                      A
 Frequencies --   1497.5104              1502.6651              1510.6494
 Red. masses --      1.0876                 1.1029                 1.1367
 Frc consts  --      1.4370                 1.4673                 1.5283
 IR Inten    --      5.6239                14.3172                32.0929

                     67                     68                     69
                      A                      A                      A
 Frequencies --   1514.3022              1518.1315              1526.3638
 Red. masses --      1.0670                 1.0928                 1.0592
 Frc consts  --      1.4416                 1.4839                 1.4540
 IR Inten    --      2.1367                 3.0379                15.4109

                     70                     71                     72
                      A                      A                      A
 Frequencies --   1531.4076              1536.3526              1545.7553
 Red. masses --      1.1240                 1.0600                 1.1341
 Frc consts  --      1.5531                 1.4741                 1.5966
 IR Inten    --      3.3116                 8.6797                20.3347

                     73                     74                     75
                      A                      A                      A
 Frequencies --   1650.1338              1792.6862              2981.2969
 Red. masses --      1.2155                 7.8726                 1.0716
 Frc consts  --      1.9500                14.9066                 5.6115
 IR Inten    --    206.3998               362.8656                19.6021

                     76                     77                     78
                      A                      A                      A
 Frequencies --   2985.2506              3019.9589              3023.1712
 Red. masses --      1.0712                 1.0603                 1.0630
 Frc consts  --      5.6245                 5.6972                 5.7239
 IR Inten    --     50.0749                31.3425                46.4248

                     79                     80                     81
                      A                      A                      A
 Frequencies --   3040.7949              3048.0174              3057.6289
 Red. masses --      1.0705                 1.0605                 1.0386
 Frc consts  --      5.8322                 5.8050                 5.7210
 IR Inten    --     67.9422                22.5844                17.2252

                     82                     83                     84
                      A                      A                      A
 Frequencies --   3059.4347              3060.3344              3061.0124
 Red. masses --      1.0975                 1.0834                 1.0847
 Frc consts  --      6.0525                 5.9784                 5.9882
 IR Inten    --     63.5460                23.8626                17.1555

                     85                     86                     87
                      A                      A                      A
 Frequencies --   3096.5683              3109.1650              3111.7778
 Red. masses --      1.1044                 1.0932                 1.0932
 Frc consts  --      6.2394                 6.2266                 6.2366
 IR Inten    --     35.2267                48.9947                43.3077

                     88                     89                     90
                      A                      A                      A
 Frequencies --   3119.9200              3122.6528              3138.7469
 Red. masses --      1.1020                 1.1006                 1.1020
 Frc consts  --      6.3201                 6.3232                 6.3964
 IR Inten    --     47.9844                17.4390                18.6799

                     91                     92                     93
                      A                      A                      A
 Frequencies --   3150.7200              3464.7128              3654.9133
 Red. masses --      1.0930                 1.0575                 1.0907
 Frc consts  --      6.3926                 7.4794                 8.5842
 IR Inten    --     10.2446               133.3410                66.7899

 - Thermochemistry -
 -------------------
 Temperature   298.150 Kelvin.  Pressure   1.00000 Atm.
 Atom     1 has atomic number  6 and mass  12.00000

 Molecular mass:   201.14773 amu.
 Principal axes and moments of inertia in atomic units:
                           1         2         3
     Eigenvalues --  1559.045244461.007275035.70737
           X            0.99966  -0.02550  -0.00441
           Y            0.02548   0.99966  -0.00622
           Z            0.00457   0.00611   0.99997
 This molecule is an asymmetric top.
 Rotational symmetry number  1.
 Warning -- assumption of classical behavior for rotation
           may cause significant error
 Rotational temperatures (Kelvin)      0.05556     0.01942     0.01720
 Rotational constants (GHZ):           1.15759     0.40456     0.35839
 Zero-point vibrational energy     776815.8 (Joules/Mol)
                                  185.66344 (Kcal/Mol)
 Warning -- explicit consideration of  21 degrees of freedom as
           vibrations may cause significant error
 Vibrational temperatures:     60.88    67.64    74.66   143.10   156.52
          (Kelvin)            190.27   238.25   276.05   324.72   352.36
                              440.19   471.05   483.05   561.23   595.28
                              646.66   665.40   693.50   719.92   812.76
                              824.16   899.80   928.12  1008.17  1117.59
                             1128.73  1163.03  1180.92  1230.99  1244.62
                             1263.20  1300.89  1316.71  1431.36  1456.81
                             1491.63  1520.68  1549.08  1582.76  1592.50
                             1617.01  1649.13  1651.56  1697.28  1716.87
                             1770.39  1791.73  1819.12  1862.12  1888.06
                             1915.41  1935.27  1953.13  1979.78  1989.30
                             2010.35  2018.21  2024.99  2040.70  2058.32
                             2072.48  2084.89  2138.95  2154.58  2162.00
                             2173.49  2178.74  2184.25  2196.10  2203.35
                             2210.47  2224.00  2374.17  2579.28  4289.42
                             4295.11  4345.05  4349.67  4375.03  4385.42
                             4399.25  4401.84  4403.14  4404.11  4455.27
                             4473.40  4477.15  4488.87  4492.80  4515.96
                             4533.18  4984.95  5258.61

 Zero-point correction=                           0.295874 (Hartree/Particle)
 Thermal correction to Energy=                    0.310208
 Thermal correction to Enthalpy=                  0.311152
 Thermal correction to Gibbs Free Energy=         0.253998
 Sum of electronic and zero-point Energies=           -668.865702
 Sum of electronic and thermal Energies=              -668.851368
 Sum of electronic and thermal Enthalpies=            -668.850423
 Sum of electronic and thermal Free Energies=         -668.907578

                     E (Thermal)             CV                S
                      KCal/Mol        Cal/Mol-Kelvin    Cal/Mol-Kelvin
 Total                  194.658             54.587            120.291
 Electronic               0.000              0.000              0.000
 Translational            0.889              2.981             41.801
 Rotational               0.889              2.981             31.927
 Vibrational            192.881             48.625             46.563
 Vibration     1          0.595              1.980              5.148
 Vibration     2          0.595              1.979              4.939
 Vibration     3          0.596              1.977              4.744
 Vibration     4          0.604              1.949              3.465
 Vibration     5          0.606              1.942              3.291
 Vibration     6          0.612              1.921              2.913
 Vibration     7          0.624              1.885              2.485
 Vibration     8          0.634              1.851              2.210
 Vibration     9          0.650              1.802              1.913
 Vibration    10          0.660              1.771              1.767
 Vibration    11          0.696              1.662              1.384
 Vibration    12          0.711              1.621              1.273
 Vibration    13          0.717              1.604              1.232
 Vibration    14          0.758              1.491              1.000
 Vibration    15          0.777              1.440              0.913
 Vibration    16          0.808              1.362              0.797
 Vibration    17          0.820              1.333              0.759
 Vibration    18          0.838              1.290              0.705
 Vibration    19          0.856              1.249              0.657
 Vibration    20          0.921              1.107              0.514
 Vibration    21          0.929              1.090              0.499

 Optimization completed.
    -- Stationary point found.
 Normal termination of Gaussian 16 at Thu Dec 10 09:25:12 2020.

 ----------------------------------------------------------------------
 # B3LYP/6-311++G(d,p) empiricaldispersion=gd3bj scf=xqc pop=npa geom=c
 heck
 ----------------------------------------------------------------------

 --------------------------------------
 CID_21537622_JID_4012_Energie_neutraal
 --------------------------------------
 Structure from the checkpoint file:  "JID_4012.chk"
 Charge =  0 Multiplicity = 1

 SCF Done:  E(RB3LYP) =  -669.361428531     A.U. after   13 cycles
 Normal termination of Gaussian 16 at Thu Dec 10 09:28:52 2020.

 ----------------------------------------------------------------------
 # B3LYP/6-311++G(d,p) empiricaldispersion=gd3bj scf=xqc pop=npa geom=c
 heck
 ----------------------------------------------------------------------

 ------------------------------------
 CID_21537622_JID_4012_Energie_kation
 ------------------------------------
 Structure from the checkpoint file:  "JID_4012.chk"
 Charge =  1 Multiplicity = 2

 SCF Done:  E(UB3LYP) =  -669.060513712     A.U. after   33 cycles
 SCF Done:  E(UB3LYP) =  -669.060513713     a.u. after    2 cycles
 Normal termination of Gaussian 16 at Thu Dec 10 09:49:30 2020.
 Gaussian 16:  ES64L-G16RevA.03 25-Dec-2016

 ----------------------------------------------------------------------
 # B3LYP/6-311++G(d,p) empiricaldispersion=gd3bj scf=xqc pop=npa geom=c
 heck
 ----------------------------------------------------------------------

 -----------------------------------
 CID_21537622_JID_4012_Energie_anion
 -----------------------------------
 Structure from the checkpoint file:  "JID_4012.chk"
 Charge = -1 Multiplicity = 2

                         Standard orientation:
 ---------------------------------------------------------------------
 Center     Atomic      Atomic             Coordinates (Angstroms)
 Number     Number       Type             X           Y           Z
 ---------------------------------------------------------------------
      1          6           0        3.516895   -1.326797   -0.947906
      2          6           0        2.405571   -2.017962   -0.155311
      3          6           0        1.690613   -1.089283    0.835896
      4          7           0        1.083755    0.090478    0.221946
      5          6           0       -0.074408   -0.085399   -0.626884
      6          7           0       -1.207576    0.744635   -0.189385
      7          6           0       -1.687169    0.433507    1.166347
      8          6           0       -2.552644   -0.826795    1.207102
      9          8           0       -3.640796   -0.726309    0.294021
     10          6           0       -3.179852   -0.533248   -1.037520
     11          6           0       -2.329924    0.736548   -1.137488
     12          6           0        1.794529    1.287519    0.252308
     13          8           0        2.886956    1.395593    0.800007
     14          7           0        1.175373    2.331595   -0.411582
     15          1           0        3.111540   -0.530179   -1.580685
     16          1           0        4.034926   -2.040972   -1.597504
     17          1           0        4.249094   -0.864628   -0.279364
     18          1           0        1.671474   -2.453764   -0.848383
     19          1           0        2.817207   -2.859803    0.417908
     20          1           0        0.903916   -1.644325    1.364134
     21          1           0        2.400740   -0.718737    1.576655
     22          1           0        0.144087    0.211786   -1.660731
     23          1           0       -0.299472   -1.160810   -0.634492
     24          1           0       -2.287861    1.284529    1.509324
     25          1           0       -0.821405    0.341566    1.828637
     26          1           0       -1.950868   -1.722147    0.974882
     27          1           0       -2.992872   -0.965112    2.199023
     28          1           0       -4.072000   -0.455677   -1.666287
     29          1           0       -2.604764   -1.414820   -1.368751
     30          1           0       -2.966533    1.600128   -0.908382
     31          1           0       -1.940310    0.864966   -2.154333
     32          1           0        0.156623    2.317491   -0.395315
     33          1           0        1.614676    3.220732   -0.214670
 ---------------------------------------------------------------------

 SCF Done:  E(UB3LYP) =  -669.349730309     A.U. after   30 cycles

 The electronic state is 2-A.
 Alpha  occ. eigenvalues --  -19.03005 -18.98254 -14.23867 -14.22270 -14.22147
 Alpha  occ. eigenvalues --  -10.19461 -10.13776 -10.12118 -10.11783 -10.10314
 Alpha  occ. eigenvalues --  -10.10241 -10.10169 -10.07120 -10.05919  -0.94940
 Alpha  occ. eigenvalues --   -0.94607  -0.86333  -0.81496  -0.79432  -0.68303
 Alpha  occ. eigenvalues --   -0.67980  -0.63086  -0.59245  -0.56642  -0.56380
 Alpha  occ. eigenvalues --   -0.51163  -0.48672  -0.45311  -0.44383  -0.41836
 Alpha  occ. eigenvalues --   -0.40596  -0.38670  -0.38404  -0.37634  -0.36669
 Alpha  occ. eigenvalues --   -0.35878  -0.35268  -0.33777  -0.32252  -0.31708
 Alpha  occ. eigenvalues --   -0.31364  -0.30198  -0.28765  -0.28489  -0.27178
 Alpha  occ. eigenvalues --   -0.26204  -0.25657  -0.25259  -0.23928  -0.22577
 Alpha  occ. eigenvalues --   -0.18980  -0.18266  -0.16625  -0.14895  -0.12582
 Alpha  occ. eigenvalues --    0.04271
 Alpha virt. eigenvalues --    0.06414   0.06948   0.07297   0.08511   0.08928
 Alpha virt. eigenvalues --    0.09361   0.09632   0.10260   0.11088   0.11277
 Alpha virt. eigenvalues --    0.12276   0.12406   0.12876   0.13643   0.13821

  Beta  occ. eigenvalues --  -19.02994 -18.98251 -14.23867 -14.22273 -14.22132
  Beta  occ. eigenvalues --  -10.19461 -10.13746 -10.12091 -10.11752 -10.10300
  Beta  occ. eigenvalues --  -10.10224 -10.10139 -10.07096 -10.05907  -0.94934
  Beta  occ. eigenvalues --   -0.94585  -0.86321  -0.81484  -0.79411  -0.68268
  Beta  occ. eigenvalues --   -0.67936  -0.63046  -0.59215  -0.56592  -0.56318
  Beta  occ. eigenvalues --   -0.51116  -0.48607  -0.45276  -0.44341  -0.41788
  Beta  occ. eigenvalues --   -0.40564  -0.38625  -0.38363  -0.37603  -0.36630
  Beta  occ. eigenvalues --   -0.35845  -0.35222  -0.33749  -0.32239  -0.31687
  Beta  occ. eigenvalues --   -0.31343  -0.30142  -0.28738  -0.28466  -0.27131
  Beta  occ. eigenvalues --   -0.26170  -0.25622  -0.25223  -0.23898  -0.22552
  Beta  occ. eigenvalues --   -0.18932  -0.18243  -0.16611  -0.14883  -0.12554
  Beta virt. eigenvalues --    0.06526   0.07131   0.07691   0.07997   0.08944
  Beta virt. eigenvalues --    0.09311   0.09905   0.10159   0.10603   0.11459
  Beta virt. eigenvalues --    0.11607   0.12535   0.12804   0.12980   0.13898

 Mulliken charges and spin densities:
               1          2
     1  C    0.018736  -0.583173
     2  C    0.044063  -0.180950
     3  C    0.360252  -0.522782
     4  N    0.063000   0.050112
     5  C   -0.604310  -0.344543
     6  N   -0.188970   0.165531
     7  C   -0.049220  -0.055538
     8  C    0.433885  -0.887498
     9  O   -0.192765   0.081052
    10  C    0.775163  -1.229393
    11  C    0.299983  -0.290381
    12  C    0.218699  -0.050730
    13  O   -0.370462  -0.000856
    14  N   -0.412351   0.019902
    15  H   -0.018935   0.181951
    16  H   -0.093485   0.229006
    17  H    0.202029  -0.049323
    18  H   -0.597709   0.721485
    19  H   -0.205941   0.358805
    20  H   -0.151291   0.285371
    21  H    0.068054   0.130070
    22  H   -0.199998   0.433914
    23  H    1.355447  -1.190633
    24  H   -0.072298   0.260338
    25  H    0.148435   0.013110
    26  H   -0.268081   0.443019
    27  H   -0.216855   0.405456
    28  H   -0.486409   0.695533
    29  H   -0.589029   0.731775
    30  H   -0.144748   0.320875
    31  H   -0.399548   0.543944
    32  H    0.113655   0.188863
    33  H    0.161004   0.125688
 Sum of Mulliken charges =  -1.00000   1.00000

 Dipole moment (field-independent basis, Debye):
    X=              1.9430    Y=              2.5135    Z=              2.7104  Tot=              4.1760
 Quadrupole moment (field-independent basis, Debye-Ang):
   XX=           -160.3046   YY=           -129.2053   ZZ=           -129.7315
   XY=             -3.0853   XZ=             -6.5565   YZ=             -1.9029

 Summary of Natural Population Analysis:

                                       Natural Population
                Natural  -----------------------------------------------
    Atom  No    Charge         Core      Valence    Rydberg      Total
 -----------------------------------------------------------------------
      C    1   -0.28899      0.99966     2.28312    0.00621     3.28899
      C    2   -0.19572      0.99964     2.18833    0.00775     3.19572
      C    3   -0.08304      0.99960     2.07190    0.01154     3.08304
      N    4   -0.27774      0.99964     2.76696    0.01114     3.77774
      C    5    0.00774      0.99958     1.97828    0.01440     2.99226
      N    6   -0.29608      0.99974     2.78113    0.01521     3.79608
      C    7   -0.10092      0.99960     2.09051    0.01081     3.10092
      C    8   -0.01963      0.99957     2.00847    0.01159     3.01963
      O    9   -0.29974      0.99989     3.28977    0.01007     4.29974
      C   10   -0.01953      0.99958     2.00728    0.01267     3.01953
      C   11   -0.09971      0.99960     2.08774    0.01237     3.09971
      C   12    0.40943      0.99969     1.56808    0.02280     2.59057
      O   13   -0.34478      0.99988     3.34003    0.00487     4.34478
      N   14   -0.42225      0.99971     2.91467    0.00788     3.92225
      H   15    0.09915      0.00000     0.39984    0.00101     0.40085
      H   16    0.09626      0.00000     0.40300    0.00074     0.40374
      H   17    0.10216      0.00000     0.39700    0.00085     0.39784
      H   18    0.09583      0.00000     0.40225    0.00191     0.40417
      H   19    0.09597      0.00000     0.40294    0.00109     0.40403
      H   20    0.09393      0.00000     0.40471    0.00136     0.40607
      H   21    0.11105      0.00000     0.38773    0.00122     0.38895
      H   22    0.10060      0.00000     0.39735    0.00206     0.39940
      H   23    0.09382      0.00000     0.40368    0.00250     0.40618
      H   24    0.09685      0.00000     0.40194    0.00121     0.40315
      H   25    0.10401      0.00000     0.39471    0.00128     0.39599
      H   26    0.07946      0.00000     0.41875    0.00179     0.42054
      H   27    0.09303      0.00000     0.40559    0.00138     0.40697
      H   28    0.09488      0.00000     0.40331    0.00181     0.40512
      H   29    0.08000      0.00000     0.41785    0.00215     0.42000
      H   30    0.09680      0.00000     0.40171    0.00148     0.40320
      H   31    0.10334      0.00000     0.39425    0.00240     0.39666
      H   32    0.20366      0.00000     0.29367    0.00266     0.29634
      H   33    0.19014      0.00000     0.30821    0.00165     0.30986
 =======================================================================
   * Total *   -0.00000     13.99540    40.81474    0.18987    55.00000

 Normal termination of Gaussian 16 at Thu Dec 10 10:01:09 2020.
