 Gaussian 16, Revision A.03,

 -----------------------------------------------------------
 # opt freq B3LYP/6-31G(d) empiricaldispersion=gd3bj scf=xqc
 -----------------------------------------------------------

 ------------------------------
 CID_18405541_JID_3878_neutraal
 ------------------------------
 Symbolic Z-matrix:
 Charge =  0 Multiplicity = 1

 SCF Done:  E(RB3LYP) =  -652.316460077     A.U. after   15 cycles
 SCF Done:  E(RB3LYP) =  -652.318725683     A.U. after   14 cycles
 SCF Done:  E(RB3LYP) =  -652.318776015     A.U. after   14 cycles
 SCF Done:  E(RB3LYP) =  -652.319741844     A.U. after   13 cycles
 SCF Done:  E(RB3LYP) =  -652.320113555     A.U. after   13 cycles
 SCF Done:  E(RB3LYP) =  -652.320152061     A.U. after   12 cycles
 SCF Done:  E(RB3LYP) =  -652.320273362     A.U. after   12 cycles
 SCF Done:  E(RB3LYP) =  -652.320426579     A.U. after   13 cycles
 SCF Done:  E(RB3LYP) =  -652.320489142     A.U. after   13 cycles
 SCF Done:  E(RB3LYP) =  -652.320591613     A.U. after   12 cycles
 SCF Done:  E(RB3LYP) =  -652.320794028     A.U. after   12 cycles
 SCF Done:  E(RB3LYP) =  -652.320796348     A.U. after    9 cycles
 SCF Done:  E(RB3LYP) =  -652.320796229     A.U. after   10 cycles
 SCF Done:  E(RB3LYP) =  -652.320796264     A.U. after   10 cycles
 SCF Done:  E(RB3LYP) =  -652.320796185     A.U. after    8 cycles
 SCF Done:  E(RB3LYP) =  -652.320796085     A.U. after    8 cycles
 Optimization completed.
    -- Stationary point found.

 1\1\GINC-NODE303\FOpt\RB3LYP\6-31G(d)\C9H14O4\VSC10255\13-Dec-2020\0\\
 # opt freq B3LYP/6-31G(d) empiricaldispersion=gd3bj scf=xqc\\CID_18405
 541_JID_3878_neutraal\\0,1\C,0.7098611499,0.0806413931,0.0573426275\C,
 0.3509239097,-0.8344395488,1.2404497318\C,1.231267057,-0.4649747437,2.
 4471552453\C,-1.1263914616,-0.624884766,1.6163342752\C,0.6182679155,-2
 .3218740193,0.9036946551\C,-0.0569745947,-2.8438235355,-0.374250809\C,
 0.7193296691,-2.5402814447,-1.6308611166\O,1.9312158161,-2.5219161112,
 -1.7242279987\C,-0.0846089961,-2.18991536,-2.8960655457\O,-1.241167723

 Normal termination of Gaussian 16 at Sun Dec 13 16:06:49 2020.

 --------------------------------------------------------------------
 #N Geom=AllCheck Guess=TCheck SCRF=Check GenChk RB3LYP/6-31G(d) Freq
 --------------------------------------------------------------------

 Structure from the checkpoint file:  "JID_3878.chk"
 ------------------------------
 CID_18405541_JID_3878_neutraal
 ------------------------------
 Charge =  0 Multiplicity = 1

 SCF Done:  E(RB3LYP) =  -652.320796085     A.U. after    1 cycles

  Exact polarizability: 119.740   2.639  93.792   4.751   0.089  91.596
 Approx polarizability: 143.843  10.151 160.398   5.121   7.574 142.810

                      1                      2                      3
                      A                      A                      A
 Frequencies --     14.9520                32.4448                41.3885
 Red. masses --      7.1468                 5.9646                 3.8149
 Frc consts  --      0.0009                 0.0037                 0.0039
 IR Inten    --      2.7921                 0.6423                 0.6156

                      4                      5                      6
                      A                      A                      A
 Frequencies --     56.2997               105.1469               140.7499
 Red. masses --      5.3060                 5.8251                 4.7874
 Frc consts  --      0.0099                 0.0379                 0.0559
 IR Inten    --      1.3275                 2.6012                 1.5398

                      7                      8                      9
                      A                      A                      A
 Frequencies --    195.8964               222.4879               234.5161
 Red. masses --      8.0508                 1.6686                 2.8119
 Frc consts  --      0.1820                 0.0487                 0.0911
 IR Inten    --      6.4805                 5.0909                 1.2678

                     10                     11                     12
                      A                      A                      A
 Frequencies --    246.9219               269.4157               283.3435
 Red. masses --      1.5533                 2.8833                 1.1666
 Frc consts  --      0.0558                 0.1233                 0.0552
 IR Inten    --      1.7275                 2.7190                 1.7893

                     13                     14                     15
                      A                      A                      A
 Frequencies --    319.5142               338.4516               346.6204
 Red. masses --      1.0562                 5.8706                 2.0961
 Frc consts  --      0.0635                 0.3962                 0.1484
 IR Inten    --      0.4838                10.5678                 0.9977

                     16                     17                     18
                      A                      A                      A
 Frequencies --    373.5799               410.2964               416.7572
 Red. masses --      2.6837                 2.4070                 2.2748
 Frc consts  --      0.2207                 0.2387                 0.2328
 IR Inten    --      2.0791                 2.8078                 1.7916

                     19                     20                     21
                      A                      A                      A
 Frequencies --    435.1901               482.1131               509.3274
 Red. masses --      3.0258                 3.3943                 3.0988
 Frc consts  --      0.3376                 0.4648                 0.4736
 IR Inten    --      8.9441                24.9371                 4.3277

                     22                     23                     24
                      A                      A                      A
 Frequencies --    621.3919               644.0066               680.9377
 Red. masses --      2.9415                 1.7617                 3.1817
 Frc consts  --      0.6692                 0.4305                 0.8692
 IR Inten    --     55.5608               133.0090                36.1613

                     25                     26                     27
                      A                      A                      A
 Frequencies --    722.4872               754.5696               794.0314
 Red. masses --      3.3336                 3.8813                 5.3295
 Frc consts  --      1.0252                 1.3020                 1.9798
 IR Inten    --      2.5254                19.1706                14.5882

                     28                     29                     30
                      A                      A                      A
 Frequencies --    882.9159               904.0882               941.2196
 Red. masses --      2.1976                 3.3075                 2.2828
 Frc consts  --      1.0093                 1.5929                 1.1915
 IR Inten    --      2.1449                47.9947                 6.9454

                     31                     32                     33
                      A                      A                      A
 Frequencies --    947.3922               964.2666               975.5249
 Red. masses --      1.8607                 1.6916                 1.2115
 Frc consts  --      0.9840                 0.9267                 0.6793
 IR Inten    --      2.5187                10.2729                 0.1956

                     34                     35                     36
                      A                      A                      A
 Frequencies --    985.4859              1043.8018              1070.2177
 Red. masses --      1.8734                 2.0275                 1.4521
 Frc consts  --      1.0719                 1.3015                 0.9799
 IR Inten    --     18.2710                14.1185                 0.6584

                     37                     38                     39
                      A                      A                      A
 Frequencies --   1091.8475              1161.3410              1198.0892
 Red. masses --      1.8537                 2.7233                 1.3276
 Frc consts  --      1.3020                 2.1640                 1.1228
 IR Inten    --     23.8273                96.4160                27.3787

                     40                     41                     42
                      A                      A                      A
 Frequencies --   1211.9662              1239.8345              1258.6897
 Red. masses --      1.6208                 2.2465                 2.1433
 Frc consts  --      1.4027                 2.0347                 2.0007
 IR Inten    --     12.2150                61.9993                 5.0535

                     43                     44                     45
                      A                      A                      A
 Frequencies --   1295.4959              1330.3410              1388.4805
 Red. masses --      2.5106                 1.7756                 1.4844
 Frc consts  --      2.4825                 1.8515                 1.6860
 IR Inten    --      4.9647                 4.5600                 0.7374

                     46                     47                     48
                      A                      A                      A
 Frequencies --   1407.6170              1416.8285              1430.0192
 Red. masses --      2.0587                 2.1211                 1.2457
 Frc consts  --      2.4033                 2.5087                 1.5009
 IR Inten    --      9.8004                58.3080                 7.7138

                     49                     50                     51
                      A                      A                      A
 Frequencies --   1431.7689              1460.9277              1492.2426
 Red. masses --      1.2407                 1.2258                 1.0834
 Frc consts  --      1.4986                 1.5414                 1.4214
 IR Inten    --      4.2637                 5.4565                15.1844

                     52                     53                     54
                      A                      A                      A
 Frequencies --   1511.8838              1514.0511              1519.2371
 Red. masses --      1.0683                 1.0504                 1.0472
 Frc consts  --      1.4387                 1.4187                 1.4241
 IR Inten    --      1.0086                 0.1413                 0.7785

                     55                     56                     57
                      A                      A                      A
 Frequencies --   1522.1302              1541.1236              1542.6079
 Red. masses --      1.0541                 1.0597                 1.0610
 Frc consts  --      1.4389                 1.4829                 1.4875
 IR Inten    --      1.5705                 4.3242                12.0487

                     58                     59                     60
                      A                      A                      A
 Frequencies --   1551.3598              1799.4071              1816.7884
 Red. masses --      1.0577                11.9416                13.1005
 Frc consts  --      1.4997                22.7808                25.4769
 IR Inten    --     12.9181                43.5504               130.1777

                     61                     62                     63
                      A                      A                      A
 Frequencies --   1847.6207              3029.6419              3038.6112
 Red. masses --     11.0234                 1.0711                 1.0348
 Frc consts  --     22.1713                 5.7924                 5.6295
 IR Inten    --    226.3545                 9.4924                31.7704

                     64                     65                     66
                      A                      A                      A
 Frequencies --   3041.3239              3046.9786              3056.5423
 Red. masses --      1.0352                 1.0401                 1.0570
 Frc consts  --      5.6416                 5.6896                 5.8180
 IR Inten    --     28.2474                18.7041                20.8095

                     67                     68                     69
                      A                      A                      A
 Frequencies --   3093.0810              3104.0347              3105.1577
 Red. masses --      1.1032                 1.1014                 1.1023
 Frc consts  --      6.2186                 6.2525                 6.2621
 IR Inten    --      5.0018                16.7396                 3.0640

                     70                     71                     72
                      A                      A                      A
 Frequencies --   3109.7375              3111.4557              3113.7456
 Red. masses --      1.1025                 1.1016                 1.1008
 Frc consts  --      6.2819                 6.2837                 6.2880
 IR Inten    --     22.3154                54.9536                70.2387

                     73                     74                     75
                      A                      A                      A
 Frequencies --   3123.0222              3130.8338              3657.7041
 Red. masses --      1.1021                 1.0888                 1.0638
 Frc consts  --      6.3331                 6.2883                 8.3852
 IR Inten    --     29.2855                11.6748                59.0703

 - Thermochemistry -
 -------------------
 Temperature   298.150 Kelvin.  Pressure   1.00000 Atm.
 Atom     1 has atomic number  6 and mass  12.00000

 Molecular mass:   186.08921 amu.
 Principal axes and moments of inertia in atomic units:
                           1         2         3
     Eigenvalues --  1080.294484694.597764790.98917
           X            1.00000   0.00188   0.00013
           Y           -0.00186   0.99716  -0.07531
           Z           -0.00027   0.07530   0.99716
 This molecule is an asymmetric top.
 Rotational symmetry number  1.
 Warning -- assumption of classical behavior for rotation
           may cause significant error
 Rotational temperatures (Kelvin)      0.08018     0.01845     0.01808
 Rotational constants (GHZ):           1.67060     0.38443     0.37669
 Zero-point vibrational energy     587075.3 (Joules/Mol)
                                  140.31436 (Kcal/Mol)
 Warning -- explicit consideration of  21 degrees of freedom as
           vibrations may cause significant error
 Vibrational temperatures:     21.51    46.68    59.55    81.00   151.28
          (Kelvin)            202.51   281.85   320.11   337.42   355.27
                              387.63   407.67   459.71   486.96   498.71
                              537.50   590.32   599.62   626.14   693.65
                              732.81   894.04   926.58   979.72  1039.50
                             1085.66  1142.43  1270.32  1300.78  1354.21
                             1363.09  1387.36  1403.56  1417.89  1501.80
                             1539.80  1570.93  1670.91  1723.78  1743.75
                             1783.85  1810.97  1863.93  1914.06  1997.71
                             2025.25  2038.50  2057.48  2060.00  2101.95
                             2147.00  2175.26  2178.38  2185.84  2190.01
                             2217.33  2219.47  2232.06  2588.95  2613.95
                             2658.31  4358.98  4371.88  4375.79  4383.92
                             4397.68  4450.25  4466.01  4467.63  4474.22
                             4476.69  4479.99  4493.33  4504.57  5262.62

 Zero-point correction=                           0.223605 (Hartree/Particle)
 Thermal correction to Energy=                    0.238343
 Thermal correction to Enthalpy=                  0.239287
 Thermal correction to Gibbs Free Energy=         0.179942
 Sum of electronic and zero-point Energies=           -652.097191
 Sum of electronic and thermal Energies=              -652.082453
 Sum of electronic and thermal Enthalpies=            -652.081509
 Sum of electronic and thermal Free Energies=         -652.140854

                     E (Thermal)             CV                S
                      KCal/Mol        Cal/Mol-Kelvin    Cal/Mol-Kelvin
 Total                  149.562             53.019            124.902
 Electronic               0.000              0.000              0.000
 Translational            0.889              2.981             41.569
 Rotational               0.889              2.981             31.564
 Vibrational            147.785             47.058             51.769
 Vibration     1          0.593              1.986              7.212
 Vibration     2          0.594              1.983              5.674
 Vibration     3          0.594              1.981              5.191
 Vibration     4          0.596              1.975              4.583
 Vibration     5          0.605              1.945              3.357
 Vibration     6          0.615              1.913              2.794
 Vibration     7          0.636              1.846              2.171
 Vibration     8          0.648              1.807              1.939
 Vibration     9          0.654              1.788              1.844
 Vibration    10          0.661              1.768              1.752
 Vibration    11          0.674              1.729              1.600
 Vibration    12          0.682              1.705              1.513
 Vibration    13          0.705              1.636              1.313
 Vibration    14          0.719              1.599              1.219
 Vibration    15          0.725              1.582              1.182
 Vibration    16          0.745              1.526              1.065
 Vibration    17          0.774              1.448              0.926
 Vibration    18          0.780              1.434              0.903
 Vibration    19          0.796              1.394              0.842
 Vibration    20          0.838              1.290              0.704
 Vibration    21          0.864              1.229              0.635

 Optimization completed.
    -- Stationary point found.

 1\1\GINC-NODE303\Freq\RB3LYP\6-31G(d)\C9H14O4\VSC10255\13-Dec-2020\0\\
 #N Geom=AllCheck Guess=TCheck SCRF=Check GenChk RB3LYP/6-31G(d) Freq\\
 CID_18405541_JID_3878_neutraal\\0,1\C,0.7098611499,0.0806413931,0.0573
 426275\C,0.3509239097,-0.8344395488,1.2404497318\C,1.231267057,-0.4649
 747437,2.4471552453\C,-1.1263914616,-0.624884766,1.6163342752\C,0.6182
 679155,-2.3218740193,0.9036946551\C,-0.0569745947,-2.8438235355,-0.374
 250809\C,0.7193296691,-2.5402814447,-1.6308611166\O,1.9312158161,-2.52
 19161112,-1.7242279987\C,-0.0846089961,-2.18991536,-2.8960655457\O,-1.

 Normal termination of Gaussian 16 at Sun Dec 13 16:13:08 2020.

 ----------------------------------------------------------------------
 # B3LYP/6-311++G(d,p) empiricaldispersion=gd3bj scf=xqc pop=npa geom=c
 heck
 ----------------------------------------------------------------------

 --------------------------------------
 CID_18405541_JID_3878_Energie_neutraal
 --------------------------------------
 Structure from the checkpoint file:  "JID_3878.chk"
 Charge =  0 Multiplicity = 1

 SCF Done:  E(RB3LYP) =  -652.522961783     A.U. after   15 cycles
 Normal termination of Gaussian 16 at Sun Dec 13 16:15:34 2020.

 ----------------------------------------------------------------------
 # B3LYP/6-311++G(d,p) empiricaldispersion=gd3bj scf=xqc pop=npa geom=c
 heck
 ----------------------------------------------------------------------

 ------------------------------------
 CID_18405541_JID_3878_Energie_kation
 ------------------------------------
 Structure from the checkpoint file:  "JID_3878.chk"
 Charge =  1 Multiplicity = 2

 SCF Done:  E(UB3LYP) =  -652.174817772     A.U. after   25 cycles
 Normal termination of Gaussian 16 at Sun Dec 13 16:20:56 2020.
 Gaussian 16:  ES64L-G16RevA.03 25-Dec-2016

 -----------------------------------
 CID_18405541_JID_3878_Energie_anion
 -----------------------------------
 Structure from the checkpoint file:  "JID_3878.chk"
 Charge = -1 Multiplicity = 2

                         Standard orientation:
 ---------------------------------------------------------------------
 Center     Atomic      Atomic             Coordinates (Angstroms)
 Number     Number       Type             X           Y           Z
 ---------------------------------------------------------------------
      1          6           0        1.662607    0.643967   -1.313116
      2          6           0        2.592107    0.104288   -0.212786
      3          6           0        3.802795   -0.582091   -0.869112
      4          6           0        3.089564    1.275021    0.652999
      5          6           0        1.874115   -0.950743    0.663989
      6          6           0        0.544596   -0.499465    1.288695
      7          6           0       -0.634290   -0.639700    0.358954
      8          8           0       -0.786416   -1.526489   -0.458473
      9          6           0       -1.722675    0.447162    0.421925
     10          8           0       -1.545274    1.538703    0.914155
     11          6           0       -3.073150    0.030325   -0.166175
     12          8           0       -3.765377   -0.794748    0.379520
     13          8           0       -3.395999    0.719022   -1.269342
     14          1           0        0.822788    1.210358   -0.892374
     15          1           0        1.255382   -0.166260   -1.927271
     16          1           0        2.209147    1.328319   -1.972178
     17          1           0        4.371090    0.128513   -1.480461
     18          1           0        4.482551   -0.992233   -0.112438
     19          1           0        3.484267   -1.406288   -1.518117
     20          1           0        2.262721    1.815695    1.126846
     21          1           0        3.761431    0.922315    1.444816
     22          1           0        3.642486    1.997494    0.041547
     23          1           0        1.678340   -1.848489    0.066135
     24          1           0        2.555778   -1.249591    1.469318
     25          1           0        0.306826   -1.140149    2.151506
     26          1           0        0.579304    0.523581    1.671591
     27          1           0       -4.281593    0.412240   -1.548033
 ---------------------------------------------------------------------

 SCF Done:  E(UB3LYP) =  -652.567906720     A.U. after   23 cycles

 The electronic state is 2-A.
 Alpha  occ. eigenvalues --  -19.04187 -18.97304 -18.92294 -18.92137 -10.15496
 Alpha  occ. eigenvalues --  -10.07005 -10.05925 -10.05610 -10.05510 -10.05166
 Alpha  occ. eigenvalues --  -10.03958 -10.03463 -10.02539  -0.97696  -0.88660
 Alpha  occ. eigenvalues --   -0.87179  -0.85817  -0.71345  -0.62369  -0.58185
 Alpha  occ. eigenvalues --   -0.56989  -0.54648  -0.52471  -0.45613  -0.41778
 Alpha  occ. eigenvalues --   -0.37921  -0.35243  -0.35197  -0.34586  -0.32988
 Alpha  occ. eigenvalues --   -0.32351  -0.30662  -0.29725  -0.29028  -0.28132
 Alpha  occ. eigenvalues --   -0.26983  -0.26199  -0.25677  -0.25359  -0.23910
 Alpha  occ. eigenvalues --   -0.23511  -0.22736  -0.20697  -0.20525  -0.19849
 Alpha  occ. eigenvalues --   -0.19127  -0.18109  -0.16299  -0.11730  -0.05756
 Alpha  occ. eigenvalues --    0.03056
 Alpha virt. eigenvalues --    0.07517   0.09330   0.09667   0.09848   0.11082
 Alpha virt. eigenvalues --    0.12123   0.12478   0.12951   0.13609   0.14156
 Alpha virt. eigenvalues --    0.14761   0.15961   0.16121   0.16304   0.16864

  Beta  occ. eigenvalues --  -19.04167 -18.97229 -18.91503 -18.91502 -10.15497
  Beta  occ. eigenvalues --  -10.07004 -10.05679 -10.05608 -10.05165 -10.05134
  Beta  occ. eigenvalues --  -10.03938 -10.03460 -10.02567  -0.97620  -0.88507
  Beta  occ. eigenvalues --   -0.85950  -0.84562  -0.71329  -0.62228  -0.58183
  Beta  occ. eigenvalues --   -0.56981  -0.53916  -0.52249  -0.44793  -0.41684
  Beta  occ. eigenvalues --   -0.37436  -0.35148  -0.35118  -0.34516  -0.32860
  Beta  occ. eigenvalues --   -0.32214  -0.30421  -0.29482  -0.28630  -0.27871
  Beta  occ. eigenvalues --   -0.26533  -0.25938  -0.25601  -0.24898  -0.23465
  Beta  occ. eigenvalues --   -0.22772  -0.21756  -0.20385  -0.19864  -0.19150
  Beta  occ. eigenvalues --   -0.18665  -0.15845  -0.15170  -0.11078  -0.05063
  Beta virt. eigenvalues --    0.07480   0.09323   0.09617   0.09789   0.11013
  Beta virt. eigenvalues --    0.11785   0.12292   0.12621   0.12908   0.13719
  Beta virt. eigenvalues --    0.14608   0.14967   0.15938   0.16129   0.16308

 Mulliken charges and spin densities:
               1          2
     1  C   -0.702689  -0.006756
     2  C    0.706508   0.037981
     3  C   -0.499047  -0.013721
     4  C   -0.651694  -0.004387
     5  C   -0.338732  -0.056966
     6  C   -0.171083   0.009141
     7  C    0.084209   0.213812
     8  O   -0.350351   0.213949
     9  C   -0.310847   0.267375
    10  O   -0.347222   0.264871
    11  C   -0.062148   0.019107
    12  O   -0.297409   0.019622
    13  O   -0.102915  -0.003885
    14  H    0.208276  -0.005989
    15  H    0.156829  -0.005845
    16  H    0.116109   0.001428
    17  H    0.115053   0.002285
    18  H    0.112510   0.001729
    19  H    0.137078   0.001780
    20  H    0.149552   0.000086
    21  H    0.112740   0.002514
    22  H    0.120085   0.000003
    23  H    0.180277  -0.001271
    24  H    0.108878   0.005704
    25  H    0.134399   0.029778
    26  H    0.171857   0.000227
    27  H    0.219777   0.007428
 Sum of Mulliken charges =  -1.00000   1.00000

 Dipole moment (field-independent basis, Debye):
    X=              5.6669    Y=              0.6947    Z=             -1.4944  Tot=              5.9017
 Quadrupole moment (field-independent basis, Debye-Ang):
   XX=           -106.9540   YY=            -99.6727   ZZ=            -87.2403
   XY=             -2.0599   XZ=              8.0538   YZ=             -3.7415

 Summary of Natural Population Analysis:

                                       Natural Population
                Natural  -----------------------------------------------
    Atom  No    Charge         Core      Valence    Rydberg      Total
 -----------------------------------------------------------------------
      C    1   -0.28981      0.99963     2.28414    0.00604     3.28981
      C    2   -0.04649      0.99960     2.04025    0.00664     3.04649
      C    3   -0.28092      0.99963     2.27577    0.00552     3.28092
      C    4   -0.28520      0.99963     2.27990    0.00567     3.28520
      C    5   -0.18472      0.99959     2.17473    0.01040     3.18472
      C    6   -0.24284      0.99959     2.23403    0.00922     3.24284
      C    7    0.27214      0.99965     1.70559    0.02262     2.72786
      O    8   -0.23350      0.99987     3.22652    0.00711     4.23350
      C    9    0.24320      0.99961     1.73293    0.02426     2.75680
      O   10   -0.20558      0.99987     3.19857    0.00714     4.20558
      C   11    0.38240      0.99971     1.58962    0.02827     2.61760
      O   12   -0.30643      0.99986     3.29907    0.00750     4.30643
      O   13   -0.34012      0.99987     3.33206    0.00819     4.34012
      H   14    0.11305      0.00000     0.38599    0.00096     0.38695
      H   15    0.10744      0.00000     0.39175    0.00081     0.39256
      H   16    0.08864      0.00000     0.41054    0.00082     0.41136
      H   17    0.09244      0.00000     0.40670    0.00086     0.40756
      H   18    0.09355      0.00000     0.40561    0.00084     0.40645
      H   19    0.09901      0.00000     0.40017    0.00082     0.40099
      H   20    0.10529      0.00000     0.39391    0.00080     0.39471
      H   21    0.09270      0.00000     0.40651    0.00079     0.40730
      H   22    0.09265      0.00000     0.40652    0.00082     0.40735
      H   23    0.10618      0.00000     0.39246    0.00137     0.39382
      H   24    0.08747      0.00000     0.41102    0.00151     0.41253
      H   25    0.10671      0.00000     0.39141    0.00188     0.39329
      H   26    0.10958      0.00000     0.38894    0.00148     0.39042
      H   27    0.22316      0.00000     0.27009    0.00675     0.27684
 =======================================================================
   * Total *    0.00000     12.99613    36.83477    0.16910    50.00000

 Normal termination of Gaussian 16 at Sun Dec 13 16:25:55 2020.
