 Gaussian 16, Revision A.03,

 -----------------------------------------------------------
 # opt freq B3LYP/6-31G(d) empiricaldispersion=gd3bj scf=xqc
 -----------------------------------------------------------

 ----------------------------
 CID_615030_JID_7518_neutraal
 ----------------------------
 Symbolic Z-matrix:
 Charge =  0 Multiplicity = 1

 SCF Done:  E(RB3LYP) =  -713.012835420     A.U. after   14 cycles
 SCF Done:  E(RB3LYP) =  -713.018760876     A.U. after   12 cycles
 SCF Done:  E(RB3LYP) =  -713.019395549     A.U. after   11 cycles
 SCF Done:  E(RB3LYP) =  -713.019529505     A.U. after   11 cycles
 SCF Done:  E(RB3LYP) =  -713.019613399     A.U. after   10 cycles
 SCF Done:  E(RB3LYP) =  -713.019627878     A.U. after    9 cycles
 SCF Done:  E(RB3LYP) =  -713.019631801     A.U. after    8 cycles
 SCF Done:  E(RB3LYP) =  -713.019632780     A.U. after    8 cycles
 SCF Done:  E(RB3LYP) =  -713.019633165     A.U. after    7 cycles
 Optimization completed.
    -- Stationary point found.
 Normal termination of Gaussian 16 at Mon Dec 14 16:36:45 2020.

 --------------------------------------------------------------------
 #N Geom=AllCheck Guess=TCheck SCRF=Check GenChk RB3LYP/6-31G(d) Freq
 --------------------------------------------------------------------

 Structure from the checkpoint file:  "JID_7518.chk"
 ----------------------------
 CID_615030_JID_7518_neutraal
 ----------------------------
 Charge =  0 Multiplicity = 1

 SCF Done:  E(RB3LYP) =  -713.019633165     A.U. after    1 cycles

  Exact polarizability: 189.793  -9.632 159.768  -3.272 -14.806 115.148
 Approx polarizability: 261.593  -9.485 244.996  -7.355 -36.791 186.756

                      1                      2                      3
                      A                      A                      A
 Frequencies --     56.1606                64.5875               104.7671
 Red. masses --      3.7480                 4.1803                 4.0693
 Frc consts  --      0.0070                 0.0103                 0.0263
 IR Inten    --      0.0780                 0.0275                 0.6113

                      4                      5                      6
                      A                      A                      A
 Frequencies --    116.9814               142.7003               190.6088
 Red. masses --      3.7596                 3.3466                 2.4034
 Frc consts  --      0.0303                 0.0402                 0.0514
 IR Inten    --      0.0715                 0.3534                 0.3140

                      7                      8                      9
                      A                      A                      A
 Frequencies --    227.0489               244.1267               277.9299
 Red. masses --      3.1111                 2.5091                 3.8006
 Frc consts  --      0.0945                 0.0881                 0.1730
 IR Inten    --      1.4976                 0.9915                 0.5203

                     10                     11                     12
                      A                      A                      A
 Frequencies --    279.1973               352.0206               358.4646
 Red. masses --      2.5191                 2.6675                 2.3975
 Frc consts  --      0.1157                 0.1948                 0.1815
 IR Inten    --      6.2333                 1.3052                 0.1650

                     13                     14                     15
                      A                      A                      A
 Frequencies --    382.8128               437.5276               464.3959
 Red. masses --      2.4169                 2.9384                 3.1484
 Frc consts  --      0.2087                 0.3314                 0.4001
 IR Inten    --      2.7500                 3.9564                 1.8866

                     16                     17                     18
                      A                      A                      A
 Frequencies --    477.7879               492.3320               512.5366
 Red. masses --      4.6710                 2.6926                 2.5344
 Frc consts  --      0.6282                 0.3845                 0.3923
 IR Inten    --      2.8599                 0.3735                 2.1405

                     19                     20                     21
                      A                      A                      A
 Frequencies --    569.0424               576.2926               613.1101
 Red. masses --      3.4491                 2.4410                 4.0002
 Frc consts  --      0.6580                 0.4776                 0.8860
 IR Inten    --      0.7723                 4.6412                 4.1319

                     22                     23                     24
                      A                      A                      A
 Frequencies --    621.3508               667.3063               735.7352
 Red. masses --      2.1493                 4.8361                 3.4157
 Frc consts  --      0.4889                 1.2688                 1.0894
 IR Inten    --     14.8797                 3.1337                 1.3056

                     25                     26                     27
                      A                      A                      A
 Frequencies --    759.1613               770.3571               810.1119
 Red. masses --      1.4024                 3.3448                 2.6407
 Frc consts  --      0.4762                 1.1695                 1.0211
 IR Inten    --     29.8033                 8.0845                 0.5926

                     28                     29                     30
                      A                      A                      A
 Frequencies --    830.6134               851.9017               853.1252
 Red. masses --      2.4208                 2.0351                 1.8549
 Frc consts  --      0.9840                 0.8702                 0.7954
 IR Inten    --      1.6582                 1.8356                 0.3554

                     31                     32                     33
                      A                      A                      A
 Frequencies --    864.1521               885.9234               896.5067
 Red. masses --      2.8204                 1.3717                 2.5588
 Frc consts  --      1.2409                 0.6343                 1.2117
 IR Inten    --     11.7264                 2.0007                 5.4689

                     34                     35                     36
                      A                      A                      A
 Frequencies --    917.6596               929.1480               936.2777
 Red. masses --      2.4065                 2.3606                 1.4536
 Frc consts  --      1.1940                 1.2007                 0.7508
 IR Inten    --      0.7988                21.1039                 1.7240

                     37                     38                     39
                      A                      A                      A
 Frequencies --    960.3900               979.7854               981.8311
 Red. masses --      2.5988                 1.2500                 2.4181
 Frc consts  --      1.4123                 0.7070                 1.3734
 IR Inten    --      2.5674                 0.0397                 2.1379

                     40                     41                     42
                      A                      A                      A
 Frequencies --   1007.7917              1033.0802              1037.1161
 Red. masses --      2.5682                 2.1396                 2.1928
 Frc consts  --      1.5368                 1.3454                 1.3897
 IR Inten    --     20.5712                 0.3390                 4.3268

                     43                     44                     45
                      A                      A                      A
 Frequencies --   1048.6988              1066.6137              1081.4778
 Red. masses --      2.1347                 3.3502                 2.1229
 Frc consts  --      1.3832                 2.2456                 1.4629
 IR Inten    --     28.4953                 6.5728                 1.7358

                     46                     47                     48
                      A                      A                      A
 Frequencies --   1102.0864              1106.1703              1132.1743
 Red. masses --      2.1846                 1.8329                 1.9622
 Frc consts  --      1.5633                 1.3214                 1.4819
 IR Inten    --     11.5017                15.5460                 3.0303

                     49                     50                     51
                      A                      A                      A
 Frequencies --   1143.9570              1163.2055              1175.5731
 Red. masses --      5.6808                 1.5037                 1.5659
 Frc consts  --      4.3801                 1.1987                 1.2750
 IR Inten    --     74.5870                 0.5623                 1.9471

                     52                     53                     54
                      A                      A                      A
 Frequencies --   1178.5772              1189.3203              1205.9959
 Red. masses --      2.0708                 1.1759                 1.7431
 Frc consts  --      1.6947                 0.9799                 1.4937
 IR Inten    --      2.6295                 0.5485                 9.1325

                     55                     56                     57
                      A                      A                      A
 Frequencies --   1218.8374              1228.0528              1249.1425
 Red. masses --      2.5525                 2.5873                 1.3875
 Frc consts  --      2.2341                 2.2989                 1.2756
 IR Inten    --     27.3017                 4.5823                14.2814

                     58                     59                     60
                      A                      A                      A
 Frequencies --   1258.3921              1286.3245              1298.9935
 Red. masses --      1.3971                 1.6051                 1.3064
 Frc consts  --      1.3035                 1.5648                 1.2988
 IR Inten    --      7.3979                32.2455                27.9580

                     61                     62                     63
                      A                      A                      A
 Frequencies --   1310.6162              1317.3970              1329.8405
 Red. masses --      1.5054                 1.4766                 1.2222
 Frc consts  --      1.5235                 1.5099                 1.2734
 IR Inten    --     16.4509                 0.3189                12.4543

                     64                     65                     66
                      A                      A                      A
 Frequencies --   1343.8108              1347.0794              1364.0619
 Red. masses --      1.4430                 1.4383                 1.3214
 Frc consts  --      1.5352                 1.5378                 1.4486
 IR Inten    --      0.7583                 1.4125                 0.7281

                     67                     68                     69
                      A                      A                      A
 Frequencies --   1377.3549              1397.8580              1406.8912
 Red. masses --      1.2436                 3.1453                 1.2442
 Frc consts  --      1.3900                 3.6211                 1.4510
 IR Inten    --      0.0721                10.9838                17.9725

                     70                     71                     72
                      A                      A                      A
 Frequencies --   1413.5562              1421.3385              1439.7219
 Red. masses --      1.8643                 1.4738                 1.3169
 Frc consts  --      2.1947                 1.7542                 1.6083
 IR Inten    --     15.6048                21.6152                 8.1917

                     73                     74                     75
                      A                      A                      A
 Frequencies --   1494.6502              1503.0746              1505.0243
 Red. masses --      1.0974                 1.2194                 2.1545
 Frc consts  --      1.4444                 1.6232                 2.8753
 IR Inten    --      2.2853                 2.4625                 2.8505

                     76                     77                     78
                      A                      A                      A
 Frequencies --   1509.7414              1513.3609              1520.5422
 Red. masses --      2.0822                 1.1094                 1.0867
 Frc consts  --      2.7963                 1.4969                 1.4803
 IR Inten    --     17.1660                 2.4882                 0.2632

                     79                     80                     81
                      A                      A                      A
 Frequencies --   1523.1458              1531.6104              1540.0329
 Red. masses --      1.0998                 1.1009                 1.1009
 Frc consts  --      1.5033                 1.5215                 1.5383
 IR Inten    --      2.5023                 4.8514                 5.3537

                     82                     83                     84
                      A                      A                      A
 Frequencies --   1650.8169              1663.5960              2995.6278
 Red. masses --      6.5854                 6.9377                 1.0695
 Frc consts  --     10.5738                11.3127                 5.6544
 IR Inten    --      1.4461                 2.6750                31.9087

                     85                     86                     87
                      A                      A                      A
 Frequencies --   3004.6763              3018.2447              3022.7692
 Red. masses --      1.0703                 1.0687                 1.0707
 Frc consts  --      5.6930                 5.7359                 5.7642
 IR Inten    --     36.8385                16.3862               114.7769

                     88                     89                     90
                      A                      A                      A
 Frequencies --   3045.5114              3059.0416              3062.5394
 Red. masses --      1.0671                 1.0626                 1.0691
 Frc consts  --      5.8312                 5.8588                 5.9080
 IR Inten    --     28.3286                26.6062                20.2254

                     91                     92                     93
                      A                      A                      A
 Frequencies --   3087.4016              3097.0821              3098.1471
 Red. masses --      1.0897                 1.0953                 1.0948
 Frc consts  --      6.1201                 6.1902                 6.1913
 IR Inten    --     30.8636                33.9971                59.7738

                     94                     95                     96
                      A                      A                      A
 Frequencies --   3099.4628              3107.9313              3112.7765
 Red. masses --      1.0963                 1.0990                 1.0964
 Frc consts  --      6.2050                 6.2547                 6.2590
 IR Inten    --     67.7628                34.6711                50.0207

                     97                     98                     99
                      A                      A                      A
 Frequencies --   3130.0695              3137.6201              3177.2279
 Red. masses --      1.0914                 1.0951                 1.0852
 Frc consts  --      6.3000                 6.3518                 6.4544
 IR Inten    --     22.6363                29.6196                 0.9857

                    100                    101                    102
                      A                      A                      A
 Frequencies --   3185.8694              3195.1852              3205.2427
 Red. masses --      1.0887                 1.0934                 1.0967
 Frc consts  --      6.5103                 6.5770                 6.6384
 IR Inten    --      6.2490                41.2228                32.6484

 - Thermochemistry -
 -------------------
 Temperature   298.150 Kelvin.  Pressure   1.00000 Atm.
 Atom     1 has atomic number  6 and mass  12.00000

 Molecular mass:   229.14666 amu.
 Principal axes and moments of inertia in atomic units:
                           1         2         3
     Eigenvalues --  2056.691284985.696816130.79476
           X            0.99999  -0.00492  -0.00070
           Y            0.00492   0.99997  -0.00645
           Z            0.00073   0.00645   0.99998
 This molecule is an asymmetric top.
 Rotational symmetry number  1.
 Warning -- assumption of classical behavior for rotation
           may cause significant error
 Rotational temperatures (Kelvin)      0.04211     0.01737     0.01413
 Rotational constants (GHZ):           0.87750     0.36198     0.29437
 Zero-point vibrational energy     829436.2 (Joules/Mol)
                                  198.24000 (Kcal/Mol)
 Warning -- explicit consideration of  21 degrees of freedom as
           vibrations may cause significant error
 Vibrational temperatures:     80.80    92.93   150.74   168.31   205.31
          (Kelvin)            274.24   326.67   351.24   399.88   401.70
                              506.48   515.75   550.78   629.50   668.16
                              687.43   708.36   737.43   818.73   829.16
                              882.13   893.99   960.10  1058.56  1092.26
                             1108.37  1165.57  1195.07  1225.70  1227.46
                             1243.32  1274.65  1289.87  1320.31  1336.84
                             1347.09  1381.79  1409.69  1412.64  1449.99
                             1486.37  1492.18  1508.84  1534.62  1556.01
                             1585.66  1591.53  1628.95  1645.90  1673.59
                             1691.39  1695.71  1711.17  1735.16  1753.64
                             1766.89  1797.24  1810.55  1850.73  1868.96
                             1885.68  1895.44  1913.34  1933.44  1938.15
                             1962.58  1981.71  2011.21  2024.20  2033.79
                             2044.99  2071.44  2150.47  2162.59  2165.39
                             2172.18  2177.39  2187.72  2191.47  2203.65
                             2215.76  2375.16  2393.54  4310.04  4323.06
                             4342.58  4349.09  4381.81  4401.28  4406.31
                             4442.08  4456.01  4457.54  4459.44  4471.62
                             4478.59  4503.47  4514.34  4571.32  4583.76
                             4597.16  4611.63

 Zero-point correction=                           0.315916 (Hartree/Particle)
 Thermal correction to Energy=                    0.329563
 Thermal correction to Enthalpy=                  0.330508
 Thermal correction to Gibbs Free Energy=         0.275846
 Sum of electronic and zero-point Energies=           -712.703718
 Sum of electronic and thermal Energies=              -712.690070
 Sum of electronic and thermal Enthalpies=            -712.689126
 Sum of electronic and thermal Free Energies=         -712.743787

                     E (Thermal)             CV                S
                      KCal/Mol        Cal/Mol-Kelvin    Cal/Mol-Kelvin
 Total                  206.804             56.777            115.045
 Electronic               0.000              0.000              0.000
 Translational            0.889              2.981             42.190
 Rotational               0.889              2.981             32.508
 Vibrational            205.027             50.816             40.348
 Vibration     1          0.596              1.975              4.588
 Vibration     2          0.597              1.971              4.312
 Vibration     3          0.605              1.945              3.364
 Vibration     4          0.608              1.935              3.150
 Vibration     5          0.616              1.911              2.767
 Vibration     6          0.634              1.853              2.222
 Vibration     7          0.651              1.800              1.902
 Vibration     8          0.659              1.772              1.773
 Vibration     9          0.679              1.714              1.546
 Vibration    10          0.680              1.712              1.539
 Vibration    11          0.729              1.571              1.157
 Vibration    12          0.733              1.558              1.129
 Vibration    13          0.752              1.507              1.028
 Vibration    14          0.798              1.388              0.834
 Vibration    15          0.822              1.329              0.753
 Vibration    16          0.834              1.299              0.716
 Vibration    17          0.848              1.267              0.678
 Vibration    18          0.868              1.222              0.628
 Vibration    19          0.925              1.098              0.506
 Vibration    20          0.933              1.083              0.492
 Vibration    21          0.972              1.004              0.428

                           ! Non-Optimized Parameters !
 Normal termination of Gaussian 16 at Mon Dec 14 16:52:56 2020.

 ----------------------------------------------------------------------
 # B3LYP/6-311++G(d,p) empiricaldispersion=gd3bj scf=xqc pop=npa geom=c
 heck
 ----------------------------------------------------------------------

 ------------------------------------
 CID_615030_JID_7518_Energie_neutraal
 ------------------------------------
 Structure from the checkpoint file:  "JID_7518.chk"
 Charge =  0 Multiplicity = 1

 SCF Done:  E(RB3LYP) =  -713.204071474     A.U. after   14 cycles
 Normal termination of Gaussian 16 at Mon Dec 14 17:00:10 2020.

 ----------------------------------------------------------------------
 # B3LYP/6-311++G(d,p) empiricaldispersion=gd3bj scf=xqc pop=npa geom=c
 heck
 ----------------------------------------------------------------------

 ----------------------------------
 CID_615030_JID_7518_Energie_kation
 ----------------------------------
 Structure from the checkpoint file:  "JID_7518.chk"
 Charge =  1 Multiplicity = 2

 SCF Done:  E(UB3LYP) =  -712.936347660     A.U. after   22 cycles
 Normal termination of Gaussian 16 at Mon Dec 14 17:17:32 2020.
 Gaussian 16:  ES64L-G16RevA.03 25-Dec-2016

 ----------------------------------------------------------------------
 # B3LYP/6-311++G(d,p) empiricaldispersion=gd3bj scf=xqc pop=npa geom=c
 heck
 ----------------------------------------------------------------------

 ---------------------------------
 CID_615030_JID_7518_Energie_anion
 ---------------------------------
 Structure from the checkpoint file:  "JID_7518.chk"
 Charge = -1 Multiplicity = 2

                         Standard orientation:
 ---------------------------------------------------------------------
 Center     Atomic      Atomic             Coordinates (Angstroms)
 Number     Number       Type             X           Y           Z
 ---------------------------------------------------------------------
      1          6           0       -0.433341    2.460072    1.059169
      2          6           0        0.767949    2.654738    0.108736
      3          6           0        0.831277    1.349557   -0.711890
      4          6           0        2.034322    0.435243   -0.527090
      5          6           0        3.395621    0.328760   -0.766344
      6          6           0        4.022005   -0.828380   -0.273891
      7          6           0        3.307212   -1.806994    0.428396
      8          6           0        1.929135   -1.679978    0.672549
      9          6           0        1.321079   -0.540821    0.166658
     10          6           0       -0.000266    0.240679    0.092825
     11          6           0       -0.399449    0.965314    1.419556
     12          7           0       -1.018008   -0.413467   -0.709323
     13          6           0       -2.119914    0.390999   -1.229834
     14          6           0       -3.356521    0.393516   -0.324382
     15          8           0       -3.771096   -0.936554   -0.031739
     16          6           0       -2.731892   -1.680265    0.596605
     17          6           0       -1.486211   -1.732214   -0.293527
     18          1           0       -1.366571    2.696288    0.531296
     19          1           0       -0.389571    3.113264    1.937614
     20          1           0        0.661069    3.543264   -0.521955
     21          1           0        1.687197    2.778325    0.692822
     22          1           0        0.506098    1.471520   -1.749175
     23          1           0        3.963162    1.084923   -1.302586
     24          1           0        5.087426   -0.969111   -0.435962
     25          1           0        3.834941   -2.682336    0.797632
     26          1           0        1.397676   -2.442262    1.236164
     27          1           0        0.374402    0.789911    2.175943
     28          1           0       -1.342204    0.601623    1.832683
     29          1           0       -2.419780   -0.034411   -2.199165
     30          1           0       -1.775354    1.413372   -1.412203
     31          1           0       -3.158453    0.941691    0.610540
     32          1           0       -4.203134    0.871764   -0.827901
     33          1           0       -3.134744   -2.684968    0.761494
     34          1           0       -2.493043   -1.240112    1.578380
     35          1           0       -1.745636   -2.301034   -1.198768
     36          1           0       -0.674683   -2.266363    0.207097
 ---------------------------------------------------------------------

 SCF Done:  E(UB3LYP) =  -713.188954785     A.U. after   33 cycles
 SCF Done:  E(UB3LYP) =  -713.188954785     a.u. after    1 cycles

 The electronic state is 2-A.
 Alpha  occ. eigenvalues --  -19.03370 -14.21046 -10.12263 -10.12148 -10.12042
 Alpha  occ. eigenvalues --  -10.10113 -10.10102 -10.08158 -10.08140 -10.08129
 Alpha  occ. eigenvalues --  -10.08000 -10.07982 -10.07624 -10.07567 -10.07223
 Alpha  occ. eigenvalues --  -10.07040 -10.06926  -0.94876  -0.83915  -0.78109
 Alpha  occ. eigenvalues --   -0.73251  -0.68166  -0.67677  -0.65655  -0.62139
 Alpha  occ. eigenvalues --   -0.60153  -0.57174  -0.56287  -0.51345  -0.51046
 Alpha  occ. eigenvalues --   -0.49125  -0.46941  -0.44022  -0.42336  -0.40737
 Alpha  occ. eigenvalues --   -0.38850  -0.38571  -0.37087  -0.36528  -0.36393
 Alpha  occ. eigenvalues --   -0.35888  -0.35162  -0.33548  -0.31901  -0.31226
 Alpha  occ. eigenvalues --   -0.30407  -0.29418  -0.28580  -0.27712  -0.27128
 Alpha  occ. eigenvalues --   -0.26861  -0.25241  -0.24991  -0.24238  -0.22672
 Alpha  occ. eigenvalues --   -0.22177  -0.21628  -0.20908  -0.18073  -0.16096
 Alpha  occ. eigenvalues --   -0.14643  -0.10774   0.04323
 Alpha virt. eigenvalues --    0.05991   0.06543   0.07012   0.07583   0.07802
 Alpha virt. eigenvalues --    0.08065   0.08683   0.08853   0.09300   0.09937
 Alpha virt. eigenvalues --    0.10235   0.10415   0.11531   0.11608   0.12415

  Beta  occ. eigenvalues --  -19.03365 -14.21043 -10.12248 -10.12132 -10.12042
  Beta  occ. eigenvalues --  -10.10098 -10.10085 -10.08138 -10.08128 -10.08121
  Beta  occ. eigenvalues --  -10.07980 -10.07955 -10.07624 -10.07563 -10.07204
  Beta  occ. eigenvalues --  -10.07032 -10.06901  -0.94863  -0.83903  -0.78083
  Beta  occ. eigenvalues --   -0.73218  -0.68138  -0.67647  -0.65608  -0.62107
  Beta  occ. eigenvalues --   -0.60121  -0.57137  -0.56244  -0.51291  -0.51018
  Beta  occ. eigenvalues --   -0.49083  -0.46889  -0.43991  -0.42297  -0.40701
  Beta  occ. eigenvalues --   -0.38822  -0.38543  -0.37054  -0.36498  -0.36365
  Beta  occ. eigenvalues --   -0.35849  -0.35131  -0.33520  -0.31866  -0.31201
  Beta  occ. eigenvalues --   -0.30369  -0.29384  -0.28550  -0.27683  -0.27101
  Beta  occ. eigenvalues --   -0.26830  -0.25188  -0.24955  -0.24206  -0.22650
  Beta  occ. eigenvalues --   -0.22155  -0.21605  -0.20886  -0.18042  -0.15994
  Beta  occ. eigenvalues --   -0.14593  -0.10748
  Beta virt. eigenvalues --    0.06362   0.06910   0.07179   0.07276   0.07880
  Beta virt. eigenvalues --    0.08304   0.08481   0.08806   0.09272   0.09644
  Beta virt. eigenvalues --    0.10294   0.10590   0.10774   0.11829   0.11930

 Mulliken charges and spin densities:
               1          2
     1  C   -0.296627   0.004382
     2  C    0.958136  -1.700823
     3  C   -0.263164   0.790124
     4  C    0.259317  -0.335634
     5  C   -0.836913   0.681677
     6  C    1.142521  -1.394120
     7  C    0.807005  -1.063628
     8  C   -1.013696   0.669647
     9  C    0.733210  -0.634080
    10  C   -0.466977   0.145087
    11  C   -0.355464  -0.110372
    12  N    0.292092  -0.014289
    13  C    0.216286  -0.204746
    14  C    0.102401  -0.579346
    15  O   -0.158903   0.037919
    16  C    0.215691  -0.667323
    17  C   -0.043259   0.038821
    18  H    0.121631  -0.002326
    19  H   -0.377839   0.562195
    20  H   -0.697757   0.877742
    21  H    0.267870  -0.124166
    22  H   -0.190203   0.439880
    23  H   -0.375939   0.542384
    24  H   -0.158802   0.314475
    25  H   -0.410851   0.581874
    26  H   -0.504733   0.664511
    27  H    0.158449   0.021438
    28  H    0.213678  -0.170575
    29  H    0.115134   0.070101
    30  H   -0.170886   0.313057
    31  H    0.035721   0.133563
    32  H   -0.243561   0.427092
    33  H   -0.115124   0.292932
    34  H   -0.102819   0.275003
    35  H    0.004479   0.173783
    36  H    0.139895  -0.056261
 Sum of Mulliken charges =  -1.00000   1.00000

 Dipole moment (field-independent basis, Debye):
    X=             -1.2934    Y=             -1.2528    Z=              1.2295  Tot=              2.1804
 Quadrupole moment (field-independent basis, Debye-Ang):
   XX=           -175.7716   YY=           -164.9330   ZZ=           -137.9380
   XY=              5.4699   XZ=             -0.7073   YZ=              7.9230

 Summary of Natural Population Analysis:

                                       Natural Population
                Natural  -----------------------------------------------
    Atom  No    Charge         Core      Valence    Rydberg      Total
 -----------------------------------------------------------------------
      C    1   -0.18894      0.99964     2.18119    0.00811     3.18894
      C    2   -0.19210      0.99962     2.18376    0.00873     3.19210
      C    3   -0.10616      0.99955     2.09454    0.01207     3.10616
      C    4   -0.00350      0.99944     1.99267    0.01139     3.00350
      C    5   -0.11148      0.99951     2.09796    0.01401     3.11148
      C    6   -0.07168      0.99958     2.06493    0.00717     3.07168
      C    7   -0.11330      0.99959     2.09852    0.01518     3.11330
      C    8   -0.10146      0.99949     2.09254    0.00942     3.10146
      C    9   -0.01023      0.99940     1.99843    0.01239     3.01023
      C   10    0.08610      0.99950     1.89811    0.01630     2.91390
      C   11   -0.20540      0.99958     2.19727    0.00855     3.20540
      N   12   -0.28148      0.99967     2.76771    0.01410     3.78148
      C   13   -0.09976      0.99961     2.08845    0.01170     3.09976
      C   14   -0.01931      0.99958     2.00776    0.01198     3.01931
      O   15   -0.30142      0.99989     3.29214    0.00938     4.30142
      C   16   -0.01827      0.99958     2.00694    0.01175     3.01827
      C   17   -0.09703      0.99960     2.08671    0.01071     3.09703
      H   18    0.09410      0.00000     0.40403    0.00187     0.40590
      H   19    0.09920      0.00000     0.39987    0.00094     0.40080
      H   20    0.10527      0.00000     0.39267    0.00206     0.39473
      H   21    0.09681      0.00000     0.40184    0.00136     0.40319
      H   22    0.10920      0.00000     0.38907    0.00173     0.39080
      H   23    0.10228      0.00000     0.39669    0.00104     0.39772
      H   24    0.09550      0.00000     0.40321    0.00129     0.40450
      H   25    0.10037      0.00000     0.39839    0.00124     0.39963
      H   26    0.10211      0.00000     0.39654    0.00136     0.39789
      H   27    0.10119      0.00000     0.39763    0.00118     0.39881
      H   28    0.10169      0.00000     0.39685    0.00146     0.39831
      H   29    0.09352      0.00000     0.40524    0.00123     0.40648
      H   30    0.10348      0.00000     0.39493    0.00158     0.39652
      H   31    0.07758      0.00000     0.42085    0.00158     0.42242
      H   32    0.09108      0.00000     0.40753    0.00140     0.40892
      H   33    0.09042      0.00000     0.40826    0.00132     0.40958
      H   34    0.07641      0.00000     0.42207    0.00151     0.42359
      H   35    0.09272      0.00000     0.40611    0.00117     0.40728
      H   36    0.10284      0.00000     0.39567    0.00149     0.39716
 =======================================================================
   * Total *    0.00036     16.99282    44.78709    0.21973    61.99964

 Normal termination of Gaussian 16 at Mon Dec 14 17:43:03 2020.
