 Gaussian 16, Revision A.03,

 -----------------------------------------------------------
 # opt freq B3LYP/6-31G(d) empiricaldispersion=gd3bj scf=xqc
 -----------------------------------------------------------

 -------------------------------
 CID_152407203_JID_7190_neutraal
 -------------------------------
 Symbolic Z-matrix:
 Charge =  0 Multiplicity = 1

 SCF Done:  E(RB3LYP) =  -781.997692304     A.U. after   17 cycles
 SCF Done:  E(RB3LYP) =  -782.000550431     A.U. after   13 cycles
 SCF Done:  E(RB3LYP) =  -782.000840870     A.U. after   13 cycles
 SCF Done:  E(RB3LYP) =  -782.000764370     A.U. after   13 cycles
 SCF Done:  E(RB3LYP) =  -782.002674237     A.U. after   12 cycles
 SCF Done:  E(RB3LYP) =  -781.996028518     A.U. after   14 cycles
 SCF Done:  E(RB3LYP) =  -782.002388897     A.U. after   14 cycles
 SCF Done:  E(RB3LYP) =  -782.002890585     A.U. after    9 cycles
 SCF Done:  E(RB3LYP) =  -782.002958056     A.U. after   12 cycles
 SCF Done:  E(RB3LYP) =  -782.003059960     A.U. after   13 cycles
 SCF Done:  E(RB3LYP) =  -782.003881084     A.U. after   10 cycles
 SCF Done:  E(RB3LYP) =  -782.003887864     A.U. after   10 cycles
 SCF Done:  E(RB3LYP) =  -782.003889474     A.U. after    9 cycles
 SCF Done:  E(RB3LYP) =  -782.003889695     A.U. after    8 cycles
 SCF Done:  E(RB3LYP) =  -782.003889790     A.U. after    7 cycles
 Optimization completed.
    -- Stationary point found.
 Normal termination of Gaussian 16 at Fri Dec 11 12:10:29 2020.

 --------------------------------------------------------------------
 #N Geom=AllCheck Guess=TCheck SCRF=Check GenChk RB3LYP/6-31G(d) Freq
 --------------------------------------------------------------------

 Structure from the checkpoint file:  "JID_7190.chk"
 -------------------------------
 CID_152407203_JID_7190_neutraal
 -------------------------------
 Charge =  0 Multiplicity = 1

 SCF Done:  E(RB3LYP) =  -782.003889790     A.U. after    1 cycles

  Exact polarizability: 168.796 -17.177 167.731   2.743   0.462 121.366
 Approx polarizability: 212.938 -39.779 277.503   2.767  -3.230 180.604

                      1                      2                      3
                      A                      A                      A
 Frequencies --     21.0165                33.2727                42.5613
 Red. masses --      3.5310                 4.2409                 4.0202
 Frc consts  --      0.0009                 0.0028                 0.0043
 IR Inten    --      0.1764                 0.9716                 1.3468

                      4                      5                      6
                      A                      A                      A
 Frequencies --     57.8536                75.4041               100.3707
 Red. masses --      5.8447                 3.5667                 6.1913
 Frc consts  --      0.0115                 0.0119                 0.0367
 IR Inten    --      1.0033                 0.9629                 1.2498

                      7                      8                      9
                      A                      A                      A
 Frequencies --    110.7112               124.6288               149.5674
 Red. masses --      6.4332                 4.7486                 3.5922
 Frc consts  --      0.0465                 0.0435                 0.0473
 IR Inten    --      4.9826                 0.4554                 0.1670

                     10                     11                     12
                      A                      A                      A
 Frequencies --    162.8278               192.5166               213.4243
 Red. masses --      2.6122                 1.3527                 1.9399
 Frc consts  --      0.0408                 0.0295                 0.0521
 IR Inten    --      0.7985                 0.5483                 2.8720

                     13                     14                     15
                      A                      A                      A
 Frequencies --    225.6600               230.2889               249.6857
 Red. masses --      1.2726                 2.1999                 1.4951
 Frc consts  --      0.0382                 0.0687                 0.0549
 IR Inten    --      0.3085                 1.5127                 0.7648

                     16                     17                     18
                      A                      A                      A
 Frequencies --    259.5319               273.7763               283.4110
 Red. masses --      1.7883                 1.9648                 1.6481
 Frc consts  --      0.0710                 0.0868                 0.0780
 IR Inten    --      1.0999                 1.6145                 1.0956

                     19                     20                     21
                      A                      A                      A
 Frequencies --    298.8392               316.5756               342.0650
 Red. masses --      2.2441                 2.5328                 2.2261
 Frc consts  --      0.1181                 0.1496                 0.1535
 IR Inten    --      0.1230                 1.8464                 0.1932

                     22                     23                     24
                      A                      A                      A
 Frequencies --    360.4767               379.0378               395.5915
 Red. masses --      3.1052                 2.8306                 2.2317
 Frc consts  --      0.2377                 0.2396                 0.2058
 IR Inten    --      8.6000                 1.9324                 0.2934

                     25                     26                     27
                      A                      A                      A
 Frequencies --    407.8438               458.8318               511.2642
 Red. masses --      2.7911                 1.8658                 1.9009
 Frc consts  --      0.2735                 0.2314                 0.2927
 IR Inten    --      2.8726                 1.3216                 7.2646

                     28                     29                     30
                      A                      A                      A
 Frequencies --    537.2985               556.9794               564.4559
 Red. masses --      2.7484                12.8525                 3.2157
 Frc consts  --      0.4675                 2.3492                 0.6036
 IR Inten    --      9.3360                10.0260                15.6591

                     31                     32                     33
                      A                      A                      A
 Frequencies --    592.7855               631.3194               692.5035
 Red. masses --      3.6902                 5.9516                 3.1243
 Frc consts  --      0.7640                 1.3976                 0.8828
 IR Inten    --     10.0479                 6.8242                 4.3466

                     34                     35                     36
                      A                      A                      A
 Frequencies --    720.7699               756.0850               801.7528
 Red. masses --      2.0914                 2.6410                 2.1627
 Frc consts  --      0.6402                 0.8895                 0.8191
 IR Inten    --     19.0544                12.0320                48.6782

                     37                     38                     39
                      A                      A                      A
 Frequencies --    818.6757               839.9841               862.3377
 Red. masses --      1.6590                 3.0036                 2.3305
 Frc consts  --      0.6551                 1.2486                 1.0210
 IR Inten    --     31.1906                 4.2973                10.2375

                     40                     41                     42
                      A                      A                      A
 Frequencies --    894.5247               946.0907               952.4488
 Red. masses --      2.7378                 2.1529                 1.7084
 Frc consts  --      1.2907                 1.1354                 0.9131
 IR Inten    --      1.2915                 1.2823                 0.7120

                     43                     44                     45
                      A                      A                      A
 Frequencies --    955.9733               979.1327              1008.2825
 Red. masses --      1.7200                 1.2007                 2.3402
 Frc consts  --      0.9261                 0.6782                 1.4017
 IR Inten    --      1.0023                 0.0208                45.5059

                     46                     47                     48
                      A                      A                      A
 Frequencies --   1019.2810              1055.0624              1060.3789
 Red. masses --      2.0588                 1.9205                 1.4375
 Frc consts  --      1.2603                 1.2596                 0.9523
 IR Inten    --     15.5262                 3.8082                 0.0256

                     49                     50                     51
                      A                      A                      A
 Frequencies --   1061.7631              1069.2673              1100.5490
 Red. masses --      2.0001                 1.6953                 1.7586
 Frc consts  --      1.3285                 1.1420                 1.2550
 IR Inten    --      1.7864                 8.8821                22.5440

                     52                     53                     54
                      A                      A                      A
 Frequencies --   1120.1215              1138.7090              1168.2068
 Red. masses --      2.8145                 2.2324                 1.5017
 Frc consts  --      2.0805                 1.7055                 1.2075
 IR Inten    --      4.3064                54.5363                 6.1630

                     55                     56                     57
                      A                      A                      A
 Frequencies --   1181.7463              1234.7546              1246.8066
 Red. masses --      2.0956                 1.6094                 2.6482
 Frc consts  --      1.7243                 1.4457                 2.4255
 IR Inten    --     10.4612                59.4502                 6.1453

                     58                     59                     60
                      A                      A                      A
 Frequencies --   1248.7049              1258.8495              1264.0047
 Red. masses --      1.6537                 2.6363                 1.5402
 Frc consts  --      1.5193                 2.4614                 1.4498
 IR Inten    --     32.3614                 3.8998                12.4091

                     61                     62                     63
                      A                      A                      A
 Frequencies --   1273.2757              1309.7075              1352.4332
 Red. masses --      1.4329                 1.4686                 4.8963
 Frc consts  --      1.3687                 1.4842                 5.2765
 IR Inten    --     11.3859                 5.2376                83.7791

                     64                     65                     66
                      A                      A                      A
 Frequencies --   1359.1754              1377.2756              1384.3385
 Red. masses --      1.3562                 1.9043                 1.3639
 Frc consts  --      1.4761                 2.1283                 1.5400
 IR Inten    --     14.9240               143.2962                 5.0216

                     67                     68                     69
                      A                      A                      A
 Frequencies --   1398.1747              1408.2062              1415.6378
 Red. masses --      1.3571                 1.6518                 1.2622
 Frc consts  --      1.5630                 1.9299                 1.4903
 IR Inten    --     83.7977                24.4105                13.4643

                     70                     71                     72
                      A                      A                      A
 Frequencies --   1419.6998              1428.9788              1431.5708
 Red. masses --      1.4236                 1.2105                 1.2645
 Frc consts  --      1.6906                 1.4563                 1.5268
 IR Inten    --      2.8399                 3.3592                 8.9735

                     73                     74                     75
                      A                      A                      A
 Frequencies --   1441.1705              1463.5604              1485.6772
 Red. masses --      1.3077                 1.2520                 1.1493
 Frc consts  --      1.6003                 1.5801                 1.4946
 IR Inten    --     28.1516                28.3069                 0.0321

                     76                     77                     78
                      A                      A                      A
 Frequencies --   1499.0628              1507.8494              1508.5701
 Red. masses --      1.0956                 1.0601                 1.0876
 Frc consts  --      1.4506                 1.4201                 1.4583
 IR Inten    --      1.8638                 0.7420                 6.8174

                     79                     80                     81
                      A                      A                      A
 Frequencies --   1510.6070              1513.0381              1518.3237
 Red. masses --      1.0764                 1.0455                 1.0464
 Frc consts  --      1.4473                 1.4102                 1.4212
 IR Inten    --      5.7363                 0.6270                 0.0806

                     82                     83                     84
                      A                      A                      A
 Frequencies --   1523.6261              1530.5015              1531.0968
 Red. masses --      1.0773                 1.1691                 1.1265
 Frc consts  --      1.4735                 1.6135                 1.5560
 IR Inten    --     17.6892                13.8729                24.9700

                     85                     86                     87
                      A                      A                      A
 Frequencies --   1538.5550              1545.8313              1549.1715
 Red. masses --      1.0542                 1.0889                 1.0709
 Frc consts  --      1.4702                 1.5331                 1.5143
 IR Inten    --      3.1474                 3.1675                33.0321

                     88                     89                     90
                      A                      A                      A
 Frequencies --   1556.4532              1562.4357              1754.4130
 Red. masses --      1.1516                 1.1046                 5.8928
 Frc consts  --      1.6437                 1.5887                10.6865
 IR Inten    --      5.8284                 4.0278               213.9987

                     91                     92                     93
                      A                      A                      A
 Frequencies --   2281.7573              2952.3453              3020.6335
 Red. masses --     13.5651                 1.0607                 1.0736
 Frc consts  --     41.6114                 5.4471                 5.7715
 IR Inten    --    501.8760                85.1813                30.0917

                     94                     95                     96
                      A                      A                      A
 Frequencies --   3039.7076              3040.4157              3045.2846
 Red. masses --      1.0649                 1.0597                 1.0624
 Frc consts  --      5.7972                 5.7717                 5.8051
 IR Inten    --     15.9101                19.7977                37.7769

                     97                     98                     99
                      A                      A                      A
 Frequencies --   3052.2713              3053.0666              3056.3848
 Red. masses --      1.0379                 1.0392                 1.0689
 Frc consts  --      5.6969                 5.7070                 5.8830
 IR Inten    --     27.3812                 9.9454                37.8324

                    100                    101                    102
                      A                      A                      A
 Frequencies --   3061.7584              3073.6100              3086.0488
 Red. masses --      1.0398                 1.0719                 1.0966
 Frc consts  --      5.7431                 5.9663                 6.1534
 IR Inten    --     36.0497                46.8885                31.5102

                    103                    104                    105
                      A                      A                      A
 Frequencies --   3087.5702              3096.3568              3110.8934
 Red. masses --      1.1071                 1.1027                 1.1021
 Frc consts  --      6.2180                 6.2290                 6.2843
 IR Inten    --     13.8512                48.3650                17.7594

                    106                    107                    108
                      A                      A                      A
 Frequencies --   3116.5555              3118.8664              3123.1925
 Red. masses --      1.1006                 1.1030                 1.0929
 Frc consts  --      6.2986                 6.3216                 6.2812
 IR Inten    --     31.1871                35.7553                39.9490

                    109                    110                    111
                      A                      A                      A
 Frequencies --   3131.8717              3137.2600              3139.5621
 Red. masses --      1.0981                 1.0937                 1.0971
 Frc consts  --      6.3458                 6.3425                 6.3713
 IR Inten    --     39.4863                19.9932                22.2177

                    112                    113                    114
                      A                      A                      A
 Frequencies --   3152.3806              3155.5556              3496.8891
 Red. masses --      1.1023                 1.0956                 1.0757
 Frc consts  --      6.4541                 6.4279                 7.7503
 IR Inten    --     21.3178                36.5270               181.0409

 - Thermochemistry -
 -------------------
 Temperature   298.150 Kelvin.  Pressure   1.00000 Atm.
 Atom     1 has atomic number  6 and mass  12.00000

 Molecular mass:   241.19026 amu.
 Principal axes and moments of inertia in atomic units:
                           1         2         3
     Eigenvalues --  2959.459415827.975907737.53154
           X            0.99999  -0.00387  -0.00142
           Y            0.00389   0.99983   0.01825
           Z            0.00135  -0.01826   0.99983
 This molecule is an asymmetric top.
 Rotational symmetry number  1.
 Warning -- assumption of classical behavior for rotation
           may cause significant error
 Rotational temperatures (Kelvin)      0.02927     0.01486     0.01119
 Rotational constants (GHZ):           0.60982     0.30967     0.23325
 Zero-point vibrational energy     929171.2 (Joules/Mol)
                                  222.07725 (Kcal/Mol)
 Warning -- explicit consideration of  31 degrees of freedom as
           vibrations may cause significant error
 Vibrational temperatures:     30.24    47.87    61.24    83.24   108.49
          (Kelvin)            144.41   159.29   179.31   215.19   234.27
                              276.99   307.07   324.67   331.33   359.24
                              373.41   393.90   407.77   429.96   455.48
                              492.16   518.65   545.35   569.17   586.80
                              660.16   735.60   773.05   801.37   812.13
                              852.89   908.33   996.36  1037.03  1087.84
                             1153.54  1177.89  1208.55  1240.71  1287.02
                             1361.21  1370.36  1375.43  1408.75  1450.69
                             1466.52  1518.00  1525.65  1527.64  1538.44
                             1583.44  1611.61  1638.35  1680.79  1700.27
                             1776.54  1793.88  1796.61  1811.20  1818.62
                             1831.96  1884.38  1945.85  1955.55  1981.59
                             1991.75  2011.66  2026.09  2036.79  2042.63
                             2055.98  2059.71  2073.52  2105.74  2137.56
                             2156.82  2169.46  2170.50  2173.43  2176.92
                             2184.53  2192.16  2202.05  2202.91  2213.64
                             2224.11  2228.91  2239.39  2248.00  2524.21
                             3282.94  4247.77  4346.02  4373.46  4374.48
                             4381.49  4391.54  4392.68  4397.46  4405.19
                             4422.24  4440.14  4442.32  4454.97  4475.88
                             4484.03  4487.35  4493.58  4506.06  4513.82
                             4517.13  4535.57  4540.14  5031.24

 Zero-point correction=                           0.353903 (Hartree/Particle)
 Thermal correction to Energy=                    0.373553
 Thermal correction to Enthalpy=                  0.374498
 Thermal correction to Gibbs Free Energy=         0.305008
 Sum of electronic and zero-point Energies=           -781.649987
 Sum of electronic and thermal Energies=              -781.630336
 Sum of electronic and thermal Enthalpies=            -781.629392
 Sum of electronic and thermal Free Energies=         -781.698882

                     E (Thermal)             CV                S
                      KCal/Mol        Cal/Mol-Kelvin    Cal/Mol-Kelvin
 Total                  234.408             72.239            146.253
 Electronic               0.000              0.000              0.000
 Translational            0.889              2.981             42.342
 Rotational               0.889              2.981             33.256
 Vibrational            232.631             66.277             70.655
 Vibration     1          0.593              1.986              6.536
 Vibration     2          0.594              1.983              5.624
 Vibration     3          0.595              1.980              5.136
 Vibration     4          0.596              1.974              4.529
 Vibration     5          0.599              1.965              4.007
 Vibration     6          0.604              1.949              3.447
 Vibration     7          0.607              1.941              3.256
 Vibration     8          0.610              1.928              3.027
 Vibration     9          0.618              1.903              2.678
 Vibration    10          0.623              1.888              2.517
 Vibration    11          0.634              1.850              2.203
 Vibration    12          0.644              1.820              2.014
 Vibration    13          0.650              1.802              1.913
 Vibration    14          0.652              1.795              1.877
 Vibration    15          0.662              1.763              1.733
 Vibration    16          0.668              1.747              1.665
 Vibration    17          0.676              1.722              1.572
 Vibration    18          0.682              1.704              1.513
 Vibration    19          0.692              1.676              1.423
 Vibration    20          0.703              1.642              1.328
 Vibration    21          0.721              1.591              1.203
 Vibration    22          0.735              1.554              1.120
 Vibration    23          0.749              1.515              1.043
 Vibration    24          0.762              1.480              0.979
 Vibration    25          0.772              1.453              0.934
 Vibration    26          0.817              1.341              0.770
 Vibration    27          0.866              1.225              0.631
 Vibration    28          0.892              1.168              0.571
 Vibration    29          0.912              1.124              0.530
 Vibration    30          0.920              1.108              0.515
 Vibration    31          0.950              1.047              0.462

                           ! Non-Optimized Parameters !
 Normal termination of Gaussian 16 at Fri Dec 11 12:26:35 2020.

 ----------------------------------------------------------------------
 # B3LYP/6-311++G(d,p) empiricaldispersion=gd3bj scf=xqc pop=npa geom=c
 heck
 ----------------------------------------------------------------------

 ---------------------------------------
 CID_152407203_JID_7190_Energie_neutraal
 ---------------------------------------
 Structure from the checkpoint file:  "JID_7190.chk"
 Charge =  0 Multiplicity = 1

 SCF Done:  E(RB3LYP) =  -782.227969530     A.U. after   15 cycles
 Normal termination of Gaussian 16 at Fri Dec 11 12:35:37 2020.

 ----------------------------------------------------------------------
 # B3LYP/6-311++G(d,p) empiricaldispersion=gd3bj scf=xqc pop=npa geom=c
 heck
 ----------------------------------------------------------------------

 -------------------------------------
 CID_152407203_JID_7190_Energie_kation
 -------------------------------------
 Structure from the checkpoint file:  "JID_7190.chk"
 Charge =  1 Multiplicity = 2

 SCF Done:  E(UB3LYP) =  -781.938775565     A.U. after   29 cycles
 Normal termination of Gaussian 16 at Fri Dec 11 13:01:44 2020.
 Gaussian 16:  ES64L-G16RevA.03 25-Dec-2016

 ----------------------------------------------------------------------
 # B3LYP/6-311++G(d,p) empiricaldispersion=gd3bj scf=xqc pop=npa geom=c
 heck
 ----------------------------------------------------------------------

 ------------------------------------
 CID_152407203_JID_7190_Energie_anion
 ------------------------------------
 Structure from the checkpoint file:  "JID_7190.chk"
 Charge = -1 Multiplicity = 2

                         Standard orientation:
 ---------------------------------------------------------------------
 Center     Atomic      Atomic             Coordinates (Angstroms)
 Number     Number       Type             X           Y           Z
 ---------------------------------------------------------------------
      1          6           0       -4.113387    0.791848    0.463675
      2          6           0       -3.074797   -0.319590    0.238179
      3          6           0       -2.891087   -1.084910    1.565710
      4          6           0       -3.593765   -1.256745   -0.871929
      5          6           0       -1.757654    0.352809   -0.210249
      6          8           0       -1.688232    1.573667   -0.342058
      7          7           0       -0.654918   -0.404300   -0.531191
      8          6           0       -0.278495   -1.764154   -0.164837
      9          6           0        0.921197   -2.244703   -0.986263
     10          6           0        2.192246   -1.380537   -0.943639
     11          7           0        2.768324   -1.210934    0.399648
     12          6           0        4.224019   -1.265278    0.395176
     13          6           0        2.256076   -0.101349    1.199506
     14          6           0        2.516137    1.337924    0.712404
     15          7           0        1.633986    1.675756   -0.433507
     16          7           0        1.138834    2.809835   -0.412687
     17          7           0        0.634773    3.827489   -0.496043
     18          1           0       -5.068720    0.345984    0.764074
     19          1           0       -4.266697    1.377479   -0.445725
     20          1           0       -3.787075    1.482833    1.245381
     21          1           0       -3.868298   -1.425330    1.926984
     22          1           0       -2.252592   -1.965546    1.472115
     23          1           0       -2.461481   -0.432535    2.334685
     24          1           0       -3.740571   -0.702167   -1.804865
     25          1           0       -2.917030   -2.089422   -1.081157
     26          1           0       -4.560268   -1.680823   -0.575449
     27          1           0        0.122658    0.216827   -0.746960
     28          1           0       -0.036121   -1.844650    0.904275
     29          1           0       -1.112356   -2.443801   -0.349390
     30          1           0        1.175977   -3.251056   -0.633494
     31          1           0        0.616328   -2.330532   -2.037596
     32          1           0        2.940306   -1.901444   -1.550228
     33          1           0        2.025273   -0.418796   -1.447222
     34          1           0        4.712371   -0.461653   -0.187277
     35          1           0        4.594862   -1.205477    1.424585
     36          1           0        4.551951   -2.222126   -0.023932
     37          1           0        1.179043   -0.214860    1.340703
     38          1           0        2.713533   -0.188043    2.193260
     39          1           0        2.334834    2.028964    1.545051
     40          1           0        3.560000    1.460019    0.398703
 ---------------------------------------------------------------------

 SCF Done:  E(UB3LYP) =  -782.219663714     A.U. after   33 cycles
 SCF Done:  E(UB3LYP) =  -782.219663714     a.u. after    1 cycles

 The electronic state is 2-A.
 Alpha  occ. eigenvalues --  -18.98569 -14.36439 -14.26658 -14.24967 -14.22830
 Alpha  occ. eigenvalues --  -14.20963 -10.17169 -10.11447 -10.11377 -10.10525
 Alpha  occ. eigenvalues --  -10.10073 -10.09584 -10.08922 -10.07842 -10.07804
 Alpha  occ. eigenvalues --  -10.07705 -10.06660  -1.02835  -0.93750  -0.87158
 Alpha  occ. eigenvalues --   -0.82878  -0.81620  -0.72996  -0.68742  -0.66802
 Alpha  occ. eigenvalues --   -0.60790  -0.60542  -0.59696  -0.58505  -0.53629
 Alpha  occ. eigenvalues --   -0.52625  -0.47743  -0.45720  -0.44009  -0.41786
 Alpha  occ. eigenvalues --   -0.40737  -0.39953  -0.39051  -0.38110  -0.36739
 Alpha  occ. eigenvalues --   -0.36549  -0.36061  -0.35150  -0.34573  -0.33848
 Alpha  occ. eigenvalues --   -0.32951  -0.32271  -0.31355  -0.30540  -0.30148
 Alpha  occ. eigenvalues --   -0.29842  -0.29346  -0.28241  -0.27885  -0.27288
 Alpha  occ. eigenvalues --   -0.26595  -0.25837  -0.25488  -0.24727  -0.24380
 Alpha  occ. eigenvalues --   -0.23801  -0.20185  -0.16168  -0.15067  -0.14981
 Alpha  occ. eigenvalues --   -0.11673   0.03968
 Alpha virt. eigenvalues --    0.05582   0.06414   0.06788   0.07546   0.07915
 Alpha virt. eigenvalues --    0.08458   0.08854   0.09495   0.09610   0.10147
 Alpha virt. eigenvalues --    0.10409   0.11111   0.11119   0.11512   0.11823

  Beta  occ. eigenvalues --  -18.98566 -14.36322 -14.26445 -14.25002 -14.22826
  Beta  occ. eigenvalues --  -14.20963 -10.17169 -10.11382 -10.11365 -10.10523
  Beta  occ. eigenvalues --  -10.10051 -10.09566 -10.08880 -10.07823 -10.07789
  Beta  occ. eigenvalues --  -10.07687 -10.06653  -1.02575  -0.93746  -0.87018
  Beta  occ. eigenvalues --   -0.82858  -0.81609  -0.72984  -0.68699  -0.66729
  Beta  occ. eigenvalues --   -0.60753  -0.60502  -0.59673  -0.58399  -0.53595
  Beta  occ. eigenvalues --   -0.52570  -0.47675  -0.45679  -0.43948  -0.41639
  Beta  occ. eigenvalues --   -0.40470  -0.39831  -0.38987  -0.37991  -0.36687
  Beta  occ. eigenvalues --   -0.36493  -0.36024  -0.35127  -0.34288  -0.33634
  Beta  occ. eigenvalues --   -0.32912  -0.32228  -0.31309  -0.30465  -0.30112
  Beta  occ. eigenvalues --   -0.29816  -0.29234  -0.28220  -0.27869  -0.27258
  Beta  occ. eigenvalues --   -0.26555  -0.25801  -0.25452  -0.24707  -0.24358
  Beta  occ. eigenvalues --   -0.23770  -0.19890  -0.16153  -0.15044  -0.14948
  Beta  occ. eigenvalues --   -0.11650
  Beta virt. eigenvalues --    0.05893   0.06660   0.07340   0.07603   0.08081
  Beta virt. eigenvalues --    0.08415   0.08713   0.09182   0.09646   0.09921
  Beta virt. eigenvalues --    0.10361   0.10641   0.11299   0.11345   0.11651

 Mulliken charges and spin densities:
               1          2
     1  C   -0.452062  -0.124639
     2  C   -0.410686   1.075567
     3  C    0.024847  -0.596841
     4  C    0.108593  -0.636168
     5  C    0.268931  -0.676699
     6  O   -0.271882   0.006266
     7  N   -0.050519   0.044181
     8  C   -0.825288   0.544499
     9  C    0.734414  -1.248003
    10  C   -0.290258  -0.298834
    11  N    0.252964   0.016054
    12  C    1.073487  -1.383990
    13  C   -1.389781   1.010785
    14  C    1.042436  -1.585336
    15  N   -0.504607   0.150193
    16  N    0.803395  -0.012016
    17  N   -0.332516   0.019443
    18  H    0.062532   0.059800
    19  H    0.132850   0.033484
    20  H    0.116274   0.049633
    21  H   -0.146045   0.307015
    22  H   -0.233178   0.389938
    23  H    0.098977   0.062535
    24  H    0.084891   0.070986
    25  H   -0.138998   0.268016
    26  H   -0.065139   0.218419
    27  H    0.554426  -0.130801
    28  H    0.238257  -0.050452
    29  H    0.134085   0.000946
    30  H   -0.226679   0.399942
    31  H    0.074453   0.076228
    32  H   -0.150923   0.317819
    33  H    0.051055   0.122639
    34  H   -0.174640   0.303593
    35  H   -0.253760   0.393943
    36  H   -0.198851   0.345299
    37  H    0.124443   0.032454
    38  H   -0.639879   0.825508
    39  H   -0.130226   0.306691
    40  H   -0.095393   0.291903
 Sum of Mulliken charges =  -1.00000   1.00000

 Dipole moment (field-independent basis, Debye):
    X=             -4.0486    Y=             -0.3844    Z=             -1.2574  Tot=              4.2567
 Quadrupole moment (field-independent basis, Debye-Ang):
   XX=           -184.5855   YY=           -163.7389   ZZ=           -139.4043
   XY=              5.1481   XZ=             -6.1445   YZ=              2.2330

 Summary of Natural Population Analysis:

                                       Natural Population
                Natural  -----------------------------------------------
    Atom  No    Charge         Core      Valence    Rydberg      Total
 -----------------------------------------------------------------------
      C    1   -0.28054      0.99964     2.27425    0.00664     3.28054
      C    2   -0.08071      0.99956     2.07160    0.00955     3.08071
      C    3   -0.28481      0.99963     2.27781    0.00737     3.28481
      C    4   -0.28153      0.99963     2.27444    0.00747     3.28153
      C    5    0.35207      0.99961     1.62451    0.02381     2.64793
      O    6   -0.32337      0.99988     3.31769    0.00580     4.32337
      N    7   -0.33785      0.99965     2.82926    0.00894     3.83785
      C    8   -0.08967      0.99960     2.08025    0.00983     3.08967
      C    9   -0.19128      0.99962     2.18270    0.00896     3.19128
      C   10   -0.09083      0.99959     2.07998    0.01126     3.09083
      N   11   -0.28584      0.99973     2.77177    0.01434     3.78584
      C   12   -0.17478      0.99964     2.16653    0.00861     3.17478
      C   13   -0.08821      0.99959     2.07542    0.01321     3.08821
      C   14   -0.09931      0.99958     2.08914    0.01059     3.09931
      N   15   -0.22066      0.99970     2.70669    0.01427     3.72066
      N   16    0.13295      0.99970     2.35221    0.01515     3.36705
      N   17   -0.01172      0.99982     2.49896    0.01295     3.51172
      H   18    0.09271      0.00000     0.40648    0.00081     0.40729
      H   19    0.10617      0.00000     0.39299    0.00084     0.39383
      H   20    0.10605      0.00000     0.39311    0.00084     0.39395
      H   21    0.09959      0.00000     0.39956    0.00085     0.40041
      H   22    0.10231      0.00000     0.39658    0.00111     0.39769
      H   23    0.10286      0.00000     0.39623    0.00091     0.39714
      H   24    0.10218      0.00000     0.39698    0.00084     0.39782
      H   25    0.10018      0.00000     0.39886    0.00096     0.39982
      H   26    0.09858      0.00000     0.40060    0.00083     0.40142
      H   27    0.20671      0.00000     0.28928    0.00401     0.29329
      H   28    0.08916      0.00000     0.40876    0.00208     0.41084
      H   29    0.09711      0.00000     0.40126    0.00163     0.40289
      H   30    0.10133      0.00000     0.39725    0.00142     0.39867
      H   31    0.09652      0.00000     0.40248    0.00100     0.40348
      H   32    0.09840      0.00000     0.40022    0.00138     0.40160
      H   33    0.09425      0.00000     0.40350    0.00225     0.40575
      H   34    0.08021      0.00000     0.41819    0.00160     0.41979
      H   35    0.09638      0.00000     0.40217    0.00145     0.40362
      H   36    0.09589      0.00000     0.40274    0.00137     0.40411
      H   37    0.09721      0.00000     0.40036    0.00243     0.40279
      H   38    0.09996      0.00000     0.39870    0.00134     0.40004
      H   39    0.09556      0.00000     0.40273    0.00171     0.40444
      H   40    0.09677      0.00000     0.40196    0.00127     0.40323
 =======================================================================
   * Total *    0.00000     16.99415    48.78420    0.22166    66.00000

 Normal termination of Gaussian 16 at Fri Dec 11 13:29:05 2020.
