 Gaussian 16, Revision A.03,

 -----------------------------------------------------------
 # opt freq B3LYP/6-31G(d) empiricaldispersion=gd3bj scf=xqc
 -----------------------------------------------------------

 -------------------------------
 CID_115747430_JID_5818_neutraal
 -------------------------------
 Symbolic Z-matrix:
 Charge =  0 Multiplicity = 1

 SCF Done:  E(RB3LYP) =  -686.195563258     A.U. after   15 cycles
 SCF Done:  E(RB3LYP) =  -686.191078208     A.U. after   14 cycles
 SCF Done:  E(RB3LYP) =  -686.200609898     A.U. after   12 cycles
 SCF Done:  E(RB3LYP) =  -686.198360305     A.U. after   13 cycles
 SCF Done:  E(RB3LYP) =  -686.202151310     A.U. after   12 cycles
 SCF Done:  E(RB3LYP) =  -686.202361483     A.U. after   12 cycles
 SCF Done:  E(RB3LYP) =  -686.202618010     A.U. after   12 cycles
 SCF Done:  E(RB3LYP) =  -686.202766131     A.U. after   12 cycles
 SCF Done:  E(RB3LYP) =  -686.202823937     A.U. after   10 cycles
 SCF Done:  E(RB3LYP) =  -686.202845104     A.U. after   10 cycles
 SCF Done:  E(RB3LYP) =  -686.202854416     A.U. after    9 cycles
 SCF Done:  E(RB3LYP) =  -686.202854982     A.U. after    8 cycles
 SCF Done:  E(RB3LYP) =  -686.202855358     A.U. after    8 cycles
 SCF Done:  E(RB3LYP) =  -686.202855782     A.U. after    8 cycles
 SCF Done:  E(RB3LYP) =  -686.202855924     A.U. after    7 cycles
 Optimization completed.
    -- Stationary point found.
 Normal termination of Gaussian 16 at Thu Dec 10 16:47:58 2020.

 --------------------------------------------------------------------
 #N Geom=AllCheck Guess=TCheck SCRF=Check GenChk RB3LYP/6-31G(d) Freq
 --------------------------------------------------------------------

 Structure from the checkpoint file:  "JID_5818.chk"
 -------------------------------
 CID_115747430_JID_5818_neutraal
 -------------------------------
 Charge =  0 Multiplicity = 1

 SCF Done:  E(RB3LYP) =  -686.202855924     A.U. after    1 cycles

  Exact polarizability: 141.418  15.682 118.387   0.109  -3.137 116.539
 Approx polarizability: 178.538  27.637 174.229  -2.868  -8.453 212.002

                      1                      2                      3
                      A                      A                      A
 Frequencies --     43.8878                57.3876                63.8310
 Red. masses --      4.0682                 2.5928                 4.8710
 Frc consts  --      0.0046                 0.0050                 0.0117
 IR Inten    --      1.6525                 0.4377                 4.3309

                      4                      5                      6
                      A                      A                      A
 Frequencies --     94.5904               124.6979               135.4902
 Red. masses --      3.8938                 3.7253                 4.7418
 Frc consts  --      0.0205                 0.0341                 0.0513
 IR Inten    --      0.4145                19.2595                 2.1889

                      7                      8                      9
                      A                      A                      A
 Frequencies --    162.6042               166.6184               178.4589
 Red. masses --      3.0633                 1.1829                 3.4268
 Frc consts  --      0.0477                 0.0193                 0.0643
 IR Inten    --      4.2192                 1.7958                 6.2308

                     10                     11                     12
                      A                      A                      A
 Frequencies --    198.3702               228.0874               242.7542
 Red. masses --      3.5692                 1.0888                 1.6655
 Frc consts  --      0.0828                 0.0334                 0.0578
 IR Inten    --      0.6672                 0.3473                 0.5410

                     13                     14                     15
                      A                      A                      A
 Frequencies --    265.0437               283.1855               322.9669
 Red. masses --      1.9496                 3.0166                 3.7251
 Frc consts  --      0.0807                 0.1425                 0.2289
 IR Inten    --      2.3353                 4.4098                 4.7683

                     16                     17                     18
                      A                      A                      A
 Frequencies --    338.9903               380.6961               392.0105
 Red. masses --      2.2330                 2.8414                 2.2711
 Frc consts  --      0.1512                 0.2426                 0.2056
 IR Inten    --      6.3436                 4.0389                 6.1067

                     19                     20                     21
                      A                      A                      A
 Frequencies --    437.9624               520.3730               538.1658
 Red. masses --      2.5149                 2.7292                 3.0149
 Frc consts  --      0.2842                 0.4354                 0.5145
 IR Inten    --      1.7678                29.1513                72.8191

                     22                     23                     24
                      A                      A                      A
 Frequencies --    571.4084               581.3271               608.9124
 Red. masses --      1.6199                 1.7538                 3.4790
 Frc consts  --      0.3116                 0.3492                 0.7600
 IR Inten    --    159.5927                28.1840                 8.6748

                     25                     26                     27
                      A                      A                      A
 Frequencies --    638.8051               680.9800               731.1555
 Red. masses --      2.9767                 4.0290                 1.4840
 Frc consts  --      0.7157                 1.1008                 0.4674
 IR Inten    --     29.2070                 7.1651                33.7742

                     28                     29                     30
                      A                      A                      A
 Frequencies --    739.2960               759.4845               811.7556
 Red. masses --      1.8096                 5.1382                 2.9503
 Frc consts  --      0.5827                 1.7462                 1.1454
 IR Inten    --     46.0894                19.3722                75.2302

                     31                     32                     33
                      A                      A                      A
 Frequencies --    844.5338               873.8790               901.8198
 Red. masses --      1.2805                 2.1470                 2.9494
 Frc consts  --      0.5381                 0.9660                 1.4132
 IR Inten    --     10.5342                11.4185                34.1467

                     34                     35                     36
                      A                      A                      A
 Frequencies --    931.2252               940.4978               951.2636
 Red. masses --      1.9001                 6.5508                 1.2770
 Frc consts  --      0.9708                 3.4140                 0.6808
 IR Inten    --      2.7892                 4.7116                 5.0683

                     37                     38                     39
                      A                      A                      A
 Frequencies --    979.9111               985.2533               996.5361
 Red. masses --      1.6395                 1.8378                 2.5046
 Frc consts  --      0.9275                 1.0511                 1.4654
 IR Inten    --      1.2662                12.8983                 2.5082

                     40                     41                     42
                      A                      A                      A
 Frequencies --   1064.6852              1083.5608              1124.6652
 Red. masses --      1.8100                 2.1791                 1.5516
 Frc consts  --      1.2089                 1.5074                 1.1563
 IR Inten    --      8.3691                25.3778                17.6999

                     43                     44                     45
                      A                      A                      A
 Frequencies --   1138.8748              1150.0623              1156.7422
 Red. masses --      3.0005                 2.0221                 2.3477
 Frc consts  --      2.2929                 1.5758                 1.8508
 IR Inten    --     36.7148                17.4342                 4.5744

                     46                     47                     48
                      A                      A                      A
 Frequencies --   1169.4260              1177.6142              1191.5336
 Red. masses --      1.2871                 1.8175                 2.8798
 Frc consts  --      1.0371                 1.4850                 2.4090
 IR Inten    --      5.9478                 3.5785                 0.7800

                     49                     50                     51
                      A                      A                      A
 Frequencies --   1207.3247              1211.6254              1259.0250
 Red. masses --      1.7000                 2.0893                 1.7539
 Frc consts  --      1.4599                 1.8071                 1.6381
 IR Inten    --     11.6151                 1.4771                10.9651

                     52                     53                     54
                      A                      A                      A
 Frequencies --   1284.7874              1308.9105              1356.6858
 Red. masses --      1.4471                 1.6732                 1.4418
 Frc consts  --      1.4074                 1.6890                 1.5636
 IR Inten    --     18.8676                18.6330                20.0759

                     55                     56                     57
                      A                      A                      A
 Frequencies --   1369.7541              1379.2316              1393.0641
 Red. masses --      1.3654                 1.3799                 1.3948
 Frc consts  --      1.5093                 1.5466                 1.5948
 IR Inten    --      0.7489                13.3770                10.9576

                     58                     59                     60
                      A                      A                      A
 Frequencies --   1409.8621              1423.2996              1426.8406
 Red. masses --      2.9073                 1.3502                 1.5121
 Frc consts  --      3.4048                 1.6116                 1.8137
 IR Inten    --      3.8953                 7.6971                38.5062

                     61                     62                     63
                      A                      A                      A
 Frequencies --   1447.3775              1471.1339              1476.8823
 Red. masses --      1.2304                 2.7047                 1.8170
 Frc consts  --      1.5187                 3.4489                 2.3351
 IR Inten    --      4.7420                21.9455                19.2709

                     64                     65                     66
                      A                      A                      A
 Frequencies --   1498.8878              1502.8904              1518.3131
 Red. masses --      1.1192                 1.3674                 1.2552
 Frc consts  --      1.4815                 1.8197                 1.7049
 IR Inten    --      4.5025                23.2545                 3.4776

                     67                     68                     69
                      A                      A                      A
 Frequencies --   1520.4294              1521.3317              1525.3428
 Red. masses --      2.1715                 1.0531                 1.0667
 Frc consts  --      2.9576                 1.4360                 1.4623
 IR Inten    --      2.6979                 1.6261                 1.7866

                     70                     71                     72
                      A                      A                      A
 Frequencies --   1530.3054              1537.1170              1544.4658
 Red. masses --      1.3010                 1.0552                 1.0502
 Frc consts  --      1.7950                 1.4689                 1.4759
 IR Inten    --     21.2921                 8.6551                 8.8535

                     73                     74                     75
                      A                      A                      A
 Frequencies --   1555.0323              1593.5994              1744.2718
 Red. masses --      1.0761                 3.4583                 6.8195
 Frc consts  --      1.5332                 5.1746                12.2245
 IR Inten    --     19.6971                15.2000               238.3177

                     76                     77                     78
                      A                      A                      A
 Frequencies --   3035.1869              3039.4057              3046.1089
 Red. masses --      1.0767                 1.0412                 1.0455
 Frc consts  --      5.8443                 5.6673                 5.7156
 IR Inten    --      2.4205                17.8193                36.7180

                     79                     80                     81
                      A                      A                      A
 Frequencies --   3054.4659              3060.6040              3090.7119
 Red. masses --      1.0649                 1.0350                 1.0843
 Frc consts  --      5.8534                 5.7125                 6.1024
 IR Inten    --     36.3925                28.2145                12.0741

                     82                     83                     84
                      A                      A                      A
 Frequencies --   3100.5944              3109.1027              3111.9733
 Red. masses --      1.0986                 1.0976                 1.0996
 Frc consts  --      6.2228                 6.2511                 6.2744
 IR Inten    --      9.8785                70.2597                16.9191

                     85                     86                     87
                      A                      A                      A
 Frequencies --   3127.2637              3130.3790              3152.1520
 Red. masses --      1.1019                 1.1058                 1.0986
 Frc consts  --      6.3494                 6.3842                 6.4315
 IR Inten    --     25.8095                11.7019                14.0540

                     88                     89                     90
                      A                      A                      A
 Frequencies --   3153.9346              3258.8618              3290.9615
 Red. masses --      1.1024                 1.0922                 1.1034
 Frc consts  --      6.4611                 6.8344                 7.0409
 IR Inten    --     14.9000                 8.4097                 4.4161

                     91                     92                     93
                      A                      A                      A
 Frequencies --   3485.5332              3594.1067              3607.0689
 Red. masses --      1.0732                 1.0760                 1.0807
 Frc consts  --      7.6817                 8.1892                 8.2843
 IR Inten    --      2.6211                17.8873                65.9522

 - Thermochemistry -
 -------------------
 Temperature   298.150 Kelvin.  Pressure   1.00000 Atm.
 Atom     1 has atomic number  6 and mass  12.00000

 Molecular mass:   210.14806 amu.
 Principal axes and moments of inertia in atomic units:
                           1         2         3
     Eigenvalues --  1736.257004029.869194546.92846
           X            0.99986   0.01228   0.01150
           Y           -0.01178   0.99903  -0.04249
           Z           -0.01201   0.04235   0.99903
 This molecule is an asymmetric top.
 Rotational symmetry number  1.
 Warning -- assumption of classical behavior for rotation
           may cause significant error
 Rotational temperatures (Kelvin)      0.04989     0.02149     0.01905
 Rotational constants (GHZ):           1.03944     0.44784     0.39691
 Zero-point vibrational energy     756204.9 (Joules/Mol)
                                  180.73731 (Kcal/Mol)
 Warning -- explicit consideration of  24 degrees of freedom as
           vibrations may cause significant error
 Vibrational temperatures:     63.14    82.57    91.84   136.09   179.41
          (Kelvin)            194.94   233.95   239.73   256.76   285.41
                              328.17   349.27   381.34   407.44   464.68
                              487.73   547.74   564.02   630.13   748.70
                              774.30   822.13   836.40   876.09   919.10
                              979.78  1051.97  1063.68  1092.73  1167.94
                             1215.10  1257.32  1297.52  1339.83  1353.17
                             1368.66  1409.87  1417.56  1433.79  1531.84
                             1559.00  1618.14  1638.59  1654.68  1664.29
                             1682.54  1694.32  1714.35  1737.07  1743.26
                             1811.46  1848.52  1883.23  1951.97  1970.77
                             1984.41  2004.31  2028.48  2047.81  2052.91
                             2082.45  2116.63  2124.90  2156.57  2162.32
                             2184.51  2187.56  2188.86  2194.63  2201.77
                             2211.57  2222.14  2237.34  2292.83  2509.62
                             4366.96  4373.03  4382.67  4394.70  4403.53
                             4446.85  4461.06  4473.31  4477.44  4499.43
                             4503.92  4535.24  4537.81  4688.78  4734.96
                             5014.90  5171.12  5189.77

 Zero-point correction=                           0.288023 (Hartree/Particle)
 Thermal correction to Energy=                    0.303786
 Thermal correction to Enthalpy=                  0.304730
 Thermal correction to Gibbs Free Energy=         0.245243
 Sum of electronic and zero-point Energies=           -685.914833
 Sum of electronic and thermal Energies=              -685.899070
 Sum of electronic and thermal Enthalpies=            -685.898126
 Sum of electronic and thermal Free Energies=         -685.957613

                     E (Thermal)             CV                S
                      KCal/Mol        Cal/Mol-Kelvin    Cal/Mol-Kelvin
 Total                  190.628             59.065            125.200
 Electronic               0.000              0.000              0.000
 Translational            0.889              2.981             41.932
 Rotational               0.889              2.981             31.831
 Vibrational            188.851             53.104             51.437
 Vibration     1          0.595              1.980              5.075
 Vibration     2          0.596              1.975              4.545
 Vibration     3          0.597              1.972              4.335
 Vibration     4          0.603              1.953              3.563
 Vibration     5          0.610              1.928              3.026
 Vibration     6          0.613              1.918              2.867
 Vibration     7          0.623              1.888              2.519
 Vibration     8          0.624              1.884              2.473
 Vibration     9          0.629              1.869              2.344
 Vibration    10          0.637              1.842              2.148
 Vibration    11          0.651              1.798              1.894
 Vibration    12          0.659              1.775              1.783
 Vibration    13          0.671              1.737              1.628
 Vibration    14          0.682              1.705              1.514
 Vibration    15          0.708              1.629              1.295
 Vibration    16          0.719              1.598              1.217
 Vibration    17          0.750              1.511              1.036
 Vibration    18          0.759              1.487              0.992
 Vibration    19          0.798              1.387              0.833
 Vibration    20          0.875              1.205              0.609
 Vibration    21          0.893              1.166              0.569
 Vibration    22          0.928              1.093              0.502
 Vibration    23          0.938              1.072              0.483
 Vibration    24          0.968              1.013              0.435

                           ! Non-Optimized Parameters !
 Normal termination of Gaussian 16 at Thu Dec 10 17:00:26 2020.

 ----------------------------------------------------------------------
 # B3LYP/6-311++G(d,p) empiricaldispersion=gd3bj scf=xqc pop=npa geom=c
 heck
 ----------------------------------------------------------------------

 ---------------------------------------
 CID_115747430_JID_5818_Energie_neutraal
 ---------------------------------------
 Structure from the checkpoint file:  "JID_5818.chk"
 Charge =  0 Multiplicity = 1

 SCF Done:  E(RB3LYP) =  -686.404856080     A.U. after   17 cycles
 Normal termination of Gaussian 16 at Thu Dec 10 17:11:42 2020.

 ----------------------------------------------------------------------
 # B3LYP/6-311++G(d,p) empiricaldispersion=gd3bj scf=xqc pop=npa geom=c
 heck
 ----------------------------------------------------------------------

 -------------------------------------
 CID_115747430_JID_5818_Energie_kation
 -------------------------------------
 Structure from the checkpoint file:  "JID_5818.chk"
 Charge =  1 Multiplicity = 2

 SCF Done:  E(UB3LYP) =  -686.106625549     A.U. after   25 cycles
 Normal termination of Gaussian 16 at Thu Dec 10 17:31:28 2020.
 Gaussian 16:  ES64L-G16RevA.03 25-Dec-2016

 ----------------------------------------------------------------------
 # B3LYP/6-311++G(d,p) empiricaldispersion=gd3bj scf=xqc pop=npa geom=c
 heck
 ----------------------------------------------------------------------

 ------------------------------------
 CID_115747430_JID_5818_Energie_anion
 ------------------------------------
 Structure from the checkpoint file:  "JID_5818.chk"
 Charge = -1 Multiplicity = 2

                         Standard orientation:
 ---------------------------------------------------------------------
 Center     Atomic      Atomic             Coordinates (Angstroms)
 Number     Number       Type             X           Y           Z
 ---------------------------------------------------------------------
      1          6           0       -3.241837    1.206215   -0.053322
      2          6           0       -2.701320   -0.207761    0.195080
      3          6           0       -3.471943   -1.241284   -0.631075
      4          6           0       -1.183120   -0.305608   -0.092683
      5          6           0       -0.429089    0.737860    0.747583
      6          8           0       -0.287656    0.549417    1.962216
      7          7           0        0.067403    1.843657    0.141895
      8          6           0        0.157880    2.095863   -1.292538
      9          7           0       -0.695472   -1.646290    0.237198
     10          6           0        0.579914   -2.010395   -0.388888
     11          6           0        1.725978   -1.040803   -0.256670
     12          7           0        2.414902   -0.533245   -1.266739
     13          6           0        3.350595    0.307630   -0.698719
     14          6           0        3.220067    0.315881    0.667754
     15          7           0        2.202781   -0.575460    0.942318
     16          1           0       -3.118433    1.492914   -1.105940
     17          1           0       -2.739545    1.957221    0.564480
     18          1           0       -4.312750    1.249310    0.172370
     19          1           0       -2.826465   -0.439151    1.261926
     20          1           0       -3.400738   -1.010581   -1.702437
     21          1           0       -3.067508   -2.243210   -0.472028
     22          1           0       -4.534062   -1.238167   -0.360727
     23          1           0       -1.015889   -0.147397   -1.162768
     24          1           0        0.625137    2.421317    0.758721
     25          1           0       -0.835793    2.137754   -1.747429
     26          1           0        0.630639    3.070076   -1.432680
     27          1           0        0.765718    1.336855   -1.796544
     28          1           0       -0.620978   -1.694026    1.252839
     29          1           0        0.864713   -2.989482    0.016002
     30          1           0        0.421133   -2.143488   -1.463469
     31          1           0        4.061382    0.850371   -1.306832
     32          1           0        3.747294    0.838948    1.451272
     33          1           0        1.687344   -0.610823    1.813687
 ---------------------------------------------------------------------

 SCF Done:  E(UB3LYP) =  -686.391495729     A.U. after   33 cycles
 SCF Done:  E(UB3LYP) =  -686.391495729     a.u. after    1 cycles

 The electronic state is 2-A.
 Alpha  occ. eigenvalues --  -18.99548 -14.26770 -14.24446 -14.21466 -14.20162
 Alpha  occ. eigenvalues --  -10.17655 -10.13281 -10.11785 -10.11522 -10.10423
 Alpha  occ. eigenvalues --  -10.10333 -10.08871 -10.08713 -10.06639 -10.06377
 Alpha  occ. eigenvalues --   -0.94627  -0.92054  -0.82824  -0.82554  -0.77606
 Alpha  occ. eigenvalues --   -0.71450  -0.66613  -0.62073  -0.60841  -0.59420
 Alpha  occ. eigenvalues --   -0.56764  -0.51195  -0.50219  -0.49770  -0.46948
 Alpha  occ. eigenvalues --   -0.44709  -0.41534  -0.39672  -0.39413  -0.37459
 Alpha  occ. eigenvalues --   -0.35966  -0.35279  -0.34602  -0.33831  -0.33675
 Alpha  occ. eigenvalues --   -0.32702  -0.31315  -0.30937  -0.30383  -0.29639
 Alpha  occ. eigenvalues --   -0.28873  -0.28639  -0.27993  -0.24921  -0.24439
 Alpha  occ. eigenvalues --   -0.23535  -0.19250  -0.18524  -0.17471  -0.16665
 Alpha  occ. eigenvalues --   -0.14801  -0.13432   0.04323
 Alpha virt. eigenvalues --    0.06191   0.06649   0.07617   0.08053   0.08423
 Alpha virt. eigenvalues --    0.08928   0.09440   0.10057   0.10404   0.10553
 Alpha virt. eigenvalues --    0.11004   0.11240   0.12057   0.12388   0.13230

  Beta  occ. eigenvalues --  -18.99542 -14.26759 -14.24422 -14.21460 -14.20159
  Beta  occ. eigenvalues --  -10.17656 -10.13277 -10.11778 -10.11512 -10.10401
  Beta  occ. eigenvalues --  -10.10293 -10.08861 -10.08709 -10.06612 -10.06359
  Beta  occ. eigenvalues --   -0.94617  -0.92039  -0.82791  -0.82537  -0.77588
  Beta  occ. eigenvalues --   -0.71432  -0.66588  -0.62034  -0.60782  -0.59378
  Beta  occ. eigenvalues --   -0.56727  -0.51162  -0.50174  -0.49746  -0.46909
  Beta  occ. eigenvalues --   -0.44671  -0.41506  -0.39614  -0.39373  -0.37432
  Beta  occ. eigenvalues --   -0.35934  -0.35251  -0.34572  -0.33803  -0.33637
  Beta  occ. eigenvalues --   -0.32679  -0.31287  -0.30909  -0.30334  -0.29612
  Beta  occ. eigenvalues --   -0.28854  -0.28614  -0.27972  -0.24901  -0.24407
  Beta  occ. eigenvalues --   -0.23514  -0.19236  -0.18515  -0.17461  -0.16641
  Beta  occ. eigenvalues --   -0.14786  -0.13413
  Beta virt. eigenvalues --    0.06363   0.07101   0.07470   0.08126   0.08562
  Beta virt. eigenvalues --    0.08825   0.09466   0.09781   0.10442   0.10496
  Beta virt. eigenvalues --    0.10719   0.11207   0.11591   0.12317   0.12699

 Mulliken charges and spin densities:
               1          2
     1  C    0.675088  -1.466422
     2  C   -1.414611   2.210017
     3  C    0.216784  -0.783487
     4  C    1.221874  -1.737055
     5  C   -1.136312   0.449225
     6  O   -0.309184   0.041076
     7  N   -0.039149  -0.004153
     8  C    0.673834  -1.133025
     9  N    0.046139   0.031167
    10  C    0.434864  -1.426147
    11  C   -0.184774  -0.034668
    12  N   -0.018921   0.076120
    13  C    0.432329  -0.307482
    14  C    0.180669  -0.288542
    15  N   -0.024632   0.135850
    16  H   -0.047103   0.189351
    17  H    0.000037   0.182128
    18  H   -0.167743   0.323122
    19  H    0.038781   0.126562
    20  H   -0.191256   0.311410
    21  H    0.143212   0.028902
    22  H   -0.063375   0.212387
    23  H    0.398661  -0.192962
    24  H   -0.071985   0.403841
    25  H   -0.116847   0.282026
    26  H   -0.964118   1.139071
    27  H    0.151589   0.029464
    28  H    0.243417   0.038733
    29  H   -0.072781   0.263365
    30  H    0.168835   0.033153
    31  H   -0.328585   0.494970
    32  H   -1.052331   1.228647
    33  H    0.177595   0.143357
 Sum of Mulliken charges =  -1.00000   1.00000

 Dipole moment (field-independent basis, Debye):
    X=             -2.1903    Y=             -5.9186    Z=              0.3832  Tot=              6.3225
 Quadrupole moment (field-independent basis, Debye-Ang):
   XX=           -163.9651   YY=           -144.9687   ZZ=           -130.5465
   XY=             -8.8235   XZ=             -3.6165   YZ=             -1.1009

 Summary of Natural Population Analysis:

                                       Natural Population
                Natural  -----------------------------------------------
    Atom  No    Charge         Core      Valence    Rydberg      Total
 -----------------------------------------------------------------------
      C    1   -0.28686      0.99965     2.28154    0.00568     3.28686
      C    2   -0.11123      0.99960     2.10146    0.01018     3.11123
      C    3   -0.28596      0.99965     2.28044    0.00588     3.28596
      C    4   -0.04834      0.99952     2.03579    0.01303     3.04834
      C    5    0.34101      0.99963     1.63410    0.02527     2.65899
      O    6   -0.35149      0.99988     3.34580    0.00582     4.35149
      N    7   -0.30854      0.99965     2.79531    0.01358     3.80854
      C    8   -0.18514      0.99963     2.17698    0.00853     3.18514
      N    9   -0.33491      0.99975     2.82393    0.01124     3.83491
      C   10   -0.10630      0.99958     2.09617    0.01055     3.10630
      C   11    0.17106      0.99961     1.81102    0.01831     2.82894
      N   12   -0.26213      0.99970     2.75297    0.00946     3.76213
      C   13   -0.03736      0.99957     2.02359    0.01420     3.03736
      C   14   -0.03308      0.99956     2.02049    0.01303     3.03308
      N   15   -0.27696      0.99965     2.76767    0.00964     3.77696
      H   16    0.09658      0.00000     0.40221    0.00121     0.40342
      H   17    0.10486      0.00000     0.39408    0.00106     0.39514
      H   18    0.10066      0.00000     0.39850    0.00084     0.39934
      H   19    0.09800      0.00000     0.40031    0.00169     0.40200
      H   20    0.09505      0.00000     0.40408    0.00087     0.40495
      H   21    0.10867      0.00000     0.39015    0.00118     0.39133
      H   22    0.09759      0.00000     0.40165    0.00076     0.40241
      H   23    0.10177      0.00000     0.39602    0.00221     0.39823
      H   24    0.19896      0.00000     0.29603    0.00501     0.30104
      H   25    0.09512      0.00000     0.40347    0.00141     0.40488
      H   26    0.10679      0.00000     0.39054    0.00267     0.39321
      H   27    0.10453      0.00000     0.39354    0.00193     0.39547
      H   28    0.17919      0.00000     0.31804    0.00276     0.32081
      H   29    0.10179      0.00000     0.39723    0.00098     0.39821
      H   30    0.10520      0.00000     0.39348    0.00133     0.39480
      H   31    0.09897      0.00000     0.39990    0.00113     0.40103
      H   32    0.10743      0.00000     0.38996    0.00261     0.39257
      H   33    0.21508      0.00000     0.28265    0.00227     0.28492
 =======================================================================
   * Total *   -0.00000     14.99460    41.79909    0.20631    57.00000

 Normal termination of Gaussian 16 at Thu Dec 10 17:49:21 2020.
