 Gaussian 16, Revision A.03,

 -----------------------------------------------------------
 # opt freq B3LYP/6-31G(d) empiricaldispersion=gd3bj scf=xqc
 -----------------------------------------------------------

 ------------------------------
 CID_65767484_JID_8840_neutraal
 ------------------------------
 Symbolic Z-matrix:
 Charge =  0 Multiplicity = 1

 SCF Done:  E(RB3LYP) =  -1526.83143190     A.U. after   15 cycles
 SCF Done:  E(RB3LYP) =  -1526.84077652     A.U. after   12 cycles
 SCF Done:  E(RB3LYP) =  -1526.83983386     A.U. after   12 cycles
 SCF Done:  E(RB3LYP) =  -1526.84282294     A.U. after   12 cycles
 SCF Done:  E(RB3LYP) =  -1526.84336087     A.U. after   12 cycles
 SCF Done:  E(RB3LYP) =  -1526.84358499     A.U. after   12 cycles
 SCF Done:  E(RB3LYP) =  -1526.84371464     A.U. after   11 cycles
 SCF Done:  E(RB3LYP) =  -1526.84375817     A.U. after   10 cycles
 SCF Done:  E(RB3LYP) =  -1526.84376906     A.U. after   10 cycles
 SCF Done:  E(RB3LYP) =  -1526.84377354     A.U. after    9 cycles
 SCF Done:  E(RB3LYP) =  -1526.84377831     A.U. after    8 cycles
 SCF Done:  E(RB3LYP) =  -1526.84377835     A.U. after    7 cycles
 SCF Done:  E(RB3LYP) =  -1526.84377837     A.U. after    7 cycles
 SCF Done:  E(RB3LYP) =  -1526.84377839     A.U. after    7 cycles
 SCF Done:  E(RB3LYP) =  -1526.84377840     A.U. after    7 cycles
 Optimization completed.
    -- Stationary point found.
 Normal termination of Gaussian 16 at Fri Dec 11 22:22:16 2020.

 --------------------------------------------------------------------
 #N Geom=AllCheck Guess=TCheck SCRF=Check GenChk RB3LYP/6-31G(d) Freq
 --------------------------------------------------------------------

 Structure from the checkpoint file:  "JID_8840.chk"
 ------------------------------
 CID_65767484_JID_8840_neutraal
 ------------------------------
 Charge =  0 Multiplicity = 1

 SCF Done:  E(RB3LYP) =  -1526.84377840     A.U. after    1 cycles

  Exact polarizability: 223.263   2.714 153.641   0.282  -8.099 156.284
 Approx polarizability: 303.142  -1.850 220.074   2.805 -18.364 281.415

                      1                      2                      3
                      A                      A                      A
 Frequencies --     18.4391                23.3645                29.3523
 Red. masses --      3.9032                 3.4970                 3.6633
 Frc consts  --      0.0008                 0.0011                 0.0019
 IR Inten    --      0.4236                 0.4846                 0.7574

                      4                      5                      6
                      A                      A                      A
 Frequencies --     46.7480                70.2134                77.9913
 Red. masses --      3.2438                 3.7686                 3.0296
 Frc consts  --      0.0042                 0.0109                 0.0109
 IR Inten    --      0.1078                 0.1678                 1.4892

                      7                      8                      9
                      A                      A                      A
 Frequencies --     81.9845                98.4124               129.4980
 Red. masses --      3.5306                 1.8949                 6.9080
 Frc consts  --      0.0140                 0.0108                 0.0683
 IR Inten    --      0.6068                 5.4975                 2.7478

                     10                     11                     12
                      A                      A                      A
 Frequencies --    146.3069               168.7566               200.2299
 Red. masses --      3.5750                 2.9526                 3.5971
 Frc consts  --      0.0451                 0.0495                 0.0850
 IR Inten    --      0.7357                 2.0357                 0.7481

                     13                     14                     15
                      A                      A                      A
 Frequencies --    221.2652               230.9875               237.0473
 Red. masses --      1.3877                 3.5102                 2.0071
 Frc consts  --      0.0400                 0.1103                 0.0665
 IR Inten    --      0.2356                 0.8312                 1.1326

                     16                     17                     18
                      A                      A                      A
 Frequencies --    258.5484               267.2316               273.1966
 Red. masses --      1.4308                 1.5026                 1.0716
 Frc consts  --      0.0564                 0.0632                 0.0471
 IR Inten    --      2.1777                 0.5697                 0.1814

                     19                     20                     21
                      A                      A                      A
 Frequencies --    281.3699               302.1110               311.9827
 Red. masses --      3.3763                 2.8085                 3.0675
 Frc consts  --      0.1575                 0.1510                 0.1759
 IR Inten    --      1.7879                 0.4740                 2.7544

                     22                     23                     24
                      A                      A                      A
 Frequencies --    323.0802               333.6388               355.5317
 Red. masses --      4.1447                 2.8613                 3.1466
 Frc consts  --      0.2549                 0.1877                 0.2343
 IR Inten    --      5.6488                 3.4405                 2.4035

                     25                     26                     27
                      A                      A                      A
 Frequencies --    388.3368               405.4524               470.8415
 Red. masses --      2.9173                 4.6506                 3.7568
 Frc consts  --      0.2592                 0.4504                 0.4907
 IR Inten    --      0.4751                 1.4309                 3.9895

                     28                     29                     30
                      A                      A                      A
 Frequencies --    482.2919               491.6456               536.0482
 Red. masses --      3.6377                 4.3585                 3.5213
 Frc consts  --      0.4985                 0.6207                 0.5962
 IR Inten    --      4.3738                11.8654                 4.1409

                     31                     32                     33
                      A                      A                      A
 Frequencies --    562.8955               586.4328               602.9550
 Red. masses --      4.8014                 3.7803                 4.5825
 Frc consts  --      0.8963                 0.7660                 0.9816
 IR Inten    --     37.3363                24.6251                32.7436

                     34                     35                     36
                      A                      A                      A
 Frequencies --    636.9442               676.0236               690.7675
 Red. masses --      4.1907                 5.4457                 5.8349
 Frc consts  --      1.0017                 1.4663                 1.6404
 IR Inten    --     16.7754               168.0752                11.1733

                     37                     38                     39
                      A                      A                      A
 Frequencies --    752.4927               792.0620               792.6231
 Red. masses --      6.1484                 1.3528                 1.4585
 Frc consts  --      2.0512                 0.5000                 0.5399
 IR Inten    --      3.8955                36.6887                58.5610

                     40                     41                     42
                      A                      A                      A
 Frequencies --    821.2777               857.7711               873.2050
 Red. masses --      1.2608                 1.5338                 2.1929
 Frc consts  --      0.5010                 0.6649                 0.9851
 IR Inten    --     24.0173                 2.8739                11.5259

                     43                     44                     45
                      A                      A                      A
 Frequencies --    905.7953               922.7614               937.5152
 Red. masses --      1.4140                 2.6866                 1.2143
 Frc consts  --      0.6835                 1.3478                 0.6288
 IR Inten    --      0.2225                83.2140                 0.6463

                     46                     47                     48
                      A                      A                      A
 Frequencies --    954.4282               961.6246               985.2147
 Red. masses --      1.9738                 1.4021                 2.0523
 Frc consts  --      1.0594                 0.7639                 1.1737
 IR Inten    --      7.5340                 0.3903                15.8367

                     49                     50                     51
                      A                      A                      A
 Frequencies --   1018.7307              1030.8642              1054.3597
 Red. masses --      2.3775                 2.1404                 1.8679
 Frc consts  --      1.4537                 1.3401                 1.2234
 IR Inten    --     25.6968                24.9289                16.7638

                     52                     53                     54
                      A                      A                      A
 Frequencies --   1093.3982              1094.9543              1122.9369
 Red. masses --      2.5453                 3.0336                 2.6398
 Frc consts  --      1.7928                 2.1429                 1.9612
 IR Inten    --     76.4760                43.7346                20.9726

                     55                     56                     57
                      A                      A                      A
 Frequencies --   1132.0829              1145.7313              1152.2386
 Red. masses --      2.9930                 1.7783                 2.0459
 Frc consts  --      2.2601                 1.3754                 1.6004
 IR Inten    --    121.0227                 5.4823                59.6048

                     58                     59                     60
                      A                      A                      A
 Frequencies --   1161.0217              1168.1772              1169.9927
 Red. masses --      2.4248                 2.0030                 1.9875
 Frc consts  --      1.9257                 1.6104                 1.6030
 IR Inten    --     45.3149                 7.2033                 9.4777

                     61                     62                     63
                      A                      A                      A
 Frequencies --   1199.5019              1218.4020              1228.7575
 Red. masses --      1.9438                 2.2702                 2.1156
 Frc consts  --      1.6478                 1.9856                 1.8820
 IR Inten    --     12.0450                56.9005                14.1539

                     64                     65                     66
                      A                      A                      A
 Frequencies --   1234.6216              1275.2639              1305.5573
 Red. masses --      1.4313                 1.4174                12.5682
 Frc consts  --      1.2854                 1.3581                12.6216
 IR Inten    --     10.7373                21.5966               177.5928

                     67                     68                     69
                      A                      A                      A
 Frequencies --   1315.8762              1352.9407              1362.8038
 Red. masses --      1.4157                 1.1380                 1.3589
 Frc consts  --      1.4443                 1.2273                 1.4870
 IR Inten    --      2.9192                15.0425                 5.7949

                     70                     71                     72
                      A                      A                      A
 Frequencies --   1371.2490              1382.0061              1405.9377
 Red. masses --      1.4724                 2.2692                 1.3601
 Frc consts  --      1.6312                 2.5536                 1.5840
 IR Inten    --      4.7929                 4.3390                22.9721

                     73                     74                     75
                      A                      A                      A
 Frequencies --   1418.9879              1427.9866              1441.0372
 Red. masses --      1.2352                 1.2443                 1.2078
 Frc consts  --      1.4654                 1.4949                 1.4777
 IR Inten    --      9.5393                 5.2640                 5.7773

                     76                     77                     78
                      A                      A                      A
 Frequencies --   1442.1847              1455.3268              1483.8629
 Red. masses --      1.2678                 1.2227                 1.2023
 Frc consts  --      1.5536                 1.5257                 1.5598
 IR Inten    --      9.5111                11.7396                 1.6845

                     79                     80                     81
                      A                      A                      A
 Frequencies --   1494.6651              1505.9214              1507.7305
 Red. masses --      4.0401                 1.1683                 1.0448
 Frc consts  --      5.3178                 1.5610                 1.3994
 IR Inten    --     43.5739                 6.5896                 0.6391

                     82                     83                     84
                      A                      A                      A
 Frequencies --   1515.1382              1519.8068              1520.9742
 Red. masses --      1.1831                 1.0662                 1.0620
 Frc consts  --      1.6002                 1.4509                 1.4475
 IR Inten    --     23.9057                 5.6061                 3.5613

                     85                     86                     87
                      A                      A                      A
 Frequencies --   1521.5971              1521.8935              1527.3460
 Red. masses --      1.0579                 1.0588                 1.0447
 Frc consts  --      1.4431                 1.4448                 1.4359
 IR Inten    --      1.9921                 2.0542                 7.1793

                     88                     89                     90
                      A                      A                      A
 Frequencies --   1533.1786              1534.9374              1542.8612
 Red. masses --      1.0693                 1.0607                 1.0976
 Frc consts  --      1.4809                 1.4724                 1.5394
 IR Inten    --      2.3045                 2.3182                13.7335

                     91                     92                     93
                      A                      A                      A
 Frequencies --   1547.8669              1594.4692              2933.4762
 Red. masses --      1.0578                 5.2392                 1.0729
 Frc consts  --      1.4932                 7.8477                 5.4395
 IR Inten    --      7.6951                 4.1459                53.1593

                     94                     95                     96
                      A                      A                      A
 Frequencies --   2956.7434              3031.8535              3052.4596
 Red. masses --      1.0608                 1.0732                 1.0362
 Frc consts  --      5.4642                 5.8125                 5.6886
 IR Inten    --    103.6728                38.2557                18.5257

                     97                     98                     99
                      A                      A                      A
 Frequencies --   3058.5065              3060.3137              3064.7174
 Red. masses --      1.0746                 1.0400                 1.0493
 Frc consts  --      5.9226                 5.7389                 5.8067
 IR Inten    --     10.4718                14.5436                23.2470

                    100                    101                    102
                      A                      A                      A
 Frequencies --   3069.2217              3071.7740              3075.7140
 Red. masses --      1.0738                 1.0739                 1.0738
 Frc consts  --      5.9598                 5.9701                 5.9849
 IR Inten    --     60.4031                20.3995                54.0352

                    103                    104                    105
                      A                      A                      A
 Frequencies --   3112.6827              3113.9560              3124.1820
 Red. masses --      1.1036                 1.1013                 1.1021
 Frc consts  --      6.3001                 6.2920                 6.3382
 IR Inten    --     11.2567                29.4826                25.3747

                    106                    107                    108
                      A                      A                      A
 Frequencies --   3129.4438              3134.2794              3135.5764
 Red. masses --      1.0982                 1.0994                 1.1013
 Frc consts  --      6.3365                 6.3634                 6.3795
 IR Inten    --     12.0507                27.0673                28.8064

                    109                    110                    111
                      A                      A                      A
 Frequencies --   3156.1662              3160.4737              3161.2866
 Red. masses --      1.1014                 1.0981                 1.0959
 Frc consts  --      6.4644                 6.4624                 6.4528
 IR Inten    --      8.8343                28.7857                12.9841

                    112                    113                    114
                      A                      A                      A
 Frequencies --   3217.0022              3244.3778              3503.4515
 Red. masses --      1.0913                 1.0958                 1.0734
 Frc consts  --      6.6542                 6.7961                 7.7623
 IR Inten    --      7.3095                 0.3094                 1.4033

 - Thermochemistry -
 -------------------
 Temperature   298.150 Kelvin.  Pressure   1.00000 Atm.
 Atom     1 has atomic number  6 and mass  12.00000

 Molecular mass:   290.11227 amu.
 Principal axes and moments of inertia in atomic units:
                           1         2         3
     Eigenvalues --  3069.285368089.756069119.74437
           X            0.99997   0.00610   0.00511
           Y           -0.00599   0.99976  -0.02108
           Z           -0.00524   0.02105   0.99976
 This molecule is an asymmetric top.
 Rotational symmetry number  1.
 Warning -- assumption of classical behavior for rotation
           may cause significant error
 Rotational temperatures (Kelvin)      0.02822     0.01071     0.00950
 Rotational constants (GHZ):           0.58800     0.22309     0.19789
 Zero-point vibrational energy     892399.4 (Joules/Mol)
                                  213.28858 (Kcal/Mol)
 Warning -- explicit consideration of  33 degrees of freedom as
           vibrations may cause significant error
 Vibrational temperatures:     26.53    33.62    42.23    67.26   101.02
          (Kelvin)            112.21   117.96   141.59   186.32   210.50
                              242.80   288.09   318.35   332.34   341.06
                              371.99   384.49   393.07   404.83   434.67
                              448.87   464.84   480.03   511.53   558.73
                              583.36   677.44   693.91   707.37   771.25
                              809.88   843.75   867.52   916.42   972.65
                              993.86  1082.67  1139.60  1140.41  1181.64
                             1234.14  1256.35  1303.24  1327.65  1348.88
                             1373.21  1383.56  1417.50  1465.73  1483.18
                             1516.99  1573.16  1575.40  1615.66  1628.81
                             1648.45  1657.81  1670.45  1680.75  1683.36
                             1725.82  1753.01  1767.91  1776.35  1834.82
                             1878.41  1893.25  1946.58  1960.77  1972.92
                             1988.40  2022.83  2041.61  2054.55  2073.33
                             2074.98  2093.89  2134.95  2150.49  2166.68
                             2169.29  2179.95  2186.66  2188.34  2189.24
                             2189.67  2197.51  2205.90  2208.43  2219.83
                             2227.04  2294.09  4220.62  4254.09  4362.16
                             4391.81  4400.51  4403.11  4409.44  4415.93
                             4419.60  4425.27  4478.46  4480.29  4495.00
                             4502.57  4509.53  4511.40  4541.02  4547.22
                             4548.39  4628.55  4667.94  5040.69

 Zero-point correction=                           0.339897 (Hartree/Particle)
 Thermal correction to Energy=                    0.360834
 Thermal correction to Enthalpy=                  0.361779
 Thermal correction to Gibbs Free Energy=         0.288100
 Sum of electronic and zero-point Energies=          -1526.503881
 Sum of electronic and thermal Energies=             -1526.482944
 Sum of electronic and thermal Enthalpies=           -1526.482000
 Sum of electronic and thermal Free Energies=        -1526.555678

                     E (Thermal)             CV                S
                      KCal/Mol        Cal/Mol-Kelvin    Cal/Mol-Kelvin
 Total                  226.427             76.581            155.069
 Electronic               0.000              0.000              0.000
 Translational            0.889              2.981             42.893
 Rotational               0.889              2.981             33.781
 Vibrational            224.650             70.619             78.395
 Vibration     1          0.593              1.986              6.796
 Vibration     2          0.593              1.985              6.325
 Vibration     3          0.593              1.984              5.873
 Vibration     4          0.595              1.979              4.950
 Vibration     5          0.598              1.968              4.147
 Vibration     6          0.599              1.964              3.941
 Vibration     7          0.600              1.961              3.843
 Vibration     8          0.604              1.950              3.486
 Vibration     9          0.612              1.924              2.953
 Vibration    10          0.617              1.907              2.720
 Vibration    11          0.625              1.881              2.449
 Vibration    12          0.638              1.840              2.131
 Vibration    13          0.648              1.809              1.949
 Vibration    14          0.653              1.794              1.871
 Vibration    15          0.656              1.784              1.825
 Vibration    16          0.667              1.748              1.672
 Vibration    17          0.672              1.733              1.614
 Vibration    18          0.676              1.723              1.576
 Vibration    19          0.681              1.708              1.525
 Vibration    20          0.694              1.670              1.405
 Vibration    21          0.700              1.651              1.352
 Vibration    22          0.708              1.629              1.294
 Vibration    23          0.715              1.608              1.242
 Vibration    24          0.731              1.564              1.142
 Vibration    25          0.757              1.495              1.007
 Vibration    26          0.770              1.458              0.943
 Vibration    27          0.828              1.315              0.735
 Vibration    28          0.839              1.289              0.704
 Vibration    29          0.847              1.269              0.679
 Vibration    30          0.891              1.170              0.574
 Vibration    31          0.919              1.112              0.518
 Vibration    32          0.944              1.061              0.474
 Vibration    33          0.961              1.026              0.445

                           ! Non-Optimized Parameters !
 Normal termination of Gaussian 16 at Fri Dec 11 22:41:35 2020.

 ----------------------------------------------------------------------
 # B3LYP/6-311++G(d,p) empiricaldispersion=gd3bj scf=xqc pop=npa geom=c
 heck
 ----------------------------------------------------------------------

 --------------------------------------
 CID_65767484_JID_8840_Energie_neutraal
 --------------------------------------
 Structure from the checkpoint file:  "JID_8840.chk"
 Charge =  0 Multiplicity = 1

 SCF Done:  E(RB3LYP) =  -1527.10543422     A.U. after   17 cycles
 Normal termination of Gaussian 16 at Fri Dec 11 22:52:32 2020.

 ----------------------------------------------------------------------
 # B3LYP/6-311++G(d,p) empiricaldispersion=gd3bj scf=xqc pop=npa geom=c
 heck
 ----------------------------------------------------------------------

 ------------------------------------
 CID_65767484_JID_8840_Energie_kation
 ------------------------------------
 Structure from the checkpoint file:  "JID_8840.chk"
 Charge =  1 Multiplicity = 2

 SCF Done:  E(UB3LYP) =  -1526.80953111     A.U. after   27 cycles
 Normal termination of Gaussian 16 at Fri Dec 11 23:17:48 2020.
 Gaussian 16:  ES64L-G16RevA.03 25-Dec-2016

 ----------------------------------------------------------------------
 # B3LYP/6-311++G(d,p) empiricaldispersion=gd3bj scf=xqc pop=npa geom=c
 heck
 ----------------------------------------------------------------------

 -----------------------------------
 CID_65767484_JID_8840_Energie_anion
 -----------------------------------
 Structure from the checkpoint file:  "JID_8840.chk"
 Charge = -1 Multiplicity = 2

                         Standard orientation:
 ---------------------------------------------------------------------
 Center     Atomic      Atomic             Coordinates (Angstroms)
 Number     Number       Type             X           Y           Z
 ---------------------------------------------------------------------
      1          6           0        4.153478    1.090509    1.751064
      2          6           0        3.787627    0.681593    0.327084
      3          7           0        2.323222    0.510303    0.187062
      4          6           0        1.571350    1.783452   -0.017387
      5          6           0        1.240945    2.122763   -1.476268
      6          6           0        0.347234    1.901101    0.898343
      7         16           0        1.861793   -0.919482   -0.586972
      8          8           0        1.703766   -0.767786   -2.040945
      9          8           0        2.756730   -1.955447   -0.061870
     10          6           0        0.242663   -1.183221    0.052091
     11          6           0       -0.088318   -1.484525    1.347465
     12          6           0       -1.493938   -1.580754    1.528945
     13          6           0       -2.211515   -1.356324    0.375316
     14         16           0       -1.153310   -1.035936   -0.971922
     15          6           0       -3.703278   -1.297310    0.215670
     16          6           0       -4.276850    0.092253    0.549292
     17          7           0       -3.774418    1.106124   -0.364434
     18          6           0       -4.350919    2.423325   -0.125304
     19          1           0        3.663958    2.025720    2.045689
     20          1           0        5.236139    1.237680    1.836707
     21          1           0        3.849452    0.309388    2.454267
     22          1           0        4.139800    1.425314   -0.401128
     23          1           0        4.269871   -0.265913    0.087477
     24          1           0        2.285957    2.535495    0.332170
     25          1           0        0.461066    1.473552   -1.879603
     26          1           0        0.888089    3.158808   -1.530570
     27          1           0        2.121107    2.018945   -2.116603
     28          1           0        0.604496    1.618177    1.922843
     29          1           0       -0.002720    2.939822    0.899249
     30          1           0       -0.481276    1.270026    0.569555
     31          1           0        0.652175   -1.615752    2.127337
     32          1           0       -1.967054   -1.809493    2.478085
     33          1           0       -3.990221   -1.556866   -0.808366
     34          1           0       -4.158249   -2.037325    0.884183
     35          1           0       -5.368320    0.052049    0.441512
     36          1           0       -4.068993    0.321039    1.612852
     37          1           0       -2.762345    1.164440   -0.272384
     38          1           0       -4.234502    2.787242    0.912652
     39          1           0       -3.886724    3.150557   -0.798727
     40          1           0       -5.423909    2.397482   -0.348625
 ---------------------------------------------------------------------

 SCF Done:  E(UB3LYP) =  -1527.10977433     A.U. after   33 cycles
 SCF Done:  E(UB3LYP) =  -1527.10977433     a.u. after    1 cycles

 The electronic state is 2-A.
 Alpha  occ. eigenvalues --  -88.93446 -88.73450 -18.98770 -18.98573 -14.22590
 Alpha  occ. eigenvalues --  -14.19314 -10.11854 -10.10808 -10.09231 -10.08379
 Alpha  occ. eigenvalues --  -10.07730 -10.06149 -10.06128 -10.06028 -10.05905
 Alpha  occ. eigenvalues --  -10.05674 -10.04119 -10.04072  -7.99491  -7.82079
 Alpha  occ. eigenvalues --   -5.95797  -5.95753  -5.95588  -5.78386  -5.78009
 Alpha  occ. eigenvalues --   -5.77684  -0.99002  -0.87920  -0.82417  -0.80282
 Alpha  occ. eigenvalues --   -0.75019  -0.68894  -0.66652  -0.65335  -0.60796
 Alpha  occ. eigenvalues --   -0.60189  -0.59008  -0.56727  -0.54082  -0.52713
 Alpha  occ. eigenvalues --   -0.50156  -0.47492  -0.42142  -0.40977  -0.40005
 Alpha  occ. eigenvalues --   -0.38966  -0.38787  -0.37918  -0.35723  -0.35232
 Alpha  occ. eigenvalues --   -0.34181  -0.33784  -0.33175  -0.32566  -0.31973
 Alpha  occ. eigenvalues --   -0.31170  -0.29767  -0.29344  -0.28942  -0.28610
 Alpha  occ. eigenvalues --   -0.27816  -0.27268  -0.26914  -0.26094  -0.25414
 Alpha  occ. eigenvalues --   -0.24897  -0.24134  -0.23555  -0.22965  -0.21369
 Alpha  occ. eigenvalues --   -0.21125  -0.19986  -0.18742  -0.18030  -0.14086
 Alpha  occ. eigenvalues --   -0.12817  -0.12716  -0.10898   0.04321
 Alpha virt. eigenvalues --    0.06183   0.06919   0.07885   0.08380   0.08522
 Alpha virt. eigenvalues --    0.09441   0.09828   0.10617   0.10898   0.10986
 Alpha virt. eigenvalues --    0.11529   0.12066   0.12435   0.12947   0.13123

  Beta  occ. eigenvalues --  -88.93436 -88.73389 -18.98734 -18.98553 -14.22557
  Beta  occ. eigenvalues --  -14.19316 -10.11854 -10.10781 -10.09222 -10.08321
  Beta  occ. eigenvalues --  -10.07726 -10.06174 -10.06023 -10.05903 -10.05841
  Beta  occ. eigenvalues --  -10.05243 -10.04171 -10.03917  -7.99480  -7.82024
  Beta  occ. eigenvalues --   -5.95776  -5.95721  -5.95587  -5.78364  -5.77987
  Beta  occ. eigenvalues --   -5.77468  -0.98893  -0.87853  -0.82341  -0.80263
  Beta  occ. eigenvalues --   -0.74601  -0.68875  -0.66367  -0.65236  -0.60484
  Beta  occ. eigenvalues --   -0.59832  -0.58986  -0.56617  -0.53922  -0.52684
  Beta  occ. eigenvalues --   -0.50031  -0.47269  -0.42007  -0.40592  -0.39907
  Beta  occ. eigenvalues --   -0.38824  -0.38670  -0.37848  -0.35657  -0.35149
  Beta  occ. eigenvalues --   -0.34111  -0.33770  -0.33106  -0.32475  -0.31873
  Beta  occ. eigenvalues --   -0.31134  -0.29695  -0.29283  -0.28873  -0.28477
  Beta  occ. eigenvalues --   -0.27774  -0.27185  -0.26578  -0.25938  -0.25352
  Beta  occ. eigenvalues --   -0.24835  -0.23969  -0.23390  -0.22376  -0.21237
  Beta  occ. eigenvalues --   -0.20798  -0.19880  -0.18586  -0.17917  -0.13904
  Beta  occ. eigenvalues --   -0.12665  -0.11765  -0.09162
  Beta virt. eigenvalues --    0.06147   0.06855   0.07821   0.08434   0.08494
  Beta virt. eigenvalues --    0.09196   0.09766   0.10195   0.10744   0.10913
  Beta virt. eigenvalues --    0.11083   0.11461   0.12064   0.12464   0.12930

 Mulliken charges and spin densities:
               1          2
     1  C   -0.276634  -0.093127
     2  C   -0.276901  -0.004972
     3  N    0.292127   0.044719
     4  C   -0.607780   0.099711
     5  C   -0.593712  -0.027377
     6  C   -0.106981  -0.121337
     7  S    0.531488   0.024155
     8  O   -0.170108   0.005615
     9  O   -0.096825  -0.022828
    10  C   -0.679053   0.039890
    11  C   -0.094830   0.230820
    12  C   -0.286161  -0.250529
    13  C    0.204981   0.294015
    14  S    0.161784   0.251081
    15  C   -0.816492   0.021462
    16  C    0.323571  -0.657011
    17  N   -0.161574   0.070210
    18  C   -0.174467  -0.159816
    19  H    0.118184   0.016235
    20  H    0.095957   0.020612
    21  H    0.152308   0.008668
    22  H    0.066486   0.060621
    23  H    0.161558   0.021221
    24  H    0.123126   0.009659
    25  H    0.221641   0.004669
    26  H    0.083644   0.015042
    27  H    0.147522   0.018805
    28  H    0.115084   0.021675
    29  H    0.125011   0.003809
    30  H    0.133605  -0.000744
    31  H    0.168353  -0.011130
    32  H    0.057495   0.069629
    33  H    0.040374   0.128119
    34  H   -0.086460   0.246343
    35  H   -0.316949   0.482655
    36  H    0.113705  -0.025669
    37  H    0.126127  -0.008450
    38  H    0.063278   0.045399
    39  H    0.105795   0.016212
    40  H    0.011722   0.111940
 Sum of Mulliken charges =  -1.00000   1.00000

 Dipole moment (field-independent basis, Debye):
    X=              3.9664    Y=              6.2210    Z=              2.5822  Tot=              7.8167
 Quadrupole moment (field-independent basis, Debye-Ang):
   XX=           -192.0983   YY=           -151.3911   ZZ=           -148.8350
   XY=              5.9973   XZ=              4.5092   YZ=             -1.7042

 Summary of Natural Population Analysis:

                                       Natural Population
                Natural  -----------------------------------------------
    Atom  No    Charge         Core      Valence    Rydberg      Total
 -----------------------------------------------------------------------
      C    1   -0.28768      0.99966     2.28323    0.00479     3.28768
      C    2   -0.08743      0.99962     2.07760    0.01021     3.08743
      N    3   -0.37877      0.99970     2.86338    0.01568     3.87877
      C    4   -0.00415      0.99960     1.99412    0.01042     3.00415
      C    5   -0.29556      0.99964     2.29054    0.00538     3.29556
      C    6   -0.28783      0.99964     2.28268    0.00552     3.28783
      S    7    1.12835      4.99901     1.77198    0.10066     6.87165
      O    8   -0.47205      0.99991     3.46616    0.00598     4.47205
      O    9   -0.46845      0.99990     3.46345    0.00510     4.46845
      C   10   -0.22398      0.99938     2.20785    0.01675     3.22398
      C   11   -0.07660      0.99946     2.06574    0.01141     3.07660
      C   12   -0.15955      0.99946     2.14919    0.01090     3.15955
      C   13   -0.02513      0.99950     2.01188    0.01374     3.02513
      S   14    0.24523      4.99933     2.73435    0.02110     7.75477
      C   15   -0.21266      0.99958     2.20101    0.01207     3.21266
      C   16   -0.07519      0.99963     2.06373    0.01183     3.07519
      N   17   -0.34329      0.99974     2.83206    0.01149     3.84329
      C   18   -0.17761      0.99967     2.16977    0.00816     3.17761
      H   19    0.09329      0.00000     0.40540    0.00131     0.40671
      H   20    0.09417      0.00000     0.40482    0.00101     0.40583
      H   21    0.10323      0.00000     0.39550    0.00128     0.39677
      H   22    0.08282      0.00000     0.41536    0.00181     0.41718
      H   23    0.11191      0.00000     0.38571    0.00238     0.38809
      H   24    0.08888      0.00000     0.40904    0.00208     0.41112
      H   25    0.11356      0.00000     0.38534    0.00110     0.38644
      H   26    0.09276      0.00000     0.40623    0.00100     0.40724
      H   27    0.10280      0.00000     0.39602    0.00118     0.39720
      H   28    0.10314      0.00000     0.39557    0.00128     0.39686
      H   29    0.09208      0.00000     0.40720    0.00072     0.40792
      H   30    0.10843      0.00000     0.38953    0.00204     0.39157
      H   31    0.10443      0.00000     0.39457    0.00099     0.39557
      H   32    0.09977      0.00000     0.39929    0.00094     0.40023
      H   33    0.10615      0.00000     0.39253    0.00131     0.39385
      H   34    0.10577      0.00000     0.39299    0.00123     0.39423
      H   35    0.08950      0.00000     0.40800    0.00250     0.41050
      H   36    0.07523      0.00000     0.42324    0.00153     0.42477
      H   37    0.17836      0.00000     0.31850    0.00314     0.32164
      H   38    0.07542      0.00000     0.42329    0.00128     0.42458
      H   39    0.09124      0.00000     0.40804    0.00073     0.40876
      H   40    0.08937      0.00000     0.40959    0.00104     0.41063
 =======================================================================
   * Total *    0.00000     25.99243    51.69449    0.31309    78.00000

 Normal termination of Gaussian 16 at Fri Dec 11 23:48:00 2020.
