 Gaussian 16, Revision A.03,

 -----------------------------------------------------------
 # opt freq B3LYP/6-31G(d) empiricaldispersion=gd3bj scf=xqc
 -----------------------------------------------------------

 -------------------------------
 CID_136803288_JID_7560_neutraal
 -------------------------------
 Symbolic Z-matrix:
 Charge =  0 Multiplicity = 1

 SCF Done:  E(RB3LYP) =  -883.803421202     A.U. after   15 cycles
 SCF Done:  E(RB3LYP) =  -883.813639010     A.U. after   12 cycles
 SCF Done:  E(RB3LYP) =  -883.814364543     A.U. after   13 cycles
 SCF Done:  E(RB3LYP) =  -883.814142057     A.U. after   12 cycles
 SCF Done:  E(RB3LYP) =  -883.815244964     A.U. after   11 cycles
 SCF Done:  E(RB3LYP) =  -883.815544598     A.U. after   11 cycles
 SCF Done:  E(RB3LYP) =  -883.815764473     A.U. after   12 cycles
 SCF Done:  E(RB3LYP) =  -883.815829722     A.U. after   11 cycles
 SCF Done:  E(RB3LYP) =  -883.815895930     A.U. after   12 cycles
 SCF Done:  E(RB3LYP) =  -883.815941080     A.U. after   11 cycles
 SCF Done:  E(RB3LYP) =  -883.816006479     A.U. after   10 cycles
 SCF Done:  E(RB3LYP) =  -883.816013299     A.U. after   10 cycles
 SCF Done:  E(RB3LYP) =  -883.816016877     A.U. after   10 cycles
 SCF Done:  E(RB3LYP) =  -883.816019225     A.U. after   10 cycles
 SCF Done:  E(RB3LYP) =  -883.816019664     A.U. after    8 cycles
 SCF Done:  E(RB3LYP) =  -883.816019792     A.U. after    8 cycles
 Optimization completed.
    -- Stationary point found.
 Normal termination of Gaussian 16 at Sun Dec 13 20:10:29 2020.

 --------------------------------------------------------------------
 #N Geom=AllCheck Guess=TCheck SCRF=Check GenChk RB3LYP/6-31G(d) Freq
 --------------------------------------------------------------------

 Structure from the checkpoint file:  "JID_7560.chk"
 -------------------------------
 CID_136803288_JID_7560_neutraal
 -------------------------------
 Charge =  0 Multiplicity = 1

 SCF Done:  E(RB3LYP) =  -883.816019792     A.U. after    1 cycles

  Exact polarizability: 179.319   2.042 124.786  -3.859  -0.130  60.297
 Approx polarizability: 234.504   0.256 240.011  -6.897  -0.100  97.561

                      1                      2                      3
                      A                      A                      A
 Frequencies --     33.7093                42.5957                87.0420
 Red. masses --     12.7313                 8.5849                 5.5068
 Frc consts  --      0.0085                 0.0092                 0.0246
 IR Inten    --      1.1184                 0.3252                 2.1594

                      4                      5                      6
                      A                      A                      A
 Frequencies --    100.7992               125.5196               161.1149
 Red. masses --      8.1130                 6.0554                 7.0447
 Frc consts  --      0.0486                 0.0562                 0.1077
 IR Inten    --      0.3203                 2.1855                 2.5369

                      7                      8                      9
                      A                      A                      A
 Frequencies --    177.6859               200.6643               269.3103
 Red. masses --      6.0987                 6.8650                 5.6278
 Frc consts  --      0.1134                 0.1629                 0.2405
 IR Inten    --      0.6219                 5.0172                 2.3602

                     10                     11                     12
                      A                      A                      A
 Frequencies --    299.8283               314.9786               364.4008
 Red. masses --      6.8699                 9.1313                11.2501
 Frc consts  --      0.3639                 0.5338                 0.8802
 IR Inten    --      2.1764                 3.9113                14.9999

                     13                     14                     15
                      A                      A                      A
 Frequencies --    375.5348               455.4802               472.7613
 Red. masses --      5.1294                 6.3312                 5.0613
 Frc consts  --      0.4262                 0.7739                 0.6665
 IR Inten    --      5.6035                 7.1524                12.2211

                     16                     17                     18
                      A                      A                      A
 Frequencies --    525.6154               533.2000               561.3871
 Red. masses --      3.7730                 1.1877                 1.6054
 Frc consts  --      0.6141                 0.1989                 0.2981
 IR Inten    --     38.6299                74.4964               193.5712

                     19                     20                     21
                      A                      A                      A
 Frequencies --    579.1666               611.4061               634.3868
 Red. masses --      5.1302                 7.0003                 1.5563
 Frc consts  --      1.0139                 1.5418                 0.3690
 IR Inten    --     28.7976                 3.8126               122.3406

                     22                     23                     24
                      A                      A                      A
 Frequencies --    638.1103               680.1164               687.7468
 Red. masses --      1.5294                 3.1986                 3.5054
 Frc consts  --      0.3669                 0.8717                 0.9769
 IR Inten    --     43.8908                28.3660                72.1687

                     25                     26                     27
                      A                      A                      A
 Frequencies --    696.9050               725.0901               732.0717
 Red. masses --      3.8453                 7.2106                10.2340
 Frc consts  --      1.1004                 2.2336                 3.2315
 IR Inten    --     38.2355                17.1927                36.8968

                     28                     29                     30
                      A                      A                      A
 Frequencies --    742.0604               778.3224               789.8640
 Red. masses --     11.1018                 4.1238                 4.4478
 Frc consts  --      3.6018                 1.4719                 1.6349
 IR Inten    --     26.9132                54.3068                 4.0875

                     31                     32                     33
                      A                      A                      A
 Frequencies --    810.6509               883.5297               978.3203
 Red. masses --      4.8931                 3.4281                 4.9372
 Frc consts  --      1.8945                 1.5767                 2.7841
 IR Inten    --      9.7577                 2.9804                 7.3282

                     34                     35                     36
                      A                      A                      A
 Frequencies --   1005.9706              1039.2991              1062.2288
 Red. masses --      2.6698                 3.0580                 1.8536
 Frc consts  --      1.5919                 1.9461                 1.2322
 IR Inten    --     12.2146                26.2909                 2.9324

                     37                     38                     39
                      A                      A                      A
 Frequencies --   1099.4069              1129.0675              1177.2525
 Red. masses --      4.1212                 5.8236                 3.5506
 Frc consts  --      2.9349                 4.3740                 2.8993
 IR Inten    --      7.9989                91.6690                46.8797

                     40                     41                     42
                      A                      A                      A
 Frequencies --   1188.7528              1221.8946              1274.0919
 Red. masses --      1.8956                 1.5868                 2.5505
 Frc consts  --      1.5783                 1.3958                 2.4394
 IR Inten    --    217.3666                53.8042                 8.7519

                     43                     44                     45
                      A                      A                      A
 Frequencies --   1296.8716              1307.5629              1331.1469
 Red. masses --      1.5611                 2.8089                 1.6074
 Frc consts  --      1.5470                 2.8296                 1.6781
 IR Inten    --     73.9958                44.4042                22.5290

                     46                     47                     48
                      A                      A                      A
 Frequencies --   1340.4975              1364.3373              1389.3237
 Red. masses --      1.5004                 2.9967                 2.1284
 Frc consts  --      1.5885                 3.2866                 2.4205
 IR Inten    --     78.1036                61.1665                66.4638

                     49                     50                     51
                      A                      A                      A
 Frequencies --   1405.8837              1437.2346              1485.3561
 Red. masses --      1.6693                 2.5960                 4.8183
 Frc consts  --      1.9439                 3.1594                 6.2634
 IR Inten    --      2.3619                43.6380                17.3160

                     52                     53                     54
                      A                      A                      A
 Frequencies --   1510.1997              1552.7116              1561.8967
 Red. masses --      2.9750                 1.6039                 2.8089
 Frc consts  --      3.9977                 2.2782                 4.0374
 IR Inten    --     44.2139               179.3544               424.4809

                     55                     56                     57
                      A                      A                      A
 Frequencies --   1617.6261              1642.0062              1802.4053
 Red. masses --     10.1609                 8.2091                 9.3903
 Frc consts  --     15.6654                13.0405                17.9736
 IR Inten    --    126.2903                82.1877               591.6553

                     58                     59                     60
                      A                      A                      A
 Frequencies --   1833.8404              1862.6431              3018.2740
 Red. masses --      8.7725                10.5706                 1.0836
 Frc consts  --     17.3819                21.6078                 5.8162
 IR Inten    --    749.3775               250.1816                29.0348

                     61                     62                     63
                      A                      A                      A
 Frequencies --   3092.6132              3162.2040              3610.0485
 Red. masses --      1.0646                 1.1034                 1.0775
 Frc consts  --      5.9992                 6.5005                 8.2735
 IR Inten    --     11.5311                 6.5716                52.2113

                     64                     65                     66
                      A                      A                      A
 Frequencies --   3615.3784              3642.1490              3684.5105
 Red. masses --      1.0773                 1.0782                 1.0641
 Frc consts  --      8.2962                 8.4269                 8.5116
 IR Inten    --     71.9878                94.4945                76.9529

 - Thermochemistry -
 -------------------
 Temperature   298.150 Kelvin.  Pressure   1.00000 Atm.
 Atom     1 has atomic number  6 and mass  12.00000

 Molecular mass:   237.04980 amu.
 Principal axes and moments of inertia in atomic units:
                           1         2         3
     Eigenvalues --  1326.776337332.015298485.86779
           X            1.00000   0.00153  -0.00200
           Y           -0.00153   1.00000   0.00047
           Z            0.00200  -0.00046   1.00000
 This molecule is an asymmetric top.
 Rotational symmetry number  1.
 Warning -- assumption of classical behavior for rotation
           may cause significant error
 Rotational temperatures (Kelvin)      0.06528     0.01181     0.01021
 Rotational constants (GHZ):           1.36025     0.24615     0.21268
 Zero-point vibrational energy     453588.4 (Joules/Mol)
                                  108.41023 (Kcal/Mol)
 Warning -- explicit consideration of  20 degrees of freedom as
           vibrations may cause significant error
 Vibrational temperatures:     48.50    61.29   125.23   145.03   180.59
          (Kelvin)            231.81   255.65   288.71   387.48   431.39
                              453.18   524.29   540.31   655.33   680.20
                              756.24   767.16   807.71   833.29   879.68
                              912.74   918.10   978.54   989.51  1002.69
                             1043.24  1053.29  1067.66  1119.83  1136.44
                             1166.35  1271.20  1407.58  1447.37  1495.32
                             1528.31  1581.80  1624.48  1693.80  1710.35
                             1758.03  1833.13  1865.91  1881.29  1915.22
                             1928.68  1962.98  1998.93  2022.75  2067.86
                             2137.10  2172.84  2234.01  2247.22  2327.40
                             2362.48  2593.26  2638.49  2679.93  4342.62
                             4449.58  4549.71  5194.05  5201.72  5240.24
                             5301.19

 Zero-point correction=                           0.172763 (Hartree/Particle)
 Thermal correction to Energy=                    0.186236
 Thermal correction to Enthalpy=                  0.187180
 Thermal correction to Gibbs Free Energy=         0.131192
 Sum of electronic and zero-point Energies=           -883.643257
 Sum of electronic and thermal Energies=              -883.629784
 Sum of electronic and thermal Enthalpies=            -883.628840
 Sum of electronic and thermal Free Energies=         -883.684827

                     E (Thermal)             CV                S
                      KCal/Mol        Cal/Mol-Kelvin    Cal/Mol-Kelvin
 Total                  116.865             51.145            117.836
 Electronic               0.000              0.000              0.000
 Translational            0.889              2.981             42.291
 Rotational               0.889              2.981             32.779
 Vibrational            115.087             45.184             42.767
 Vibration     1          0.594              1.983              5.598
 Vibration     2          0.595              1.980              5.135
 Vibration     3          0.601              1.958              3.725
 Vibration     4          0.604              1.948              3.439
 Vibration     5          0.610              1.928              3.014
 Vibration     6          0.622              1.890              2.537
 Vibration     7          0.628              1.870              2.353
 Vibration     8          0.638              1.839              2.127
 Vibration     9          0.674              1.730              1.601
 Vibration    10          0.692              1.674              1.418
 Vibration    11          0.702              1.645              1.336
 Vibration    12          0.738              1.546              1.103
 Vibration    13          0.746              1.522              1.057
 Vibration    14          0.814              1.349              0.779
 Vibration    15          0.830              1.310              0.730
 Vibration    16          0.881              1.193              0.597
 Vibration    17          0.888              1.177              0.580
 Vibration    18          0.917              1.115              0.521
 Vibration    19          0.936              1.076              0.487
 Vibration    20          0.971              1.008              0.430

                           ! Non-Optimized Parameters !
 Normal termination of Gaussian 16 at Sun Dec 13 20:18:11 2020.

 ----------------------------------------------------------------------
 # B3LYP/6-311++G(d,p) empiricaldispersion=gd3bj scf=xqc pop=npa geom=c
 heck
 ----------------------------------------------------------------------

 ---------------------------------------
 CID_136803288_JID_7560_Energie_neutraal
 ---------------------------------------
 Structure from the checkpoint file:  "JID_7560.chk"
 Charge =  0 Multiplicity = 1

 SCF Done:  E(RB3LYP) =  -884.082502680     A.U. after   16 cycles
 Normal termination of Gaussian 16 at Sun Dec 13 20:21:30 2020.

 ----------------------------------------------------------------------
 # B3LYP/6-311++G(d,p) empiricaldispersion=gd3bj scf=xqc pop=npa geom=c
 heck
 ----------------------------------------------------------------------

 -------------------------------------
 CID_136803288_JID_7560_Energie_kation
 -------------------------------------
 Structure from the checkpoint file:  "JID_7560.chk"
 Charge =  1 Multiplicity = 2

 SCF Done:  E(UB3LYP) =  -883.791357114     A.U. after   23 cycles
 Normal termination of Gaussian 16 at Sun Dec 13 20:28:15 2020.
 Gaussian 16:  ES64L-G16RevA.03 25-Dec-2016

 ----------------------------------------------------------------------
 # B3LYP/6-311++G(d,p) empiricaldispersion=gd3bj scf=xqc pop=npa geom=c
 heck
 ----------------------------------------------------------------------

 ------------------------------------
 CID_136803288_JID_7560_Energie_anion
 ------------------------------------
 Structure from the checkpoint file:  "JID_7560.chk"
 Charge = -1 Multiplicity = 2

                         Standard orientation:
 ---------------------------------------------------------------------
 Center     Atomic      Atomic             Coordinates (Angstroms)
 Number     Number       Type             X           Y           Z
 ---------------------------------------------------------------------
      1          6           0       -1.522152    1.061722    0.191941
      2          6           0       -2.611898    0.009312    0.539828
      3          7           0       -2.010341   -1.279260    0.131468
      4          6           0       -0.642956   -1.097631    0.159404
      5          7           0        0.401874   -1.902764    0.008086
      6          6           0        1.441387   -1.010841   -0.037086
      7          6           0        1.037687    0.311935    0.070011
      8          7           0       -0.340293    0.219525    0.253323
      9          6           0        1.943438    1.416038    0.104411
     10          8           0        1.683865    2.605482    0.234300
     11          7           0        3.275923    0.954328   -0.045719
     12          6           0        3.761635   -0.348146   -0.169172
     13          8           0        4.946311   -0.608752   -0.280542
     14          7           0        2.771662   -1.327593   -0.152952
     15          6           0       -3.925192    0.256307   -0.183201
     16          8           0       -4.199618    1.247205   -0.816223
     17          8           0       -4.768687   -0.781746    0.000348
     18          1           0       -1.674870    1.471974   -0.811261
     19          1           0       -1.479842    1.882116    0.908571
     20          1           0       -2.814851    0.021135    1.621391
     21          1           0       -2.390248   -2.124019    0.539355
     22          1           0        3.992086    1.670767   -0.046273
     23          1           0        3.075422   -2.287592   -0.240060
     24          1           0       -5.586127   -0.573719   -0.491034
 ---------------------------------------------------------------------

 SCF Done:  E(UB3LYP) =  -884.086558602     A.U. after   32 cycles

 The electronic state is 2-A.
 Alpha  occ. eigenvalues --  -19.06900 -19.01713 -19.01429 -19.00040 -14.28568
 Alpha  occ. eigenvalues --  -14.27573 -14.27397 -14.24976 -14.21823 -10.23667
 Alpha  occ. eigenvalues --  -10.19941 -10.19224 -10.18203 -10.16123 -10.13835
 Alpha  occ. eigenvalues --  -10.13270 -10.11474  -1.01079  -0.99090  -0.96579
 Alpha  occ. eigenvalues --   -0.94786  -0.92366  -0.89176  -0.84823  -0.83285
 Alpha  occ. eigenvalues --   -0.80633  -0.68668  -0.67675  -0.60203  -0.58136
 Alpha  occ. eigenvalues --   -0.56964  -0.54376  -0.50970  -0.47483  -0.47372
 Alpha  occ. eigenvalues --   -0.44639  -0.42671  -0.41775  -0.39656  -0.39289
 Alpha  occ. eigenvalues --   -0.38264  -0.38044  -0.36719  -0.35950  -0.35532
 Alpha  occ. eigenvalues --   -0.33193  -0.32757  -0.31859  -0.31589  -0.30230
 Alpha  occ. eigenvalues --   -0.29666  -0.26515  -0.22977  -0.21843  -0.21286
 Alpha  occ. eigenvalues --   -0.20859  -0.20036  -0.19110  -0.17598  -0.17293
 Alpha  occ. eigenvalues --   -0.11447   0.03736
 Alpha virt. eigenvalues --    0.05994   0.07150   0.07622   0.08841   0.09003
 Alpha virt. eigenvalues --    0.09443   0.09617   0.10331   0.12149   0.12401
 Alpha virt. eigenvalues --    0.13058   0.13323   0.13678   0.14743   0.15057

  Beta  occ. eigenvalues --  -19.06829 -19.01714 -19.01316 -18.99963 -14.28557
  Beta  occ. eigenvalues --  -14.27529 -14.27383 -14.24924 -14.21834 -10.23668
  Beta  occ. eigenvalues --  -10.19789 -10.19148 -10.18161 -10.16048 -10.13806
  Beta  occ. eigenvalues --  -10.13264 -10.11488  -1.00881  -0.99069  -0.96518
  Beta  occ. eigenvalues --   -0.94658  -0.92176  -0.89125  -0.84761  -0.83218
  Beta  occ. eigenvalues --   -0.80581  -0.68604  -0.67518  -0.60051  -0.58053
  Beta  occ. eigenvalues --   -0.56870  -0.54313  -0.50806  -0.47428  -0.47294
  Beta  occ. eigenvalues --   -0.44474  -0.42554  -0.41741  -0.39492  -0.39112
  Beta  occ. eigenvalues --   -0.38111  -0.37974  -0.36608  -0.35780  -0.35494
  Beta  occ. eigenvalues --   -0.33055  -0.32556  -0.31677  -0.31318  -0.30071
  Beta  occ. eigenvalues --   -0.29551  -0.26351  -0.22556  -0.21819  -0.21273
  Beta  occ. eigenvalues --   -0.20751  -0.19825  -0.18995  -0.17542  -0.17205
  Beta  occ. eigenvalues --   -0.11227
  Beta virt. eigenvalues --    0.06827   0.07093   0.07534   0.08621   0.08882
  Beta virt. eigenvalues --    0.09638   0.09926   0.10385   0.10618   0.12353
  Beta virt. eigenvalues --    0.12424   0.13144   0.13411   0.13762   0.14835

 Mulliken charges and spin densities:
               1          2
     1  C    0.568816  -1.297820
     2  C    0.191947   0.107072
     3  N   -0.321362   0.168387
     4  C    0.388567  -0.246142
     5  N   -0.150225  -0.083430
     6  C    0.425594  -0.362839
     7  C    0.114931   0.014520
     8  N   -0.075416   0.050610
     9  C    0.280175   0.016282
    10  O   -0.381288   0.020787
    11  N   -0.470291  -0.004230
    12  C    0.372477  -0.032032
    13  O   -0.376485   0.000263
    14  N   -0.456554  -0.002557
    15  C    0.054143  -0.109315
    16  O   -0.309134   0.031137
    17  O   -0.210860   0.043720
    18  H    0.178744   0.067752
    19  H    0.161612   0.036542
    20  H   -1.201501   1.485960
    21  H   -0.123582   0.430188
    22  H    0.377747   0.000514
    23  H    0.320871   0.008025
    24  H   -0.358927   0.656608
 Sum of Mulliken charges =  -1.00000   1.00000

 Dipole moment (field-independent basis, Debye):
    X=              6.7253    Y=             -0.3110    Z=             -2.3149  Tot=              7.1193
 Quadrupole moment (field-independent basis, Debye-Ang):
   XX=           -194.1565   YY=           -127.9710   ZZ=           -119.6088
   XY=             -4.1814   XZ=              6.1350   YZ=              2.0462

 Summary of Natural Population Analysis:

                                       Natural Population
                Natural  -----------------------------------------------
    Atom  No    Charge         Core      Valence    Rydberg      Total
 -----------------------------------------------------------------------
      C    1   -0.07514      0.99962     2.06439    0.01113     3.07514
      C    2   -0.05268      0.99956     2.03948    0.01364     3.05268
      N    3   -0.31023      0.99966     2.80015    0.01042     3.81023
      C    4    0.32224      0.99958     1.66049    0.01769     2.67776
      N    5   -0.28915      0.99966     2.77962    0.00987     3.78915
      C    6    0.19733      0.99948     1.78728    0.01592     2.80267
      C    7   -0.02495      0.99939     2.01463    0.01094     3.02495
      N    8   -0.20440      0.99957     2.69508    0.00975     3.70440
      C    9    0.32398      0.99960     1.65425    0.02216     2.67602
      O   10   -0.31313      0.99988     3.30730    0.00595     4.31313
      N   11   -0.32390      0.99966     2.81774    0.00650     3.82390
      C   12    0.40310      0.99973     1.57424    0.02293     2.59690
      O   13   -0.33039      0.99987     3.32524    0.00528     4.33039
      N   14   -0.30052      0.99962     2.79386    0.00703     3.80052
      C   15    0.42458      0.99970     1.55078    0.02495     2.57542
      O   16   -0.29896      0.99987     3.29309    0.00600     4.29896
      O   17   -0.34362      0.99988     3.33685    0.00690     4.34362
      H   18    0.10625      0.00000     0.39258    0.00117     0.39375
      H   19    0.11099      0.00000     0.38794    0.00107     0.38901
      H   20    0.11708      0.00000     0.36810    0.01482     0.38292
      H   21    0.20640      0.00000     0.28972    0.00388     0.29360
      H   22    0.20413      0.00000     0.29394    0.00193     0.29587
      H   23    0.20688      0.00000     0.29069    0.00244     0.29312
      H   24    0.24411      0.00000     0.24364    0.01225     0.25589
 =======================================================================
   * Total *    0.00000     16.99434    43.76107    0.24459    61.00000

 Normal termination of Gaussian 16 at Sun Dec 13 20:37:36 2020.
