 Gaussian 16, Revision A.03,

 -----------------------------------------------------------
 # opt freq B3LYP/6-31G(d) empiricaldispersion=gd3bj scf=xqc
 -----------------------------------------------------------

 -----------------------------
 CID_89346931_JID_905_neutraal
 -----------------------------
 Symbolic Z-matrix:
 Charge =  0 Multiplicity = 1

 SCF Done:  E(RB3LYP) =  -572.647369961     A.U. after   13 cycles
 SCF Done:  E(RB3LYP) =  -572.650074702     A.U. after   11 cycles
 SCF Done:  E(RB3LYP) =  -572.650782302     A.U. after   10 cycles
 SCF Done:  E(RB3LYP) =  -572.651153804     A.U. after   10 cycles
 SCF Done:  E(RB3LYP) =  -572.651278465     A.U. after   10 cycles
 SCF Done:  E(RB3LYP) =  -572.651335077     A.U. after   10 cycles
 SCF Done:  E(RB3LYP) =  -572.651370049     A.U. after    9 cycles
 SCF Done:  E(RB3LYP) =  -572.651374928     A.U. after    9 cycles
 SCF Done:  E(RB3LYP) =  -572.651375342     A.U. after    7 cycles
 Optimization completed.
    -- Stationary point found.

 1\1\GINC-NODE313\FOpt\RB3LYP\6-31G(d)\C5H10O5\VSC10255\08-Dec-2020\0\\
 # opt freq B3LYP/6-31G(d) empiricaldispersion=gd3bj scf=xqc\\CID_89346
 931_JID_905_neutraal\\0,1\C,0.6915982046,1.2126994726,-0.2958763305\C,
 -0.7512596611,1.213358821,0.19906831\O,-1.3719544624,-0.0040357416,-0.
 2326022508\C,-0.7222854831,-1.1702442098,0.2851982848\C,0.7481862282,-
 1.1584212865,-0.1485659115\O,1.3598318192,0.0684358476,0.2427196043\O,
 0.8702327179,-1.4110105687,-1.5317817997\C,-1.4849837958,-2.3802084049
 ,-0.2690035796\O,-0.7295719897,-3.5754392586,-0.168205462\O,-0.8078548

 Normal termination of Gaussian 16 at Tue Dec  8 13:27:10 2020.

 --------------------------------------------------------------------
 #N Geom=AllCheck Guess=TCheck SCRF=Check GenChk RB3LYP/6-31G(d) Freq
 --------------------------------------------------------------------

 Structure from the checkpoint file:  "JID_905.chk"
 -----------------------------
 CID_89346931_JID_905_neutraal
 -----------------------------
 Charge =  0 Multiplicity = 1

 SCF Done:  E(RB3LYP) =  -572.651375342     A.U. after    1 cycles

  Exact polarizability:  76.497  -0.486  60.656   2.587   0.808  61.058
 Approx polarizability:  97.051  -4.240  85.348   2.796   0.045  95.458

                      1                      2                      3
                      A                      A                      A
 Frequencies --     78.9524               102.8105               168.2961
 Red. masses --      4.5453                 4.0735                 5.9238
 Frc consts  --      0.0167                 0.0254                 0.0989
 IR Inten    --      3.5163                 5.3211                 4.7868

                      4                      5                      6
                      A                      A                      A
 Frequencies --    191.0302               209.5767               285.7565
 Red. masses --      4.7390                 5.3372                 3.9569
 Frc consts  --      0.1019                 0.1381                 0.1904
 IR Inten    --     10.7919                 0.0143                11.6745

                      7                      8                      9
                      A                      A                      A
 Frequencies --    359.9381               428.9288               448.4049
 Red. masses --      4.9454                 5.3334                 2.5641
 Frc consts  --      0.3775                 0.5781                 0.3038
 IR Inten    --      0.1981                 0.9389                10.6027

                     10                     11                     12
                      A                      A                      A
 Frequencies --    494.2462               501.5330               519.1275
 Red. masses --      1.0916                 1.0877                 3.5482
 Frc consts  --      0.1571                 0.1612                 0.5634
 IR Inten    --     23.1429                67.3362                21.8843

                     13                     14                     15
                      A                      A                      A
 Frequencies --    563.1894               569.1845               605.2395
 Red. masses --      5.0801                 1.3701                 3.0701
 Frc consts  --      0.9494                 0.2615                 0.6626
 IR Inten    --     56.1069               180.7669                36.4789

                     16                     17                     18
                      A                      A                      A
 Frequencies --    737.4920               776.7031               840.0282
 Red. masses --      3.1683                 3.5570                 4.2386
 Frc consts  --      1.0153                 1.2643                 1.7622
 IR Inten    --      6.9631                14.6134                31.3437

                     19                     20                     21
                      A                      A                      A
 Frequencies --    878.8494               940.8829               976.8922
 Red. masses --      2.8986                 3.0161                 3.4589
 Frc consts  --      1.3191                 1.5731                 1.9448
 IR Inten    --     52.3560                38.0459                 8.1843

                     22                     23                     24
                      A                      A                      A
 Frequencies --    991.0115              1042.9835              1077.7143
 Red. masses --      1.9818                 2.8840                 4.1549
 Frc consts  --      1.1468                 1.8484                 2.8432
 IR Inten    --     55.8499               344.0009                12.7553

                     25                     26                     27
                      A                      A                      A
 Frequencies --   1096.7492              1099.7451              1118.3304
 Red. masses --      2.7706                 4.1385                 2.8182
 Frc consts  --      1.9635                 2.9490                 2.0767
 IR Inten    --     51.2838                43.8651               116.0647

                     28                     29                     30
                      A                      A                      A
 Frequencies --   1135.8396              1169.0040              1226.2780
 Red. masses --      2.4621                 2.8663                 1.3294
 Frc consts  --      1.8715                 2.3078                 1.1779
 IR Inten    --     19.9311               185.9734                 5.0654

                     31                     32                     33
                      A                      A                      A
 Frequencies --   1261.6463              1278.8584              1314.4445
 Red. masses --      1.2013                 1.4475                 1.4361
 Frc consts  --      1.1266                 1.3948                 1.4619
 IR Inten    --     46.7509                23.7934                 4.8585

                     34                     35                     36
                      A                      A                      A
 Frequencies --   1351.9986              1364.1374              1397.3735
 Red. masses --      1.2666                 1.1883                 1.3341
 Frc consts  --      1.3641                 1.3028                 1.5348
 IR Inten    --      5.0982                 5.2520                 4.8841

                     37                     38                     39
                      A                      A                      A
 Frequencies --   1401.3224              1414.4706              1432.5794
 Red. masses --      1.2698                 1.3336                 1.5047
 Frc consts  --      1.4692                 1.5720                 1.8195
 IR Inten    --      4.9839                10.9612                11.8334

                     40                     41                     42
                      A                      A                      A
 Frequencies --   1440.2341              1451.7811              1460.3029
 Red. masses --      1.2632                 1.2922                 1.2704
 Frc consts  --      1.5438                 1.6046                 1.5961
 IR Inten    --     38.4681               133.4624                 0.7248

                     43                     44                     45
                      A                      A                      A
 Frequencies --   1531.5473              1537.7502              3025.9591
 Red. masses --      1.0927                 1.0806                 1.0707
 Frc consts  --      1.5102                 1.5055                 5.7763
 IR Inten    --      4.0287                 1.2962                34.7106

                     46                     47                     48
                      A                      A                      A
 Frequencies --   3053.1617              3057.4338              3128.7070
 Red. masses --      1.0677                 1.0833                 1.0958
 Frc consts  --      5.8639                 5.9663                 6.3196
 IR Inten    --     25.6664                43.9315                31.9490

                     49                     50                     51
                      A                      A                      A
 Frequencies --   3129.5517              3135.0070              3155.1424
 Red. masses --      1.0902                 1.0989                 1.0894
 Frc consts  --      6.2910                 6.3631                 6.3898
 IR Inten    --     33.6712                26.5435                19.5488

                     52                     53                     54
                      A                      A                      A
 Frequencies --   3701.1853              3703.1232              3719.5522
 Red. masses --      1.0653                 1.0654                 1.0658
 Frc consts  --      8.5985                 8.6080                 8.6881
 IR Inten    --     13.0692                25.1602                30.5683

 - Thermochemistry -
 -------------------
 Temperature   298.150 Kelvin.  Pressure   1.00000 Atm.
 Atom     1 has atomic number  6 and mass  12.00000

 Molecular mass:   150.05282 amu.
 Principal axes and moments of inertia in atomic units:
                           1         2         3
     Eigenvalues --   797.813831681.667902080.82328
           X            0.99982   0.01891   0.00141
           Y           -0.01893   0.99974   0.01272
           Z           -0.00117  -0.01275   0.99992
 This molecule is an asymmetric top.
 Rotational symmetry number  1.
 Warning -- assumption of classical behavior for rotation
           may cause significant error
 Rotational temperatures (Kelvin)      0.10856     0.05150     0.04162
 Rotational constants (GHZ):           2.26211     1.07319     0.86732
 Zero-point vibrational energy     437127.4 (Joules/Mol)
                                  104.47595 (Kcal/Mol)
 Warning -- explicit consideration of  15 degrees of freedom as
           vibrations may cause significant error
 Vibrational temperatures:    113.59   147.92   242.14   274.85   301.53
          (Kelvin)            411.14   517.87   617.13   645.15   711.11
                              721.59   746.91   810.30   818.93   870.80
                             1061.09  1117.50  1208.61  1264.47  1353.72
                             1405.53  1425.84  1500.62  1550.59  1577.98
                             1582.29  1609.03  1634.22  1681.94  1764.34
                             1815.23  1839.99  1891.19  1945.22  1962.69
                             2010.51  2016.19  2035.11  2061.16  2072.18
                             2088.79  2101.05  2203.55  2212.48  4353.68
                             4392.82  4398.97  4501.51  4502.73  4510.58
                             4539.55  5325.18  5327.97  5351.61

 Zero-point correction=                           0.166493 (Hartree/Particle)
 Thermal correction to Energy=                    0.175808
 Thermal correction to Enthalpy=                  0.176752
 Thermal correction to Gibbs Free Energy=         0.132121
 Sum of electronic and zero-point Energies=           -572.484882
 Sum of electronic and thermal Energies=              -572.475567
 Sum of electronic and thermal Enthalpies=            -572.474623
 Sum of electronic and thermal Free Energies=         -572.519255

                     E (Thermal)             CV                S
                      KCal/Mol        Cal/Mol-Kelvin    Cal/Mol-Kelvin
 Total                  110.321             35.852             93.935
 Electronic               0.000              0.000              0.000
 Translational            0.889              2.981             40.928
 Rotational               0.889              2.981             29.414
 Vibrational            108.544             29.890             23.594
 Vibration     1          0.600              1.963              3.917
 Vibration     2          0.605              1.947              3.400
 Vibration     3          0.625              1.881              2.454
 Vibration     4          0.634              1.852              2.218
 Vibration     5          0.642              1.826              2.047
 Vibration     6          0.684              1.700              1.499
 Vibration     7          0.734              1.555              1.122
 Vibration     8          0.790              1.407              0.862
 Vibration     9          0.807              1.364              0.801
 Vibration    10          0.850              1.263              0.673
 Vibration    11          0.857              1.247              0.654
 Vibration    12          0.874              1.208              0.612
 Vibration    13          0.919              1.111              0.518
 Vibration    14          0.925              1.098              0.506
 Vibration    15          0.964              1.021              0.441

                           ! Non-Optimized Parameters !

 1\1\GINC-NODE313\Freq\RB3LYP\6-31G(d)\C5H10O5\VSC10255\08-Dec-2020\0\\
 #N Geom=AllCheck Guess=TCheck SCRF=Check GenChk RB3LYP/6-31G(d) Freq\\
 CID_89346931_JID_905_neutraal\\0,1\C,0.6915982046,1.2126994726,-0.2958
 763305\C,-0.7512596611,1.213358821,0.19906831\O,-1.3719544624,-0.00403
 57416,-0.2326022508\C,-0.7222854831,-1.1702442098,0.2851982848\C,0.748
 1862282,-1.1584212865,-0.1485659115\O,1.3598318192,0.0684358476,0.2427
 196043\O,0.8702327179,-1.4110105687,-1.5317817997\C,-1.4849837958,-2.3
 802084049,-0.2690035796\O,-0.7295719897,-3.5754392586,-0.168205462\O,-

 Normal termination of Gaussian 16 at Tue Dec  8 13:30:35 2020.

 ----------------------------------------------------------------------
 # B3LYP/6-311++G(d,p) empiricaldispersion=gd3bj scf=xqc pop=npa geom=c
 heck
 ----------------------------------------------------------------------

 -------------------------------------
 CID_89346931_JID_905_Energie_neutraal
 -------------------------------------
 Structure from the checkpoint file:  "JID_905.chk"
 Charge =  0 Multiplicity = 1

 SCF Done:  E(RB3LYP) =  -572.849671488     A.U. after   13 cycles
 Normal termination of Gaussian 16 at Tue Dec  8 13:32:20 2020.

 ----------------------------------------------------------------------
 # B3LYP/6-311++G(d,p) empiricaldispersion=gd3bj scf=xqc pop=npa geom=c
 heck
 ----------------------------------------------------------------------

 -----------------------------------
 CID_89346931_JID_905_Energie_kation
 -----------------------------------
 Structure from the checkpoint file:  "JID_905.chk"
 Charge =  1 Multiplicity = 2

 SCF Done:  E(UB3LYP) =  -572.499173510     A.U. after   21 cycles
 Normal termination of Gaussian 16 at Tue Dec  8 13:37:04 2020.
 Gaussian 16:  ES64L-G16RevA.03 25-Dec-2016

 ----------------------------------
 CID_89346931_JID_905_Energie_anion
 ----------------------------------
 Structure from the checkpoint file:  "JID_905.chk"
 Charge = -1 Multiplicity = 2

                         Standard orientation:
 ---------------------------------------------------------------------
 Center     Atomic      Atomic             Coordinates (Angstroms)
 Number     Number       Type             X           Y           Z
 ---------------------------------------------------------------------
      1          6           0        1.797429    0.921046    0.308671
      2          6           0        1.743222   -0.592160    0.493277
      3          8           0        0.393051   -0.955601    0.807287
      4          6           0       -0.530935   -0.598002   -0.226445
      5          6           0       -0.446886    0.912962   -0.472417
      6          8           0        0.901748    1.286074   -0.745118
      7          8           0       -1.003907    1.633374    0.605876
      8          6           0       -1.919954   -1.034842    0.255903
      9          8           0       -2.958202   -0.398304   -0.469524
     10          8           0        2.233150   -1.255728   -0.637869
     11          1           0        2.792032    1.244544   -0.007365
     12          1           0        1.537679    1.439090    1.240711
     13          1           0        2.330196   -0.930947    1.349632
     14          1           0       -0.275143   -1.116930   -1.158723
     15          1           0       -1.004224    1.203864   -1.362589
     16          1           0       -0.739315    1.176881    1.423358
     17          1           0       -2.038113   -2.111548    0.111847
     18          1           0       -1.992535   -0.838543    1.335338
     19          1           0       -2.976025    0.522768   -0.160107
     20          1           0        1.981472   -0.721721   -1.411247
 ---------------------------------------------------------------------

 SCF Done:  E(UB3LYP) =  -572.835410854     A.U. after   27 cycles

 The electronic state is 2-A.
 Alpha  occ. eigenvalues --  -19.03801 -19.03359 -19.03344 -19.03148 -19.02393
 Alpha  occ. eigenvalues --  -10.17101 -10.16851 -10.12561 -10.11623 -10.11512
 Alpha  occ. eigenvalues --   -0.99321  -0.95645  -0.92866  -0.91147  -0.90806
 Alpha  occ. eigenvalues --   -0.68388  -0.61831  -0.58182  -0.54300  -0.48296
 Alpha  occ. eigenvalues --   -0.45050  -0.42807  -0.40914  -0.40824  -0.39557
 Alpha  occ. eigenvalues --   -0.37862  -0.36195  -0.32575  -0.31602  -0.30599
 Alpha  occ. eigenvalues --   -0.27471  -0.27103  -0.25087  -0.23883  -0.23563
 Alpha  occ. eigenvalues --   -0.23266  -0.20442  -0.18954  -0.18057  -0.15404
 Alpha  occ. eigenvalues --    0.05044
 Alpha virt. eigenvalues --    0.07727   0.07857   0.09180   0.10150   0.10503
 Alpha virt. eigenvalues --    0.10988   0.12081   0.13401   0.14167   0.15442
 Alpha virt. eigenvalues --    0.16688   0.16952   0.17705   0.18318   0.18974

  Beta  occ. eigenvalues --  -19.03803 -19.03347 -19.03325 -19.03085 -19.02372
  Beta  occ. eigenvalues --  -10.17086 -10.16828 -10.12556 -10.11592 -10.11460
  Beta  occ. eigenvalues --   -0.99281  -0.95587  -0.92825  -0.91109  -0.90726
  Beta  occ. eigenvalues --   -0.68326  -0.61759  -0.58116  -0.54230  -0.48215
  Beta  occ. eigenvalues --   -0.45002  -0.42757  -0.40845  -0.40761  -0.39491
  Beta  occ. eigenvalues --   -0.37805  -0.36103  -0.32523  -0.31555  -0.30550
  Beta  occ. eigenvalues --   -0.27455  -0.27062  -0.25043  -0.23839  -0.23526
  Beta  occ. eigenvalues --   -0.23226  -0.20404  -0.18913  -0.18020  -0.15369
  Beta virt. eigenvalues --    0.07547   0.08700   0.08989   0.09553   0.11054
  Beta virt. eigenvalues --    0.11427   0.11729   0.12312   0.13810   0.14823
  Beta virt. eigenvalues --    0.15766   0.16686   0.17158   0.18280   0.18415

 Mulliken charges and spin densities:
               1          2
     1  C    1.422005  -1.643696
     2  C   -0.002532  -0.138325
     3  O   -0.141505   0.075871
     4  C   -0.729428   0.705453
     5  C    0.145346  -0.624868
     6  O   -0.188697   0.084598
     7  O   -0.213862   0.022029
     8  C    1.432417  -1.955488
     9  O   -0.324330   0.075712
    10  O   -0.162256  -0.023479
    11  H   -0.614121   0.809121
    12  H   -0.270202   0.445677
    13  H   -0.948978   1.190076
    14  H    0.120138   0.042364
    15  H    0.027840   0.200879
    16  H   -0.145361   0.435849
    17  H   -0.117558   0.295596
    18  H   -0.377517   0.580093
    19  H   -0.061264   0.331114
    20  H    0.149865   0.091425
 Sum of Mulliken charges =  -1.00000   1.00000

 Dipole moment (field-independent basis, Debye):
    X=             -1.6333    Y=             -1.2113    Z=             -4.6021  Tot=              5.0313
 Quadrupole moment (field-independent basis, Debye-Ang):
   XX=           -114.5441   YY=            -91.7734   ZZ=            -92.0041
   XY=             -1.1269   XZ=             -3.1776   YZ=             -2.1469

 Summary of Natural Population Analysis:

                                       Natural Population
                Natural  -----------------------------------------------
    Atom  No    Charge         Core      Valence    Rydberg      Total
 -----------------------------------------------------------------------
      C    1   -0.03860      0.99956     2.02488    0.01417     3.03860
      C    2    0.20115      0.99960     1.77924    0.02000     2.79885
      O    3   -0.30848      0.99988     3.29745    0.01114     4.30848
      C    4    0.02938      0.99952     1.95705    0.01405     2.97062
      C    5    0.20297      0.99955     1.77777    0.01971     2.79703
      O    6   -0.30777      0.99989     3.29718    0.01070     4.30777
      O    7   -0.37553      0.99990     3.36834    0.00729     4.37553
      C    8   -0.01562      0.99958     2.00049    0.01555     3.01562
      O    9   -0.37276      0.99990     3.36613    0.00673     4.37276
      O   10   -0.36431      0.99989     3.35848    0.00594     4.36431
      H   11    0.09956      0.00000     0.39791    0.00253     0.40044
      H   12    0.09576      0.00000     0.39988    0.00435     0.40424
      H   13    0.09132      0.00000     0.40563    0.00306     0.40868
      H   14    0.08904      0.00000     0.40922    0.00175     0.41096
      H   15    0.09002      0.00000     0.40853    0.00144     0.40998
      H   16    0.24164      0.00000     0.24611    0.01225     0.25836
      H   17    0.08886      0.00000     0.40992    0.00121     0.41114
      H   18    0.08665      0.00000     0.41075    0.00260     0.41335
      H   19    0.23577      0.00000     0.26054    0.00368     0.26423
      H   20    0.23095      0.00000     0.26554    0.00352     0.26905
 =======================================================================
   * Total *   -0.00000      9.99728    29.84103    0.16169    40.00000

 Normal termination of Gaussian 16 at Tue Dec  8 13:41:59 2020.
