 Gaussian 16, Revision A.03,

 -----------------------------------------------------------
 # opt freq B3LYP/6-31G(d) empiricaldispersion=gd3bj scf=xqc
 -----------------------------------------------------------

 -----------------------------
 CID_131162710_JID_94_neutraal
 -----------------------------
 Symbolic Z-matrix:
 Charge =  0 Multiplicity = 1

 SCF Done:  E(RB3LYP) =  -459.967303692     A.U. after   13 cycles
 SCF Done:  E(RB3LYP) =  -459.971445824     A.U. after   12 cycles
 SCF Done:  E(RB3LYP) =  -459.971600966     A.U. after   12 cycles
 SCF Done:  E(RB3LYP) =  -459.971857136     A.U. after   11 cycles
 SCF Done:  E(RB3LYP) =  -459.971897321     A.U. after   10 cycles
 SCF Done:  E(RB3LYP) =  -459.971915505     A.U. after    9 cycles
 SCF Done:  E(RB3LYP) =  -459.971930415     A.U. after   10 cycles
 SCF Done:  E(RB3LYP) =  -459.971940076     A.U. after    9 cycles
 SCF Done:  E(RB3LYP) =  -459.971947949     A.U. after    9 cycles
 SCF Done:  E(RB3LYP) =  -459.971948449     A.U. after    8 cycles
 SCF Done:  E(RB3LYP) =  -459.971948487     A.U. after    6 cycles
 Optimization completed.
    -- Stationary point found.
 Normal termination of Gaussian 16 at Tue Dec  8 10:16:54 2020.

 --------------------------------------------------------------------
 #N Geom=AllCheck Guess=TCheck SCRF=Check GenChk RB3LYP/6-31G(d) Freq
 --------------------------------------------------------------------

 Structure from the checkpoint file:  "JID_94.chk"
 -----------------------------
 CID_131162710_JID_94_neutraal
 -----------------------------
 Charge =  0 Multiplicity = 1

 SCF Done:  E(RB3LYP) =  -459.971948487     A.U. after    1 cycles

  Exact polarizability:  96.820  -0.925  87.702  -5.300  -2.277  73.541
 Approx polarizability: 129.614   0.536 121.826 -14.659  -4.866 109.979

                      1                      2                      3
                      A                      A                      A
 Frequencies --     83.6431                97.2868               110.5897
 Red. masses --      4.9050                 2.1913                 3.8238
 Frc consts  --      0.0202                 0.0122                 0.0276
 IR Inten    --      0.1426                 0.1390                 0.1628

                      4                      5                      6
                      A                      A                      A
 Frequencies --    172.9897               212.3689               262.2496
 Red. masses --      3.4414                 1.3456                 2.1133
 Frc consts  --      0.0607                 0.0358                 0.0856
 IR Inten    --      6.4884                 1.8659                 0.7504

                      7                      8                      9
                      A                      A                      A
 Frequencies --    286.4922               311.6602               328.9363
 Red. masses --      1.1176                 2.7865                 2.3272
 Frc consts  --      0.0540                 0.1595                 0.1484
 IR Inten    --      0.8748                 2.0378                 0.8381

                     10                     11                     12
                      A                      A                      A
 Frequencies --    364.7599               441.8461               483.9122
 Red. masses --      2.1585                 2.6055                 1.4564
 Frc consts  --      0.1692                 0.2997                 0.2009
 IR Inten    --      1.7458                 6.6381                28.1524

                     13                     14                     15
                      A                      A                      A
 Frequencies --    500.9531               529.5236               596.3411
 Red. masses --      3.0185                 1.8489                 2.1883
 Frc consts  --      0.4463                 0.3055                 0.4585
 IR Inten    --     32.7842                68.1243                49.2245

                     16                     17                     18
                      A                      A                      A
 Frequencies --    618.6696               727.3708               757.5296
 Red. masses --      2.5178                 3.2861                11.2381
 Frc consts  --      0.5678                 1.0243                 3.7997
 IR Inten    --     24.7018                 2.9174                43.8870

                     19                     20                     21
                      A                      A                      A
 Frequencies --    788.2941               869.5686               881.0788
 Red. masses --      1.2814                 2.0520                 2.2633
 Frc consts  --      0.4692                 0.9142                 1.0352
 IR Inten    --      1.8794                 3.6890                 2.4424

                     22                     23                     24
                      A                      A                      A
 Frequencies --    923.9691               968.7843              1013.0614
 Red. masses --      3.3633                 1.9699                 1.7520
 Frc consts  --      1.6917                 1.0893                 1.0594
 IR Inten    --      2.5205                 2.0355                 2.3094

                     25                     26                     27
                      A                      A                      A
 Frequencies --   1033.3902              1044.7046              1073.1399
 Red. masses --      1.7526                 1.6759                 1.9461
 Frc consts  --      1.1027                 1.0777                 1.3205
 IR Inten    --      2.7674                 1.1747                 4.1700

                     28                     29                     30
                      A                      A                      A
 Frequencies --   1112.3381              1133.6290              1158.5371
 Red. masses --      1.9491                 1.9326                 1.8780
 Frc consts  --      1.4209                 1.4633                 1.4852
 IR Inten    --      3.2923                 3.5130                29.3818

                     31                     32                     33
                      A                      A                      A
 Frequencies --   1173.6354              1214.8832              1264.1558
 Red. masses --      1.9304                 1.9457                 1.4034
 Frc consts  --      1.5666                 1.6919                 1.3214
 IR Inten    --     19.6554                11.7230                12.3897

                     34                     35                     36
                      A                      A                      A
 Frequencies --   1284.9629              1308.1228              1341.5045
 Red. masses --      1.2639                 1.4360                 1.4751
 Frc consts  --      1.2296                 1.4477                 1.5640
 IR Inten    --     18.6347                 5.1874                72.1004

                     37                     38                     39
                      A                      A                      A
 Frequencies --   1367.3722              1380.2734              1390.7295
 Red. masses --      1.4022                 1.4657                 1.2943
 Frc consts  --      1.5446                 1.6453                 1.4749
 IR Inten    --      8.0980                19.3636                29.7149

                     40                     41                     42
                      A                      A                      A
 Frequencies --   1432.2414              1440.6048              1443.7565
 Red. masses --      1.4391                 1.2849                 1.2334
 Frc consts  --      1.7393                 1.5711                 1.5148
 IR Inten    --     24.8307                 5.6511                 5.1217

                     43                     44                     45
                      A                      A                      A
 Frequencies --   1446.1068              1471.0258              1497.6239
 Red. masses --      1.5942                 1.7318                 2.2136
 Frc consts  --      1.9643                 2.2080                 2.9252
 IR Inten    --      9.6915                30.6903               136.0110

                     46                     47                     48
                      A                      A                      A
 Frequencies --   1520.1889              1522.1298              1534.8327
 Red. masses --      1.0718                 1.0542                 1.0484
 Frc consts  --      1.4593                 1.4390                 1.4551
 IR Inten    --      0.5699                 2.0934                 3.3910

                     49                     50                     51
                      A                      A                      A
 Frequencies --   1537.7895              1540.9733              1556.7320
 Red. masses --      1.0662                 1.0573                 1.1553
 Frc consts  --      1.4855                 1.4792                 1.6495
 IR Inten    --      7.8053                 1.4703                38.1343

                     52                     53                     54
                      A                      A                      A
 Frequencies --   1815.7477              2962.3083              2989.1222
 Red. masses --      6.9008                 1.0829                 1.0730
 Frc consts  --     13.4049                 5.5991                 5.6487
 IR Inten    --    525.3610                35.9838                95.2330

                     55                     56                     57
                      A                      A                      A
 Frequencies --   3046.0940              3049.3300              3054.1335
 Red. masses --      1.0555                 1.0601                 1.0434
 Frc consts  --      5.7705                 5.8079                 5.7340
 IR Inten    --     13.4798                33.1981                32.5741

                     58                     59                     60
                      A                      A                      A
 Frequencies --   3056.6284              3081.7717              3089.3185
 Red. masses --      1.0657                 1.0911                 1.0981
 Frc consts  --      5.8664                 6.1055                 6.1745
 IR Inten    --     19.8457                27.7257                11.5224

                     61                     62                     63
                      A                      A                      A
 Frequencies --   3112.4178              3115.5896              3126.5788
 Red. masses --      1.1009                 1.1003                 1.1009
 Frc consts  --      6.2834                 6.2929                 6.3406
 IR Inten    --     45.0263                44.9602                32.8978

                     64                     65                     66
                      A                      A                      A
 Frequencies --   3142.5755              3618.5568              3630.6866
 Red. masses --      1.1026                 1.0763                 1.0768
 Frc consts  --      6.4155                 8.3037                 8.3632
 IR Inten    --     21.5922                25.1762                26.2833

 - Thermochemistry -
 -------------------
 Temperature   298.150 Kelvin.  Pressure   1.00000 Atm.
 Atom     1 has atomic number  6 and mass  12.00000

 Molecular mass:   142.11061 amu.
 Principal axes and moments of inertia in atomic units:
                           1         2         3
     Eigenvalues --   895.753701790.290342179.42151
           X            0.99972  -0.00884   0.02185
           Y            0.00876   0.99995   0.00395
           Z           -0.02188  -0.00376   0.99975
 This molecule is an asymmetric top.
 Rotational symmetry number  1.
 Warning -- assumption of classical behavior for rotation
           may cause significant error
 Rotational temperatures (Kelvin)      0.09669     0.04838     0.03974
 Rotational constants (GHZ):           2.01477     1.00807     0.82808
 Zero-point vibrational energy     564925.2 (Joules/Mol)
                                  135.02037 (Kcal/Mol)
 Warning -- explicit consideration of  16 degrees of freedom as
           vibrations may cause significant error
 Vibrational temperatures:    120.34   139.97   159.11   248.89   305.55
          (Kelvin)            377.32   412.20   448.41   473.27   524.81
                              635.72   696.24   720.76   761.87   858.00
                              890.13  1046.52  1089.92  1134.18  1251.12
                             1267.68  1329.39  1393.86  1457.57  1486.82
                             1503.10  1544.01  1600.41  1631.04  1666.88
                             1688.60  1747.95  1818.84  1848.77  1882.10
                             1930.13  1967.34  1985.91  2000.95  2060.68
                             2072.71  2077.24  2080.63  2116.48  2154.75
                             2187.21  2190.01  2208.28  2212.54  2217.12
                             2239.79  2612.46  4262.10  4300.68  4382.65
                             4387.31  4394.22  4397.81  4433.98  4444.84
                             4478.07  4482.64  4498.45  4521.47  5206.30
                             5223.75

 Zero-point correction=                           0.215169 (Hartree/Particle)
 Thermal correction to Energy=                    0.225499
 Thermal correction to Enthalpy=                  0.226443
 Thermal correction to Gibbs Free Energy=         0.179851
 Sum of electronic and zero-point Energies=           -459.756780
 Sum of electronic and thermal Energies=              -459.746449
 Sum of electronic and thermal Enthalpies=            -459.745505
 Sum of electronic and thermal Free Energies=         -459.792097

                     E (Thermal)             CV                S
                      KCal/Mol        Cal/Mol-Kelvin    Cal/Mol-Kelvin
 Total                  141.503             39.416             98.062
 Electronic               0.000              0.000              0.000
 Translational            0.889              2.981             40.766
 Rotational               0.889              2.981             29.637
 Vibrational            139.725             33.454             27.659
 Vibration     1          0.601              1.960              3.804
 Vibration     2          0.603              1.951              3.508
 Vibration     3          0.606              1.941              3.259
 Vibration     4          0.626              1.876              2.403
 Vibration     5          0.643              1.822              2.023
 Vibration     6          0.670              1.742              1.647
 Vibration     7          0.684              1.699              1.495
 Vibration     8          0.700              1.651              1.354
 Vibration     9          0.712              1.618              1.265
 Vibration    10          0.738              1.545              1.102
 Vibration    11          0.802              1.379              0.821
 Vibration    12          0.840              1.286              0.700
 Vibration    13          0.856              1.248              0.656
 Vibration    14          0.884              1.185              0.588
 Vibration    15          0.954              1.040              0.456
 Vibration    16          0.979              0.992              0.419

 Optimization completed.
    -- Stationary point found.
 Normal termination of Gaussian 16 at Tue Dec  8 10:21:20 2020.

 ----------------------------------------------------------------------
 # B3LYP/6-311++G(d,p) empiricaldispersion=gd3bj scf=xqc pop=npa geom=c
 heck
 ----------------------------------------------------------------------

 -------------------------------------
 CID_131162710_JID_94_Energie_neutraal
 -------------------------------------
 Structure from the checkpoint file:  "JID_94.chk"
 Charge =  0 Multiplicity = 1

 SCF Done:  E(RB3LYP) =  -460.112098444     A.U. after   14 cycles
 Normal termination of Gaussian 16 at Tue Dec  8 10:22:54 2020.

 ----------------------------------------------------------------------
 # B3LYP/6-311++G(d,p) empiricaldispersion=gd3bj scf=xqc pop=npa geom=c
 heck
 ----------------------------------------------------------------------

 -----------------------------------
 CID_131162710_JID_94_Energie_kation
 -----------------------------------
 Structure from the checkpoint file:  "JID_94.chk"
 Charge =  1 Multiplicity = 2

 SCF Done:  E(UB3LYP) =  -459.784876492     A.U. after   23 cycles
 Normal termination of Gaussian 16 at Tue Dec  8 10:26:14 2020.
 Gaussian 16:  ES64L-G16RevA.03 25-Dec-2016

 ----------------------------------------------------------------------
 # B3LYP/6-311++G(d,p) empiricaldispersion=gd3bj scf=xqc pop=npa geom=c
 heck
 ----------------------------------------------------------------------

 ----------------------------------
 CID_131162710_JID_94_Energie_anion
 ----------------------------------
 Structure from the checkpoint file:  "JID_94.chk"
 Charge = -1 Multiplicity = 2

                         Standard orientation:
 ---------------------------------------------------------------------
 Center     Atomic      Atomic             Coordinates (Angstroms)
 Number     Number       Type             X           Y           Z
 ---------------------------------------------------------------------
      1          6           0       -2.938218   -0.688948   -0.761608
      2          6           0       -1.413917   -0.831433   -0.708041
      3          6           0       -0.801812   -0.434546    0.654481
      4          6           0        0.342493   -1.370846    1.062756
      5          7           0        1.464150   -1.186519    0.153414
      6          6           0        1.867150    0.048421   -0.315387
      7          8           0        2.950195    0.224817   -0.862255
      8          7           0        0.928168    1.054647   -0.190454
      9          6           0       -0.238448    1.002113    0.688693
     10          6           0       -1.228321    2.088977    0.276860
     11          1           0       -3.418019   -1.326694   -0.008909
     12          1           0       -3.326151   -0.984082   -1.742879
     13          1           0       -3.260866    0.340254   -0.573422
     14          1           0       -1.148642   -1.872493   -0.927653
     15          1           0       -0.947820   -0.237235   -1.501773
     16          1           0       -1.572831   -0.502907    1.433070
     17          1           0        0.629411   -1.174667    2.108892
     18          1           0        0.014042   -2.414178    1.004410
     19          1           0        2.214567   -1.862782    0.158461
     20          1           0        1.297733    1.961571   -0.441473
     21          1           0        0.062827    1.202581    1.731244
     22          1           0       -2.108778    2.075889    0.927415
     23          1           0       -0.764842    3.079131    0.362919
     24          1           0       -1.551974    1.957747   -0.759509
 ---------------------------------------------------------------------

 SCF Done:  E(UB3LYP) =  -460.099980657     A.U. after   29 cycles

 The electronic state is 2-A.
 Alpha  occ. eigenvalues --  -18.96986 -14.22125 -14.22048 -10.18351 -10.10930
 Alpha  occ. eigenvalues --  -10.09911 -10.07441 -10.06196 -10.06082 -10.05555
 Alpha  occ. eigenvalues --   -0.93732  -0.83555  -0.79346  -0.70508  -0.64655
 Alpha  occ. eigenvalues --   -0.62087  -0.55415  -0.52272  -0.50677  -0.45540
 Alpha  occ. eigenvalues --   -0.40196  -0.40096  -0.37066  -0.36057  -0.34475
 Alpha  occ. eigenvalues --   -0.33210  -0.31480  -0.31353  -0.29884  -0.28917
 Alpha  occ. eigenvalues --   -0.27723  -0.27403  -0.24807  -0.23743  -0.22271
 Alpha  occ. eigenvalues --   -0.21729  -0.16181  -0.14767  -0.14232   0.04544
 Alpha virt. eigenvalues --    0.07036   0.07478   0.08323   0.09779   0.09906
 Alpha virt. eigenvalues --    0.10689   0.10960   0.11473   0.12664   0.13189
 Alpha virt. eigenvalues --    0.13372   0.14320   0.15113   0.15680   0.15882

  Beta  occ. eigenvalues --  -18.96976 -14.22116 -14.22037 -10.18349 -10.10910
  Beta  occ. eigenvalues --  -10.09871 -10.07425 -10.06155 -10.06068 -10.05523
  Beta  occ. eigenvalues --   -0.93715  -0.83529  -0.79314  -0.70470  -0.64610
  Beta  occ. eigenvalues --   -0.62027  -0.55339  -0.52195  -0.50622  -0.45487
  Beta  occ. eigenvalues --   -0.40137  -0.40060  -0.36997  -0.36026  -0.34428
  Beta  occ. eigenvalues --   -0.33160  -0.31451  -0.31317  -0.29843  -0.28870
  Beta  occ. eigenvalues --   -0.27673  -0.27349  -0.24760  -0.23674  -0.22228
  Beta  occ. eigenvalues --   -0.21690  -0.16164  -0.14728  -0.14216
  Beta virt. eigenvalues --    0.07109   0.08110   0.08193   0.09155   0.10349
  Beta virt. eigenvalues --    0.10798   0.11245   0.11346   0.11953   0.13296
  Beta virt. eigenvalues --    0.13660   0.14014   0.14454   0.15534   0.15773

 Mulliken charges and spin densities:
               1          2
     1  C    0.747642  -1.384221
     2  C   -0.377787  -0.054891
     3  C   -0.838505   1.314660
     4  C    1.684364  -2.192425
     5  N   -0.460192   0.150490
     6  C   -0.025731   0.287710
     7  O   -0.415948   0.003906
     8  N   -0.348544   0.037784
     9  C    0.622732  -0.609797
    10  C    0.877023  -1.677773
    11  H   -0.311105   0.456843
    12  H   -0.136878   0.253851
    13  H   -0.002001   0.140045
    14  H   -0.020540   0.195283
    15  H    0.214669  -0.029550
    16  H   -0.314305   0.557755
    17  H   -0.343233   0.519356
    18  H   -0.756747   0.924027
    19  H    0.122816   0.198615
    20  H    0.282286   0.026187
    21  H   -0.405842   0.628401
    22  H   -0.383613   0.546038
    23  H   -0.431862   0.571762
    24  H    0.021303   0.135943
 Sum of Mulliken charges =  -1.00000   1.00000

 Dipole moment (field-independent basis, Debye):
    X=              0.9417    Y=              0.8292    Z=             -3.4160  Tot=              3.6391
 Quadrupole moment (field-independent basis, Debye-Ang):
   XX=           -116.1603   YY=           -105.0175   ZZ=           -100.3995
   XY=             -2.5911   XZ=              8.6928   YZ=              0.0892

 Summary of Natural Population Analysis:

                                       Natural Population
                Natural  -----------------------------------------------
    Atom  No    Charge         Core      Valence    Rydberg      Total
 -----------------------------------------------------------------------
      C    1   -0.28293      0.99966     2.27846    0.00481     3.28293
      C    2   -0.19493      0.99962     2.18570    0.00961     3.19493
      C    3   -0.11805      0.99957     2.10425    0.01423     3.11805
      C    4   -0.08000      0.99960     2.06817    0.01223     3.08000
      N    5   -0.33378      0.99968     2.82423    0.00986     3.83378
      C    6    0.40876      0.99969     1.56910    0.02245     2.59124
      O    7   -0.34671      0.99988     3.34162    0.00522     4.34671
      N    8   -0.33830      0.99966     2.82876    0.00988     3.83830
      C    9   -0.00492      0.99958     1.99255    0.01280     3.00492
      C   10   -0.28747      0.99965     2.28111    0.00671     3.28747
      H   11    0.09835      0.00000     0.40031    0.00134     0.40165
      H   12    0.09561      0.00000     0.40363    0.00076     0.40439
      H   13    0.09664      0.00000     0.40221    0.00115     0.40336
      H   14    0.09891      0.00000     0.39982    0.00127     0.40109
      H   15    0.09954      0.00000     0.39893    0.00153     0.40046
      H   16    0.10938      0.00000     0.38705    0.00357     0.39062
      H   17    0.09116      0.00000     0.40626    0.00258     0.40884
      H   18    0.10028      0.00000     0.39731    0.00241     0.39972
      H   19    0.19560      0.00000     0.30242    0.00197     0.30440
      H   20    0.19487      0.00000     0.30308    0.00205     0.30513
      H   21    0.09150      0.00000     0.40596    0.00254     0.40850
      H   22    0.10688      0.00000     0.39158    0.00154     0.39312
      H   23    0.09997      0.00000     0.39873    0.00129     0.40003
      H   24    0.09964      0.00000     0.39923    0.00114     0.40036
 =======================================================================
   * Total *    0.00000      9.99658    28.87049    0.13293    39.00000

 Normal termination of Gaussian 16 at Tue Dec  8 10:30:14 2020.
