 Gaussian 16, Revision A.03,

 -----------------------------------------------------------
 # opt freq B3LYP/6-31G(d) empiricaldispersion=gd3bj scf=xqc
 -----------------------------------------------------------

 -------------------------------
 CID_130692417_JID_1092_neutraal
 -------------------------------
 Symbolic Z-matrix:
 Charge =  0 Multiplicity = 1

 SCF Done:  E(RB3LYP) =  -890.410264640     A.U. after   16 cycles
 SCF Done:  E(RB3LYP) =  -890.414198430     A.U. after   13 cycles
 SCF Done:  E(RB3LYP) =  -890.414646207     A.U. after   13 cycles
 SCF Done:  E(RB3LYP) =  -890.414736722     A.U. after   13 cycles
 SCF Done:  E(RB3LYP) =  -890.415635282     A.U. after   12 cycles
 SCF Done:  E(RB3LYP) =  -890.415739939     A.U. after   12 cycles
 SCF Done:  E(RB3LYP) =  -890.415781865     A.U. after   11 cycles
 SCF Done:  E(RB3LYP) =  -890.415800137     A.U. after   10 cycles
 SCF Done:  E(RB3LYP) =  -890.415810796     A.U. after   11 cycles
 SCF Done:  E(RB3LYP) =  -890.415813878     A.U. after    9 cycles
 SCF Done:  E(RB3LYP) =  -890.415814714     A.U. after    9 cycles
 SCF Done:  E(RB3LYP) =  -890.415815026     A.U. after    8 cycles
 SCF Done:  E(RB3LYP) =  -890.415815106     A.U. after    8 cycles
 Optimization completed.
    -- Stationary point found.
 Normal termination of Gaussian 16 at Tue Dec  8 19:12:02 2020.

 --------------------------------------------------------------------
 #N Geom=AllCheck Guess=TCheck SCRF=Check GenChk RB3LYP/6-31G(d) Freq
 --------------------------------------------------------------------

 Structure from the checkpoint file:  "JID_1092.chk"
 -------------------------------
 CID_130692417_JID_1092_neutraal
 -------------------------------
 Charge =  0 Multiplicity = 1

 SCF Done:  E(RB3LYP) =  -890.415815106     A.U. after    1 cycles

  Exact polarizability: 174.632   8.365 101.405  -0.283   0.002  38.913
 Approx polarizability: 269.650  20.387 191.654  -1.036  -0.298  61.192

                      1                      2                      3
                      A                      A                      A
 Frequencies --     48.1747                76.2368               105.3159
 Red. masses --     10.6387                 7.8457                 6.5628
 Frc consts  --      0.0145                 0.0269                 0.0429
 IR Inten    --      8.2744                 1.6785                 0.5221

                      4                      5                      6
                      A                      A                      A
 Frequencies --    131.2913               231.9915               270.7474
 Red. masses --      7.1787                 8.9651                 1.2644
 Frc consts  --      0.0729                 0.2843                 0.0546
 IR Inten    --      0.8096                 3.8627               158.4105

                      7                      8                      9
                      A                      A                      A
 Frequencies --    300.5954               350.9626               375.4270
 Red. masses --      4.0408                 4.4175                 5.4119
 Frc consts  --      0.2151                 0.3206                 0.4494
 IR Inten    --     57.5259                 4.6367                 9.1136

                     10                     11                     12
                      A                      A                      A
 Frequencies --    464.1303               499.4676               506.7498
 Red. masses --      5.3452                 2.9698                 3.8852
 Frc consts  --      0.6784                 0.4365                 0.5878
 IR Inten    --      8.7710                22.1344                43.1982

                     13                     14                     15
                      A                      A                      A
 Frequencies --    611.0177               619.4638               633.8119
 Red. masses --      1.3117                 3.5234                 1.7218
 Frc consts  --      0.2885                 0.7966                 0.4075
 IR Inten    --      7.9381                23.3185                91.6571

                     16                     17                     18
                      A                      A                      A
 Frequencies --    662.1284               708.8567               726.5079
 Red. masses --      4.6397                 1.8492                 7.1431
 Frc consts  --      1.1985                 0.5475                 2.2214
 IR Inten    --     16.0949                 0.2657                 5.7646

                     19                     20                     21
                      A                      A                      A
 Frequencies --    756.1478               778.6403               824.8087
 Red. masses --      1.7669                 2.5553                 1.8224
 Frc consts  --      0.5952                 0.9128                 0.7305
 IR Inten    --      3.5390                91.0441                 9.6246

                     22                     23                     24
                      A                      A                      A
 Frequencies --    833.8799               843.3473               883.2018
 Red. masses --      7.7572                 4.8247                 3.9340
 Frc consts  --      3.1781                 2.0218                 1.8080
 IR Inten    --     40.3474                 0.1458                 5.4647

                     25                     26                     27
                      A                      A                      A
 Frequencies --    895.4717              1004.3540              1104.3444
 Red. masses --      1.3183                 3.7895                 1.1496
 Frc consts  --      0.6228                 2.2522                 0.8260
 IR Inten    --      1.2222                 8.8921                 9.8077

                     28                     29                     30
                      A                      A                      A
 Frequencies --   1121.6473              1193.5416              1216.2903
 Red. masses --      1.8264                 2.4109                 1.5409
 Frc consts  --      1.3538                 2.0235                 1.3430
 IR Inten    --     33.2087               348.1635                29.1367

                     31                     32                     33
                      A                      A                      A
 Frequencies --   1288.3724              1380.4130              1417.7727
 Red. masses --      1.7070                 2.1391                 6.4202
 Frc consts  --      1.6694                 2.4016                 7.6034
 IR Inten    --      6.0074                19.3524                13.5341

                     34                     35                     36
                      A                      A                      A
 Frequencies --   1435.0021              1487.2683              1561.3851
 Red. masses --      3.5831                 2.4126                 6.1888
 Frc consts  --      4.3472                 3.1443                 8.8895
 IR Inten    --    194.6625                53.7623                41.7890

                     37                     38                     39
                      A                      A                      A
 Frequencies --   1616.3731              1693.1713              1814.7423
 Red. masses --      1.5009                 5.1442                 8.8236
 Frc consts  --      2.3104                 8.6890                17.1208
 IR Inten    --     90.2564               342.3575               341.2733

                     40                     41                     42
                      A                      A                      A
 Frequencies --   3235.4019              3254.1926              3268.6989
 Red. masses --      1.0908                 1.0897                 1.0991
 Frc consts  --      6.7276                 6.7987                 6.9188
 IR Inten    --      1.5148                 0.6365                 0.8809

                     43                     44                     45
                      A                      A                      A
 Frequencies --   3536.4098              3696.4758              3701.9213
 Red. masses --      1.0487                 1.1015                 1.0643
 Frc consts  --      7.7270                 8.8678                 8.5934
 IR Inten    --     35.9337               123.5673               102.1486

 - Thermochemistry -
 -------------------
 Temperature   298.150 Kelvin.  Pressure   1.00000 Atm.
 Atom     1 has atomic number  6 and mass  12.00000

 Molecular mass:   170.01500 amu.
 Principal axes and moments of inertia in atomic units:
                           1         2         3
     Eigenvalues --   621.025993898.632584518.78515
           X            0.99996   0.00839   0.00005
           Y           -0.00839   0.99996   0.00053
           Z           -0.00005  -0.00053   1.00000
 This molecule is an asymmetric top.
 Rotational symmetry number  1.
 Warning -- assumption of classical behavior for rotation
           may cause significant error
 Rotational temperatures (Kelvin)      0.13947     0.02222     0.01917
 Rotational constants (GHZ):           2.90606     0.46292     0.39939
 Zero-point vibrational energy     318004.2 (Joules/Mol)
                                   76.00483 (Kcal/Mol)
 Warning -- explicit consideration of  14 degrees of freedom as
           vibrations may cause significant error
 Vibrational temperatures:     69.31   109.69   151.53   188.90   333.78
          (Kelvin)            389.55   432.49   504.96   540.16   667.78
                              718.62   729.10   879.12   891.27   911.91
                              952.66  1019.89  1045.28  1087.93  1120.29
                             1186.72  1199.77  1213.39  1270.73  1288.38
                             1445.04  1588.91  1613.80  1717.24  1749.97
                             1853.68  1986.11  2039.86  2064.65  2139.85
                             2246.48  2325.60  2436.10  2611.01  4655.02
                             4682.06  4702.93  5088.10  5318.40  5326.24

 Zero-point correction=                           0.121121 (Hartree/Particle)
 Thermal correction to Energy=                    0.131203
 Thermal correction to Enthalpy=                  0.132147
 Thermal correction to Gibbs Free Energy=         0.084512
 Sum of electronic and zero-point Energies=           -890.294694
 Sum of electronic and thermal Energies=              -890.284613
 Sum of electronic and thermal Enthalpies=            -890.283668
 Sum of electronic and thermal Free Energies=         -890.331303

                     E (Thermal)             CV                S
                      KCal/Mol        Cal/Mol-Kelvin    Cal/Mol-Kelvin
 Total                   82.331             37.586            100.256
 Electronic               0.000              0.000              0.000
 Translational            0.889              2.981             41.300
 Rotational               0.889              2.981             30.771
 Vibrational             80.553             31.625             28.185
 Vibration     1          0.595              1.978              4.891
 Vibration     2          0.599              1.965              3.985
 Vibration     3          0.605              1.945              3.353
 Vibration     4          0.612              1.922              2.927
 Vibration     5          0.653              1.792              1.863
 Vibration     6          0.674              1.727              1.591
 Vibration     7          0.693              1.673              1.414
 Vibration     8          0.728              1.573              1.162
 Vibration     9          0.746              1.522              1.058
 Vibration    10          0.822              1.330              0.754
 Vibration    11          0.855              1.251              0.659
 Vibration    12          0.862              1.235              0.641
 Vibration    13          0.970              1.009              0.431
 Vibration    14          0.979              0.991              0.417

                           ! Non-Optimized Parameters !
 Normal termination of Gaussian 16 at Tue Dec  8 19:14:55 2020.

 ----------------------------------------------------------------------
 # B3LYP/6-311++G(d,p) empiricaldispersion=gd3bj scf=xqc pop=npa geom=c
 heck
 ----------------------------------------------------------------------

 ---------------------------------------
 CID_130692417_JID_1092_Energie_neutraal
 ---------------------------------------
 Structure from the checkpoint file:  "JID_1092.chk"
 Charge =  0 Multiplicity = 1

 SCF Done:  E(RB3LYP) =  -890.597695525     A.U. after   15 cycles
 Normal termination of Gaussian 16 at Tue Dec  8 19:16:01 2020.

 ----------------------------------------------------------------------
 # B3LYP/6-311++G(d,p) empiricaldispersion=gd3bj scf=xqc pop=npa geom=c
 heck
 ----------------------------------------------------------------------

 -------------------------------------
 CID_130692417_JID_1092_Energie_kation
 -------------------------------------
 Structure from the checkpoint file:  "JID_1092.chk"
 Charge =  1 Multiplicity = 2

 SCF Done:  E(UB3LYP) =  -890.315103911     A.U. after   23 cycles
 Normal termination of Gaussian 16 at Tue Dec  8 19:18:44 2020.
 Gaussian 16:  ES64L-G16RevA.03 25-Dec-2016

 ----------------------------------------------------------------------
 # B3LYP/6-311++G(d,p) empiricaldispersion=gd3bj scf=xqc pop=npa geom=c
 heck
 ----------------------------------------------------------------------

 ------------------------------------
 CID_130692417_JID_1092_Energie_anion
 ------------------------------------
 Structure from the checkpoint file:  "JID_1092.chk"
 Charge = -1 Multiplicity = 2

                         Standard orientation:
 ---------------------------------------------------------------------
 Center     Atomic      Atomic             Coordinates (Angstroms)
 Number     Number       Type             X           Y           Z
 ---------------------------------------------------------------------
      1          6           0        1.916055    1.486222   -0.002971
      2          6           0        3.174435    0.962774   -0.015594
      3         16           0        3.080947   -0.761920   -0.010659
      4          7           0        1.401583   -0.799238    0.008254
      5          6           0        0.917467    0.447817    0.009647
      6          6           0       -0.501606    0.710295    0.015752
      7          6           0       -1.463340   -0.260765    0.021732
      8          6           0       -2.913877    0.084099   -0.007929
      9          8           0       -3.795287   -0.753064   -0.055755
     10          8           0       -3.170142    1.410677    0.016731
     11          7           0       -1.240725   -1.598117    0.057234
     12          1           0        1.685197    2.544782   -0.003109
     13          1           0        4.120355    1.488451   -0.026483
     14          1           0       -0.819671    1.743638    0.010551
     15          1           0       -4.141080    1.491564   -0.014190
     16          1           0       -0.284581   -1.926980   -0.011336
     17          1           0       -2.032750   -2.212789   -0.054942
 ---------------------------------------------------------------------

 SCF Done:  E(UB3LYP) =  -890.611598135     A.U. after   24 cycles

 The electronic state is 2-A.
 Alpha  occ. eigenvalues --  -88.73620 -19.02042 -18.94756 -14.15159 -14.14750
 Alpha  occ. eigenvalues --  -10.12668 -10.05836 -10.05122 -10.04528 -10.03851
 Alpha  occ. eigenvalues --   -9.99729  -7.82108  -5.78494  -5.78031  -5.77669
 Alpha  occ. eigenvalues --   -0.95772  -0.86398  -0.79948  -0.75706  -0.63754
 Alpha  occ. eigenvalues --   -0.62178  -0.57683  -0.50384  -0.44720  -0.43440
 Alpha  occ. eigenvalues --   -0.40067  -0.37812  -0.35980  -0.33016  -0.30989
 Alpha  occ. eigenvalues --   -0.30471  -0.28895  -0.27060  -0.26100  -0.24768
 Alpha  occ. eigenvalues --   -0.23437  -0.20390  -0.20024  -0.17620  -0.13752
 Alpha  occ. eigenvalues --   -0.13247  -0.13009  -0.12515  -0.05071   0.04768
 Alpha virt. eigenvalues --    0.08937   0.09543   0.11175   0.11762   0.12042
 Alpha virt. eigenvalues --    0.13392   0.14368   0.15327   0.15459   0.16392
 Alpha virt. eigenvalues --    0.16946   0.17446   0.18528   0.18888   0.19622

  Beta  occ. eigenvalues --  -88.73562 -19.01964 -18.94453 -14.14989 -14.14199
  Beta  occ. eigenvalues --  -10.12370 -10.05696 -10.05055 -10.04284 -10.03925
  Beta  occ. eigenvalues --   -9.99705  -7.82057  -5.78471  -5.78008  -5.77474
  Beta  occ. eigenvalues --   -0.95443  -0.85936  -0.79380  -0.75284  -0.63344
  Beta  occ. eigenvalues --   -0.61827  -0.57218  -0.49853  -0.44355  -0.43166
  Beta  occ. eigenvalues --   -0.39861  -0.37618  -0.35819  -0.32710  -0.30701
  Beta  occ. eigenvalues --   -0.29077  -0.28670  -0.26885  -0.25043  -0.24559
  Beta  occ. eigenvalues --   -0.23204  -0.20093  -0.18997  -0.16254  -0.13250
  Beta  occ. eigenvalues --   -0.12616  -0.11908  -0.11302  -0.03610
  Beta virt. eigenvalues --    0.08913   0.09542   0.10732   0.11164   0.12047
  Beta virt. eigenvalues --    0.13375   0.13407   0.14478   0.15307   0.15514
  Beta virt. eigenvalues --    0.16388   0.16981   0.17653   0.18674   0.18913

 Mulliken charges and spin densities:
               1          2
     1  C    0.382643  -0.038336
     2  C   -0.585449   0.070447
     3  S    0.128737   0.135044
     4  N   -0.033401   0.227088
     5  C   -0.830989   0.053209
     6  C   -0.639892   0.052606
     7  C    0.582299   0.077826
     8  C   -0.096702   0.223849
     9  O   -0.447871   0.106742
    10  O   -0.235124   0.017206
    11  N   -0.542716   0.089849
    12  H    0.127239   0.004229
    13  H    0.191682  -0.006654
    14  H    0.148771  -0.002658
    15  H    0.259913  -0.000313
    16  H    0.330005  -0.005494
    17  H    0.260856  -0.004640
 Sum of Mulliken charges =  -1.00000   1.00000

 Dipole moment (field-independent basis, Debye):
    X=              1.8711    Y=              2.3166    Z=             -0.2249  Tot=              2.9863
 Quadrupole moment (field-independent basis, Debye-Ang):
   XX=           -106.6676   YY=            -77.3060   ZZ=            -80.5340
   XY=             -2.9174   XZ=              0.0571   YZ=              0.3992

 Summary of Natural Population Analysis:

                                       Natural Population
                Natural  -----------------------------------------------
    Atom  No    Charge         Core      Valence    Rydberg      Total
 -----------------------------------------------------------------------
      C    1   -0.15678      0.99949     2.14763    0.00966     3.15678
      C    2   -0.18654      0.99955     2.17568    0.01131     3.18654
      S    3    0.27685      4.99947     2.69303    0.03065     7.72315
      N    4   -0.27911      0.99969     2.76246    0.01696     3.77911
      C    5    0.08671      0.99957     1.90054    0.01318     2.91329
      C    6   -0.16215      0.99949     2.15203    0.01062     3.16215
      C    7    0.09943      0.99949     1.88856    0.01251     2.90057
      C    8    0.42699      0.99968     1.54975    0.02358     2.57301
      O    9   -0.31256      0.99987     3.30526    0.00743     4.31256
      O   10   -0.34714      0.99988     3.34129    0.00598     4.34714
      N   11   -0.37579      0.99970     2.86651    0.00958     3.87579
      H   12    0.10104      0.00000     0.39787    0.00109     0.39896
      H   13    0.09858      0.00000     0.40037    0.00106     0.40142
      H   14    0.10371      0.00000     0.39502    0.00127     0.39629
      H   15    0.22671      0.00000     0.26765    0.00564     0.27329
      H   16    0.20794      0.00000     0.29062    0.00144     0.29206
      H   17    0.19211      0.00000     0.30648    0.00141     0.30789
 =======================================================================
   * Total *   -0.00000     14.99589    28.84074    0.16336    44.00000

 Normal termination of Gaussian 16 at Tue Dec  8 19:21:36 2020.
