 Gaussian 16, Revision A.03,

 -----------------------------------------------------------
 # opt freq B3LYP/6-31G(d) empiricaldispersion=gd3bj scf=xqc
 -----------------------------------------------------------

 -------------------------------
 CID_142066646_JID_5169_neutraal
 -------------------------------
 Symbolic Z-matrix:
 Charge =  0 Multiplicity = 1

 SCF Done:  E(RB3LYP) =  -673.776734861     A.U. after   13 cycles
 SCF Done:  E(RB3LYP) =  -673.781808137     A.U. after   11 cycles
 SCF Done:  E(RB3LYP) =  -673.782064069     A.U. after   12 cycles
 SCF Done:  E(RB3LYP) =  -673.783765432     A.U. after   11 cycles
 SCF Done:  E(RB3LYP) =  -673.785497747     A.U. after   12 cycles
 SCF Done:  E(RB3LYP) =  -673.783755808     A.U. after   14 cycles
 SCF Done:  E(RB3LYP) =  -673.786528371     A.U. after   10 cycles
 SCF Done:  E(RB3LYP) =  -673.786751684     A.U. after   11 cycles
 SCF Done:  E(RB3LYP) =  -673.786770853     A.U. after   10 cycles
 SCF Done:  E(RB3LYP) =  -673.786773616     A.U. after    9 cycles
 SCF Done:  E(RB3LYP) =  -673.786774326     A.U. after    8 cycles
 SCF Done:  E(RB3LYP) =  -673.786774786     A.U. after    7 cycles
 SCF Done:  E(RB3LYP) =  -673.786775023     A.U. after    7 cycles
 SCF Done:  E(RB3LYP) =  -673.786775147     A.U. after    6 cycles
 Optimization completed.
    -- Stationary point found.
 Normal termination of Gaussian 16 at Thu Dec 10 14:50:49 2020.

 --------------------------------------------------------------------
 #N Geom=AllCheck Guess=TCheck SCRF=Check GenChk RB3LYP/6-31G(d) Freq
 --------------------------------------------------------------------

 Structure from the checkpoint file:  "JID_5169.chk"
 -------------------------------
 CID_142066646_JID_5169_neutraal
 -------------------------------
 Charge =  0 Multiplicity = 1

 SCF Done:  E(RB3LYP) =  -673.786775146     A.U. after    1 cycles

  Exact polarizability: 166.999   0.032 130.683   7.051  -0.576 115.472
 Approx polarizability: 186.068   0.857 204.815  11.069  -3.007 176.316

                      1                      2                      3
                      A                      A                      A
 Frequencies --     22.3558                23.2389                35.8784
 Red. masses --      3.9241                 4.1510                 3.2389
 Frc consts  --      0.0012                 0.0013                 0.0025
 IR Inten    --      0.1486                 0.0580                 0.0347

                      4                      5                      6
                      A                      A                      A
 Frequencies --     50.4180                58.0774                71.0649
 Red. masses --      4.2421                 3.6448                 3.5288
 Frc consts  --      0.0064                 0.0072                 0.0105
 IR Inten    --      1.5744                 1.1079                 0.8707

                      7                      8                      9
                      A                      A                      A
 Frequencies --     76.2011               101.0643               121.7895
 Red. masses --      4.2976                 3.7960                 2.3365
 Frc consts  --      0.0147                 0.0228                 0.0204
 IR Inten    --      1.8489                 0.2464                 0.9772

                     10                     11                     12
                      A                      A                      A
 Frequencies --    162.9327               196.8703               218.9722
 Red. masses --      2.2010                 2.4237                 1.5992
 Frc consts  --      0.0344                 0.0553                 0.0452
 IR Inten    --      8.2052                 4.7878                 7.9816

                     13                     14                     15
                      A                      A                      A
 Frequencies --    236.5966               271.3879               284.9628
 Red. masses --      2.1336                 1.5181                 2.0000
 Frc consts  --      0.0704                 0.0659                 0.0957
 IR Inten    --     12.0713                28.7162                 1.3304

                     16                     17                     18
                      A                      A                      A
 Frequencies --    300.3401               319.8996               353.8510
 Red. masses --      1.9359                 2.0174                 2.2734
 Frc consts  --      0.1029                 0.1216                 0.1677
 IR Inten    --      0.9740                 7.7049                 3.2116

                     19                     20                     21
                      A                      A                      A
 Frequencies --    365.0417               391.2236               448.5364
 Red. masses --      2.1315                 1.8804                 1.8314
 Frc consts  --      0.1673                 0.1696                 0.2171
 IR Inten    --      3.8161                 1.5564                 3.5789

                     22                     23                     24
                      A                      A                      A
 Frequencies --    463.6937               517.4652               528.3906
 Red. masses --      2.1698                 4.6977                 2.0132
 Frc consts  --      0.2749                 0.7411                 0.3312
 IR Inten    --      0.7456                20.3545                 2.0000

                     25                     26                     27
                      A                      A                      A
 Frequencies --    567.4886               609.5087               688.7933
 Red. masses --      2.6010                 2.3092                 1.2492
 Frc consts  --      0.4935                 0.5054                 0.3492
 IR Inten    --     18.6909                 2.5688               135.0371

                     28                     29                     30
                      A                      A                      A
 Frequencies --    710.8602               727.5299               750.2738
 Red. masses --      1.9442                 1.5173                 1.4149
 Frc consts  --      0.5788                 0.4732                 0.4693
 IR Inten    --      8.1027                26.8505                13.6277

                     31                     32                     33
                      A                      A                      A
 Frequencies --    759.9129               802.3515               807.2385
 Red. masses --      1.6600                 5.4033                 2.4249
 Frc consts  --      0.5648                 2.0494                 0.9310
 IR Inten    --      3.4629                86.6025                 1.7540

                     34                     35                     36
                      A                      A                      A
 Frequencies --    825.3005               831.8420               864.4642
 Red. masses --      2.1358                 1.7079                 1.9610
 Frc consts  --      0.8571                 0.6963                 0.8634
 IR Inten    --      3.1564                 2.4682                 5.1091

                     37                     38                     39
                      A                      A                      A
 Frequencies --    869.7198               904.1882               926.3880
 Red. masses --      1.3444                 1.6461                 1.9704
 Frc consts  --      0.5992                 0.7929                 0.9963
 IR Inten    --    143.8746                 3.7840                 5.2597

                     40                     41                     42
                      A                      A                      A
 Frequencies --    930.4767               961.4642               983.9739
 Red. masses --      1.8586                 1.7832                 1.7126
 Frc consts  --      0.9481                 0.9712                 0.9769
 IR Inten    --      4.4424                 0.6309                 0.3691

                     43                     44                     45
                      A                      A                      A
 Frequencies --   1032.9215              1039.9156              1049.7894
 Red. masses --      1.5858                 1.5378                 1.5345
 Frc consts  --      0.9969                 0.9798                 0.9964
 IR Inten    --      3.0911                 4.3151                 2.5400

                     46                     47                     48
                      A                      A                      A
 Frequencies --   1060.3140              1087.3450              1088.1938
 Red. masses --      1.5804                 1.9591                 2.0692
 Frc consts  --      1.0469                 1.3647                 1.4437
 IR Inten    --      9.8695                 3.8707                 7.6433

                     49                     50                     51
                      A                      A                      A
 Frequencies --   1118.8735              1142.5991              1148.1419
 Red. masses --      2.2598                 2.2183                 1.9899
 Frc consts  --      1.6668                 1.7063                 1.5455
 IR Inten    --      4.8970                 3.8721                 3.8599

                     52                     53                     54
                      A                      A                      A
 Frequencies --   1165.8499              1182.5848              1196.7624
 Red. masses --      2.1338                 2.5609                 1.8270
 Frc consts  --      1.7088                 2.1101                 1.5417
 IR Inten    --     11.4270                20.0448                 8.1246

                     55                     56                     57
                      A                      A                      A
 Frequencies --   1226.0776              1234.1360              1248.2123
 Red. masses --      1.2572                 1.2779                 1.4086
 Frc consts  --      1.1135                 1.1468                 1.2930
 IR Inten    --      4.2583                13.8916                21.7213

                     58                     59                     60
                      A                      A                      A
 Frequencies --   1278.6534              1298.4922              1318.8384
 Red. masses --      1.3355                 1.2451                 1.1897
 Frc consts  --      1.2864                 1.2369                 1.2191
 IR Inten    --     23.2239                 6.5132                 1.7755

                     61                     62                     63
                      A                      A                      A
 Frequencies --   1326.5525              1351.1793              1366.3394
 Red. masses --      1.1962                 1.1051                 1.1572
 Frc consts  --      1.2403                 1.1887                 1.2728
 IR Inten    --      9.7357                 8.6986                22.4980

                     64                     65                     66
                      A                      A                      A
 Frequencies --   1369.5027              1387.8388              1392.7904
 Red. masses --      1.5473                 1.3766                 1.4792
 Frc consts  --      1.7099                 1.5622                 1.6906
 IR Inten    --    158.5733                 9.0972                 3.2192

                     67                     68                     69
                      A                      A                      A
 Frequencies --   1402.0968              1405.6714              1421.3101
 Red. masses --      1.3943                 1.4210                 1.4328
 Frc consts  --      1.6149                 1.6543                 1.7053
 IR Inten    --      1.3080                 3.1729                 9.9407

                     70                     71                     72
                      A                      A                      A
 Frequencies --   1422.7881              1429.3127              1443.5435
 Red. masses --      1.4270                 1.3617                 1.2760
 Frc consts  --      1.7020                 1.6390                 1.5667
 IR Inten    --      1.4214                 5.7622                 5.4532

                     73                     74                     75
                      A                      A                      A
 Frequencies --   1450.6258              1456.6803              1480.6455
 Red. masses --      1.4470                 1.8523                 1.5019
 Frc consts  --      1.7941                 2.3158                 1.9400
 IR Inten    --      9.0873               165.7350                 1.5081

                     76                     77                     78
                      A                      A                      A
 Frequencies --   1484.6677              1507.2731              1511.0062
 Red. masses --      1.2121                 1.0749                 1.0783
 Frc consts  --      1.5742                 1.4388                 1.4505
 IR Inten    --      3.7102                 2.8358                 4.7002

                     79                     80                     81
                      A                      A                      A
 Frequencies --   1517.7091              1521.9535              1527.4366
 Red. masses --      1.0848                 1.0972                 1.0688
 Frc consts  --      1.4722                 1.4974                 1.4692
 IR Inten    --      2.5517                15.2449                 2.9104

                     82                     83                     84
                      A                      A                      A
 Frequencies --   1528.6460              1533.3976              1536.7803
 Red. masses --      1.0806                 1.0890                 1.1519
 Frc consts  --      1.4877                 1.5086                 1.6029
 IR Inten    --      9.5965                 1.7069                23.8422

                     85                     86                     87
                      A                      A                      A
 Frequencies --   1543.3073              1543.5813              1555.1529
 Red. masses --      1.1081                 1.0813                 1.0779
 Frc consts  --      1.5550                 1.5179                 1.5359
 IR Inten    --     34.3279                 6.3952                 2.2083

                     88                     89                     90
                      A                      A                      A
 Frequencies --   1700.0116              1788.7710              2930.0349
 Red. masses --      1.0891                 5.6535                 1.0745
 Frc consts  --      1.8544                10.6579                 5.4350
 IR Inten    --     33.4551               349.7532               109.6224

                     91                     92                     93
                      A                      A                      A
 Frequencies --   3024.1608              3033.8225              3044.8984
 Red. masses --      1.0628                 1.0649                 1.0497
 Frc consts  --      5.7267                 5.7750                 5.7340
 IR Inten    --     29.6690                26.5737                23.3907

                     94                     95                     96
                      A                      A                      A
 Frequencies --   3046.2410              3046.7645              3050.6579
 Red. masses --      1.0613                 1.0593                 1.0709
 Frc consts  --      5.8028                 5.7936                 5.8721
 IR Inten    --      5.2017                19.4346                 1.9618

                     97                     98                     99
                      A                      A                      A
 Frequencies --   3056.4027              3059.3526              3067.9733
 Red. masses --      1.0622                 1.0879                 1.0622
 Frc consts  --      5.8462                 5.9995                 5.8905
 IR Inten    --     12.9036                40.8494                18.2183

                    100                    101                    102
                      A                      A                      A
 Frequencies --   3069.7062              3075.2488              3080.0824
 Red. masses --      1.0956                 1.0643                 1.0855
 Frc consts  --      6.0827                 5.9305                 6.0673
 IR Inten    --     64.9419                43.0552                43.5670

                    103                    104                    105
                      A                      A                      A
 Frequencies --   3086.1281              3090.7191              3094.0747
 Red. masses --      1.0996                 1.0990                 1.0997
 Frc consts  --      6.1705                 6.1853                 6.2027
 IR Inten    --     33.5249                 4.3541                58.9667

                    106                    107                    108
                      A                      A                      A
 Frequencies --   3101.2551              3106.5416              3110.6359
 Red. masses --      1.1038                 1.1017                 1.1018
 Frc consts  --      6.2550                 6.2642                 6.2811
 IR Inten    --     38.6889                82.1537                51.2178

                    109                    110                    111
                      A                      A                      A
 Frequencies --   3112.8371              3117.1419              3469.8051
 Red. masses --      1.1020                 1.1020                 1.0498
 Frc consts  --      6.2912                 6.3086                 7.4466
 IR Inten    --     27.6262                45.1828                 2.0195

                    112                    113                    114
                      A                      A                      A
 Frequencies --   3552.4364              3590.3732              3593.7345
 Red. masses --      1.0921                 1.0751                 1.0757
 Frc consts  --      8.1202                 8.1656                 8.1852
 IR Inten    --      1.1354                24.7508                13.4306

 - Thermochemistry -
 -------------------
 Temperature   298.150 Kelvin.  Pressure   1.00000 Atm.
 Atom     1 has atomic number  6 and mass  12.00000

 Molecular mass:   215.19976 amu.
 Principal axes and moments of inertia in atomic units:
                           1         2         3
     Eigenvalues --  1169.665138753.951719160.03701
           X            1.00000  -0.00152   0.00070
           Y            0.00151   0.99978   0.02072
           Z           -0.00073  -0.02072   0.99979
 This molecule is an asymmetric top.
 Rotational symmetry number  1.
 Warning -- assumption of classical behavior for rotation
           may cause significant error
 Rotational temperatures (Kelvin)      0.07405     0.00989     0.00946
 Rotational constants (GHZ):           1.54296     0.20616     0.19702
 Zero-point vibrational energy     972428.4 (Joules/Mol)
                                  232.41596 (Kcal/Mol)
 Warning -- explicit consideration of  26 degrees of freedom as
           vibrations may cause significant error
 Vibrational temperatures:     32.16    33.44    51.62    72.54    83.56
          (Kelvin)            102.25   109.64   145.41   175.23   234.42
                              283.25   315.05   340.41   390.47   410.00
                              432.12   460.26   509.11   525.21   562.88
                              645.34   667.15   744.52   760.24   816.49
                              876.95   991.02  1022.77  1046.75  1079.48
                             1093.35  1154.40  1161.44  1187.42  1196.84
                             1243.77  1251.33  1300.93  1332.87  1338.75
                             1383.33  1415.72  1486.14  1496.21  1510.41
                             1525.56  1564.45  1565.67  1609.81  1643.95
                             1651.92  1677.40  1701.48  1721.87  1764.05
                             1775.65  1795.90  1839.70  1868.24  1897.51
                             1908.61  1944.05  1965.86  1970.41  1996.79
                             2003.91  2017.30  2022.45  2044.95  2047.07
                             2056.46  2076.94  2087.13  2095.84  2130.32
                             2136.11  2168.63  2174.00  2183.64  2189.75
                             2197.64  2199.38  2206.22  2211.08  2220.48
                             2220.87  2237.52  2445.94  2573.64  4215.67
                             4351.09  4364.99  4380.93  4382.86  4383.61
                             4389.22  4397.48  4401.73  4414.13  4416.62
                             4424.60  4431.55  4440.25  4446.86  4451.68
                             4462.01  4469.62  4475.51  4478.68  4484.87
                             4992.28  5111.16  5165.75  5170.58

 Zero-point correction=                           0.370378 (Hartree/Particle)
 Thermal correction to Energy=                    0.388436
 Thermal correction to Enthalpy=                  0.389381
 Thermal correction to Gibbs Free Energy=         0.321573
 Sum of electronic and zero-point Energies=           -673.416397
 Sum of electronic and thermal Energies=              -673.398339
 Sum of electronic and thermal Enthalpies=            -673.397395
 Sum of electronic and thermal Free Energies=         -673.465202

                     E (Thermal)             CV                S
                      KCal/Mol        Cal/Mol-Kelvin    Cal/Mol-Kelvin
 Total                  243.747             66.016            142.712
 Electronic               0.000              0.000              0.000
 Translational            0.889              2.981             42.002
 Rotational               0.889              2.981             32.906
 Vibrational            241.970             60.054             67.804
 Vibration     1          0.593              1.985              6.413
 Vibration     2          0.593              1.985              6.336
 Vibration     3          0.594              1.982              5.475
 Vibration     4          0.595              1.977              4.801
 Vibration     5          0.596              1.974              4.521
 Vibration     6          0.598              1.968              4.124
 Vibration     7          0.599              1.965              3.986
 Vibration     8          0.604              1.948              3.434
 Vibration     9          0.609              1.931              3.072
 Vibration    10          0.623              1.888              2.515
 Vibration    11          0.636              1.844              2.162
 Vibration    12          0.647              1.812              1.968
 Vibration    13          0.655              1.785              1.828
 Vibration    14          0.675              1.726              1.587
 Vibration    15          0.683              1.702              1.504
 Vibration    16          0.693              1.673              1.415
 Vibration    17          0.706              1.635              1.311
 Vibration    18          0.730              1.567              1.149
 Vibration    19          0.738              1.544              1.101
 Vibration    20          0.759              1.489              0.995
 Vibration    21          0.808              1.364              0.800
 Vibration    22          0.821              1.331              0.755
 Vibration    23          0.872              1.211              0.616
 Vibration    24          0.883              1.187              0.591
 Vibration    25          0.923              1.102              0.509
 Vibration    26          0.968              1.012              0.434

                           ! Non-Optimized Parameters !
 Normal termination of Gaussian 16 at Thu Dec 10 15:02:30 2020.

 ----------------------------------------------------------------------
 # B3LYP/6-311++G(d,p) empiricaldispersion=gd3bj scf=xqc pop=npa geom=c
 heck
 ----------------------------------------------------------------------

 ---------------------------------------
 CID_142066646_JID_5169_Energie_neutraal
 ---------------------------------------
 Structure from the checkpoint file:  "JID_5169.chk"
 Charge =  0 Multiplicity = 1

 SCF Done:  E(RB3LYP) =  -673.996582006     A.U. after   13 cycles
 Normal termination of Gaussian 16 at Thu Dec 10 15:08:29 2020.

 ----------------------------------------------------------------------
 # B3LYP/6-311++G(d,p) empiricaldispersion=gd3bj scf=xqc pop=npa geom=c
 heck
 ----------------------------------------------------------------------

 -------------------------------------
 CID_142066646_JID_5169_Energie_kation
 -------------------------------------
 Structure from the checkpoint file:  "JID_5169.chk"
 Charge =  1 Multiplicity = 2

 SCF Done:  E(UB3LYP) =  -673.678179972     A.U. after   33 cycles
 SCF Done:  E(UB3LYP) =  -673.683460547     a.u. after    7 cycles
 Normal termination of Gaussian 16 at Thu Dec 10 16:40:14 2020.
 Gaussian 16:  ES64L-G16RevA.03 25-Dec-2016

 ----------------------------------------------------------------------
 # B3LYP/6-311++G(d,p) empiricaldispersion=gd3bj scf=xqc pop=npa geom=c
 heck
 ----------------------------------------------------------------------

 ------------------------------------
 CID_142066646_JID_5169_Energie_anion
 ------------------------------------
 Structure from the checkpoint file:  "JID_5169.chk"
 Charge = -1 Multiplicity = 2

                         Standard orientation:
 ---------------------------------------------------------------------
 Center     Atomic      Atomic             Coordinates (Angstroms)
 Number     Number       Type             X           Y           Z
 ---------------------------------------------------------------------
      1          6           0        5.602690   -0.963224   -0.491710
      2          6           0        4.766286   -0.418832    0.669986
      3          6           0        3.838334    0.740632    0.276746
      4          6           0        2.805870    0.414305   -0.814317
      5          6           0        1.881345   -0.771921   -0.502657
      6          6           0        1.084153   -0.616648    0.799882
      7          7           0        0.313347    0.627130    0.903478
      8          6           0       -0.472741    1.175733   -0.099021
      9          8           0       -0.541312    2.392279   -0.258867
     10          7           0       -1.180240    0.305236   -0.917366
     11          6           0       -1.824314   -0.937137   -0.477849
     12          6           0       -2.628304   -0.819845    0.825048
     13          6           0       -3.678790    0.301226    0.817979
     14          6           0       -4.704115    0.207634   -0.314956
     15          7           0       -5.458229   -1.049405   -0.248777
     16          1           0        4.973505   -1.406875   -1.271278
     17          1           0        6.298667   -1.737044   -0.149409
     18          1           0        6.192854   -0.164895   -0.958356
     19          1           0        4.177551   -1.236408    1.107758
     20          1           0        5.437470   -0.073094    1.466943
     21          1           0        3.321205    1.100483    1.177432
     22          1           0        4.450768    1.584584   -0.068633
     23          1           0        2.194179    1.306460   -0.994912
     24          1           0        3.323750    0.209772   -1.759336
     25          1           0        1.179928   -0.898771   -1.334869
     26          1           0        2.459213   -1.703068   -0.434080
     27          1           0        0.424115   -1.478776    0.940493
     28          1           0        1.760944   -0.617371    1.659487
     29          1           0        0.807597    1.383025    1.361326
     30          1           0       -1.748904    0.862544   -1.543177
     31          1           0       -2.478048   -1.236733   -1.303708
     32          1           0       -1.078593   -1.733452   -0.387346
     33          1           0       -3.110717   -1.787021    1.019741
     34          1           0       -1.934459   -0.646516    1.654887
     35          1           0       -4.216315    0.279784    1.772787
     36          1           0       -3.173733    1.272709    0.752363
     37          1           0       -5.421221    1.029062   -0.204934
     38          1           0       -4.199143    0.372585   -1.286267
     39          1           0       -6.202785   -1.041041   -0.943520
     40          1           0       -4.853967   -1.830448   -0.498581
 ---------------------------------------------------------------------

 SCF Done:  E(UB3LYP) =  -673.988102841     A.U. after   32 cycles

 The electronic state is 2-A.
 Alpha  occ. eigenvalues --  -18.99030 -14.23930 -14.23636 -14.19764 -10.20094
 Alpha  occ. eigenvalues --  -10.11833 -10.11364 -10.09898 -10.07932 -10.07883
 Alpha  occ. eigenvalues --  -10.07740 -10.07621 -10.07568 -10.07247 -10.07229
 Alpha  occ. eigenvalues --   -0.95573  -0.83888  -0.81543  -0.78897  -0.72167
 Alpha  occ. eigenvalues --   -0.68943  -0.67483  -0.62594  -0.61857  -0.57749
 Alpha  occ. eigenvalues --   -0.55685  -0.52853  -0.50365  -0.47571  -0.46327
 Alpha  occ. eigenvalues --   -0.41357  -0.40840  -0.40216  -0.39003  -0.38913
 Alpha  occ. eigenvalues --   -0.38665  -0.37575  -0.35454  -0.34737  -0.33341
 Alpha  occ. eigenvalues --   -0.33193  -0.32316  -0.31458  -0.31229  -0.30487
 Alpha  occ. eigenvalues --   -0.29910  -0.28196  -0.27676  -0.27497  -0.26162
 Alpha  occ. eigenvalues --   -0.25498  -0.24771  -0.23985  -0.23635  -0.23117
 Alpha  occ. eigenvalues --   -0.22945  -0.18468  -0.16870  -0.15855  -0.15005
 Alpha  occ. eigenvalues --    0.03739
 Alpha virt. eigenvalues --    0.05108   0.06604   0.06777   0.07553   0.07915
 Alpha virt. eigenvalues --    0.08100   0.09100   0.09272   0.09831   0.10339
 Alpha virt. eigenvalues --    0.10594   0.11132   0.11480   0.11618   0.11884

  Beta  occ. eigenvalues --  -18.99027 -14.23925 -14.23630 -14.19714 -10.20094
  Beta  occ. eigenvalues --  -10.11813 -10.11328 -10.09877 -10.07921 -10.07862
  Beta  occ. eigenvalues --  -10.07725 -10.07617 -10.07556 -10.07227 -10.07220
  Beta  occ. eigenvalues --   -0.95567  -0.83874  -0.81522  -0.78819  -0.72142
  Beta  occ. eigenvalues --   -0.68904  -0.67449  -0.62552  -0.61803  -0.57707
  Beta  occ. eigenvalues --   -0.55621  -0.52806  -0.50325  -0.47527  -0.46283
  Beta  occ. eigenvalues --   -0.41311  -0.40809  -0.40190  -0.38958  -0.38877
  Beta  occ. eigenvalues --   -0.38615  -0.37546  -0.35412  -0.34690  -0.33314
  Beta  occ. eigenvalues --   -0.33165  -0.32286  -0.31432  -0.31190  -0.30462
  Beta  occ. eigenvalues --   -0.29880  -0.28168  -0.27636  -0.27468  -0.26137
  Beta  occ. eigenvalues --   -0.25476  -0.24744  -0.23961  -0.23611  -0.23088
  Beta  occ. eigenvalues --   -0.22921  -0.18460  -0.16854  -0.15845  -0.14957
  Beta virt. eigenvalues --    0.05700   0.06388   0.06872   0.07315   0.07947
  Beta virt. eigenvalues --    0.08197   0.08401   0.09423   0.09669   0.09994
  Beta virt. eigenvalues --    0.10455   0.10765   0.11394   0.11726   0.11840

 Mulliken charges and spin densities:
               1          2
     1  C    0.552211  -1.176586
     2  C   -0.265275   0.049683
     3  C   -0.018368  -0.131914
     4  C   -0.047563  -0.193375
     5  C   -0.133157  -0.083746
     6  C    0.156224  -0.690938
     7  N   -0.247769   0.108371
     8  C   -0.111233  -0.152330
     9  O   -0.311091   0.011732
    10  N   -0.283639   0.129173
    11  C    0.531810  -0.873003
    12  C   -0.096914  -0.188394
    13  C   -0.455066   0.210056
    14  C    0.891629  -1.331393
    15  N   -0.445520   0.092370
    16  H   -0.087848   0.228566
    17  H   -0.267383   0.406894
    18  H   -0.001952   0.133457
    19  H    0.027531   0.096907
    20  H   -0.301000   0.452830
    21  H    0.032584   0.074150
    22  H   -0.015257   0.168876
    23  H    0.179917   0.043832
    24  H    0.077319   0.088857
    25  H    0.093400   0.098710
    26  H   -0.193636   0.363140
    27  H    0.136444   0.021077
    28  H   -0.216545   0.417412
    29  H    0.296339   0.042523
    30  H    0.304689   0.035381
    31  H   -0.551608   0.777400
    32  H   -0.195183   0.341189
    33  H   -0.115757   0.300781
    34  H    0.078131   0.071830
    35  H    0.096861   0.057824
    36  H    0.226862  -0.030321
    37  H    0.045692   0.107545
    38  H   -0.219399   0.318990
    39  H   -0.211108   0.454144
    40  H    0.064630   0.148299
 Sum of Mulliken charges =  -1.00000   1.00000

 Dipole moment (field-independent basis, Debye):
    X=              2.0150    Y=              2.8433    Z=              1.5668  Tot=              3.8209
 Quadrupole moment (field-independent basis, Debye-Ang):
   XX=           -224.8489   YY=           -142.5807   ZZ=           -127.6306
   XY=             -4.4947   XZ=            -11.2473   YZ=             -1.7034

 Summary of Natural Population Analysis:

                                       Natural Population
                Natural  -----------------------------------------------
    Atom  No    Charge         Core      Valence    Rydberg      Total
 -----------------------------------------------------------------------
      C    1   -0.28592      0.99967     2.28170    0.00455     3.28592
      C    2   -0.19309      0.99964     2.18523    0.00822     3.19309
      C    3   -0.19061      0.99963     2.18170    0.00928     3.19061
      C    4   -0.19585      0.99962     2.18869    0.00754     3.19585
      C    5   -0.20291      0.99962     2.19490    0.00839     3.20291
      C    6   -0.09185      0.99961     2.08056    0.01168     3.09185
      N    7   -0.33641      0.99968     2.82731    0.00942     3.83641
      C    8    0.40583      0.99970     1.57038    0.02409     2.59417
      O    9   -0.34147      0.99988     3.33660    0.00499     4.34147
      N   10   -0.33633      0.99968     2.82638    0.01027     3.83633
      C   11   -0.09352      0.99961     2.08100    0.01291     3.09352
      C   12   -0.20306      0.99962     2.19511    0.00833     3.20306
      C   13   -0.19710      0.99962     2.18898    0.00850     3.19710
      C   14   -0.08999      0.99964     2.07864    0.01171     3.08999
      N   15   -0.42482      0.99977     2.91396    0.01109     3.92482
      H   16    0.09646      0.00000     0.40245    0.00109     0.40354
      H   17    0.09990      0.00000     0.39890    0.00120     0.40010
      H   18    0.09420      0.00000     0.40466    0.00114     0.40580
      H   19    0.09396      0.00000     0.40464    0.00140     0.40604
      H   20    0.09607      0.00000     0.40273    0.00120     0.40393
      H   21    0.09234      0.00000     0.40648    0.00117     0.40766
      H   22    0.09630      0.00000     0.40278    0.00092     0.40370
      H   23    0.10334      0.00000     0.39550    0.00116     0.39666
      H   24    0.09762      0.00000     0.40138    0.00100     0.40238
      H   25    0.10535      0.00000     0.39329    0.00136     0.39465
      H   26    0.10017      0.00000     0.39863    0.00120     0.39983
      H   27    0.09635      0.00000     0.40236    0.00129     0.40365
      H   28    0.09845      0.00000     0.40039    0.00116     0.40155
      H   29    0.19271      0.00000     0.30517    0.00212     0.30729
      H   30    0.19365      0.00000     0.30404    0.00230     0.30635
      H   31    0.10183      0.00000     0.39617    0.00201     0.39817
      H   32    0.09591      0.00000     0.40261    0.00148     0.40409
      H   33    0.10135      0.00000     0.39756    0.00110     0.39865
      H   34    0.10302      0.00000     0.39565    0.00133     0.39698
      H   35    0.09920      0.00000     0.39974    0.00106     0.40080
      H   36    0.10156      0.00000     0.39736    0.00108     0.39844
      H   37    0.09048      0.00000     0.40851    0.00102     0.40952
      H   38    0.07507      0.00000     0.42308    0.00185     0.42493
      H   39    0.17727      0.00000     0.32016    0.00257     0.32273
      H   40    0.17454      0.00000     0.32261    0.00285     0.32546
 =======================================================================
   * Total *   -0.00000     14.99499    44.81798    0.18703    60.00000

 Normal termination of Gaussian 16 at Thu Dec 10 17:02:07 2020.
