 Gaussian 16, Revision A.03,

 -----------------------------------------------------------
 # opt freq B3LYP/6-31G(d) empiricaldispersion=gd3bj scf=xqc
 -----------------------------------------------------------

 ------------------------------
 CID_91212819_JID_2961_neutraal
 ------------------------------
 Symbolic Z-matrix:
 Charge =  0 Multiplicity = 1

 SCF Done:  E(RB3LYP) =  -471.787899725     A.U. after   13 cycles
 SCF Done:  E(RB3LYP) =  -471.789410995     A.U. after   11 cycles
 SCF Done:  E(RB3LYP) =  -471.789500708     A.U. after   10 cycles
 SCF Done:  E(RB3LYP) =  -471.789654052     A.U. after   10 cycles
 SCF Done:  E(RB3LYP) =  -471.789667000     A.U. after    9 cycles
 SCF Done:  E(RB3LYP) =  -471.789671653     A.U. after    9 cycles
 SCF Done:  E(RB3LYP) =  -471.789674785     A.U. after    7 cycles
 SCF Done:  E(RB3LYP) =  -471.789677221     A.U. after    9 cycles
 SCF Done:  E(RB3LYP) =  -471.789679928     A.U. after    9 cycles
 SCF Done:  E(RB3LYP) =  -471.789680926     A.U. after    9 cycles
 SCF Done:  E(RB3LYP) =  -471.789712059     A.U. after    8 cycles
 SCF Done:  E(RB3LYP) =  -471.789712833     A.U. after    7 cycles
 SCF Done:  E(RB3LYP) =  -471.789713297     A.U. after    8 cycles
 SCF Done:  E(RB3LYP) =  -471.789713358     A.U. after    6 cycles
 SCF Done:  E(RB3LYP) =  -471.789713398     A.U. after    6 cycles
 Optimization completed.
    -- Stationary point found.
 Normal termination of Gaussian 16 at Wed Dec  9 18:40:15 2020.

 --------------------------------------------------------------------
 #N Geom=AllCheck Guess=TCheck SCRF=Check GenChk RB3LYP/6-31G(d) Freq
 --------------------------------------------------------------------

 Structure from the checkpoint file:  "JID_2961.chk"
 ------------------------------
 CID_91212819_JID_2961_neutraal
 ------------------------------
 Charge =  0 Multiplicity = 1

 SCF Done:  E(RB3LYP) =  -471.789713398     A.U. after    1 cycles

  Exact polarizability: 131.196  -3.900 141.584   4.128  -3.578 107.413
 Approx polarizability: 162.697  -5.526 191.527   7.485 -11.750 169.186

                      1                      2                      3
                      A                      A                      A
 Frequencies --     22.5357                42.2649                55.7149
 Red. masses --      2.7497                 3.2332                 2.4751
 Frc consts  --      0.0008                 0.0034                 0.0045
 IR Inten    --      0.0015                 0.0023                 0.0131

                      4                      5                      6
                      A                      A                      A
 Frequencies --     73.2054               113.3560               145.5010
 Red. masses --      2.5407                 2.9815                 1.5115
 Frc consts  --      0.0080                 0.0226                 0.0189
 IR Inten    --      0.2075                 0.1052                 0.0463

                      7                      8                      9
                      A                      A                      A
 Frequencies --    196.0711               204.4871               215.8622
 Red. masses --      2.1930                 1.2859                 1.4135
 Frc consts  --      0.0497                 0.0317                 0.0388
 IR Inten    --      0.3451                 0.1406                 1.0100

                     10                     11                     12
                      A                      A                      A
 Frequencies --    220.7657               224.1411               243.3375
 Red. masses --      1.1222                 1.7715                 1.5618
 Frc consts  --      0.0322                 0.0524                 0.0545
 IR Inten    --      0.1014                 0.3266                 0.0961

                     13                     14                     15
                      A                      A                      A
 Frequencies --    246.9717               280.8934               296.2350
 Red. masses --      1.2353                 1.8824                 2.0058
 Frc consts  --      0.0444                 0.0875                 0.1037
 IR Inten    --      0.1362                 0.2405                 0.0300

                     16                     17                     18
                      A                      A                      A
 Frequencies --    349.8095               383.4220               400.0904
 Red. masses --      1.9744                 1.8728                 2.2111
 Frc consts  --      0.1423                 0.1622                 0.2085
 IR Inten    --      0.0472                 0.1397                 0.9901

                     19                     20                     21
                      A                      A                      A
 Frequencies --    425.0488               437.4923               462.9609
 Red. masses --      2.6922                 2.1190                 2.2370
 Frc consts  --      0.2866                 0.2390                 0.2825
 IR Inten    --      0.2957                 1.5224                 0.1478

                     22                     23                     24
                      A                      A                      A
 Frequencies --    468.1783               499.3869               544.7701
 Red. masses --      2.8103                 2.3408                 2.7900
 Frc consts  --      0.3629                 0.3440                 0.4878
 IR Inten    --      0.0998                 0.0708                 0.6674

                     25                     26                     27
                      A                      A                      A
 Frequencies --    756.1145               810.7085               821.9894
 Red. masses --      1.7690                 1.6760                 1.8842
 Frc consts  --      0.5959                 0.6490                 0.7501
 IR Inten    --      4.1336                 2.1862                 0.4917

                     28                     29                     30
                      A                      A                      A
 Frequencies --    850.5309               896.4489               912.8607
 Red. masses --      2.3596                 1.5611                 1.7999
 Frc consts  --      1.0057                 0.7391                 0.8837
 IR Inten    --      1.3263                 0.9099                 1.6103

                     31                     32                     33
                      A                      A                      A
 Frequencies --    938.2270               950.2287               963.5831
 Red. masses --      1.2124                 1.5739                 1.6356
 Frc consts  --      0.6288                 0.8373                 0.8948
 IR Inten    --      0.2875                 1.7617                 0.5281

                     34                     35                     36
                      A                      A                      A
 Frequencies --    975.2408               980.2083              1003.2545
 Red. masses --      1.4837                 1.6966                 1.2846
 Frc consts  --      0.8314                 0.9604                 0.7618
 IR Inten    --      1.4272                 6.0193                 0.4372

                     37                     38                     39
                      A                      A                      A
 Frequencies --   1014.9736              1043.1293              1068.8751
 Red. masses --      1.1090                 1.8454                 1.8748
 Frc consts  --      0.6731                 1.1831                 1.2620
 IR Inten    --     35.5213                 6.0162                 0.4158

                     40                     41                     42
                      A                      A                      A
 Frequencies --   1074.1022              1079.5283              1097.0911
 Red. masses --      2.1264                 1.5262                 2.3075
 Frc consts  --      1.4454                 1.0479                 1.6363
 IR Inten    --      1.1064                 0.3505                 3.4624

                     43                     44                     45
                      A                      A                      A
 Frequencies --   1126.0250              1147.1210              1181.5226
 Red. masses --      1.8350                 2.1488                 2.0985
 Frc consts  --      1.3708                 1.6660                 1.7260
 IR Inten    --      0.3083                 0.7194                 3.1937

                     46                     47                     48
                      A                      A                      A
 Frequencies --   1191.6167              1201.9400              1211.1459
 Red. masses --      1.9727                 1.9931                 1.8126
 Frc consts  --      1.6504                 1.6965                 1.5665
 IR Inten    --      3.9756                 0.4522                 0.8632

                     49                     50                     51
                      A                      A                      A
 Frequencies --   1243.0193              1278.0528              1316.3164
 Red. masses --      1.3190                 1.4722                 1.3208
 Frc consts  --      1.2007                 1.4169                 1.3484
 IR Inten    --      0.9098                 2.7818                 3.0093

                     52                     53                     54
                      A                      A                      A
 Frequencies --   1323.3892              1342.9466              1345.5406
 Red. masses --      1.3167                 1.2649                 1.2910
 Frc consts  --      1.3587                 1.3441                 1.3772
 IR Inten    --      4.6031                 2.2957                 3.3770

                     55                     56                     57
                      A                      A                      A
 Frequencies --   1365.2480              1378.6173              1388.3391
 Red. masses --      1.3006                 1.3013                 1.3886
 Frc consts  --      1.4282                 1.4572                 1.5770
 IR Inten    --      2.9087                 1.0779                 2.1246

                     58                     59                     60
                      A                      A                      A
 Frequencies --   1402.1588              1405.5299              1418.6694
 Red. masses --      1.4232                 1.3920                 1.4063
 Frc consts  --      1.6486                 1.6202                 1.6675
 IR Inten    --      1.2595                 2.0974                 2.3019

                     61                     62                     63
                      A                      A                      A
 Frequencies --   1433.0713              1434.9342              1440.3234
 Red. masses --      1.2461                 1.2447                 1.2583
 Frc consts  --      1.5078                 1.5101                 1.5380
 IR Inten    --      1.3635                 2.3408                 7.9234

                     64                     65                     66
                      A                      A                      A
 Frequencies --   1442.1213              1451.1658              1507.9854
 Red. masses --      1.2687                 1.2168                 1.0726
 Frc consts  --      1.5545                 1.5097                 1.4371
 IR Inten    --      1.4835                 4.3705                 0.7045

                     67                     68                     69
                      A                      A                      A
 Frequencies --   1510.0734              1515.5256              1518.7380
 Red. masses --      1.0472                 1.0527                 1.0722
 Frc consts  --      1.4070                 1.4246                 1.4571
 IR Inten    --      2.8652                 2.6700                 2.4152

                     70                     71                     72
                      A                      A                      A
 Frequencies --   1522.7374              1523.6252              1527.3391
 Red. masses --      1.0520                 1.0497                 1.0493
 Frc consts  --      1.4371                 1.4358                 1.4422
 IR Inten    --      6.7747                 2.6600                 6.3846

                     73                     74                     75
                      A                      A                      A
 Frequencies --   1530.7985              1531.8749              1535.4843
 Red. masses --      1.0569                 1.0668                 1.0540
 Frc consts  --      1.4592                 1.4749                 1.4641
 IR Inten    --      2.1822                 0.2451                 6.0222

                     76                     77                     78
                      A                      A                      A
 Frequencies --   1540.1315              1554.6366              1760.1492
 Red. masses --      1.0460                 1.0485                 5.9277
 Frc consts  --      1.4619                 1.4930                10.8202
 IR Inten    --     19.9064                 2.5259                 2.2215

                     79                     80                     81
                      A                      A                      A
 Frequencies --   2998.2435              3016.4416              3027.1102
 Red. masses --      1.0818                 1.0719                 1.0720
 Frc consts  --      5.7296                 5.7463                 5.7876
 IR Inten    --     11.9031                 5.0951                20.3035

                     82                     83                     84
                      A                      A                      A
 Frequencies --   3029.8830              3032.7068              3038.4006
 Red. masses --      1.0381                 1.0722                 1.0502
 Frc consts  --      5.6150                 5.8103                 5.7124
 IR Inten    --     43.0577                30.4798                12.6374

                     85                     86                     87
                      A                      A                      A
 Frequencies --   3039.1025              3041.1777              3046.1821
 Red. masses --      1.0454                 1.0459                 1.0407
 Frc consts  --      5.6887                 5.6994                 5.6898
 IR Inten    --     21.6890                38.5255                20.6074

                     88                     89                     90
                      A                      A                      A
 Frequencies --   3047.6551              3064.7434              3076.3389
 Red. masses --      1.0554                 1.0980                 1.1001
 Frc consts  --      5.7755                 6.0765                 6.1343
 IR Inten    --     74.7772                24.8186                29.4799

                     91                     92                     93
                      A                      A                      A
 Frequencies --   3098.0882              3102.6655              3104.1497
 Red. masses --      1.1006                 1.0959                 1.0992
 Frc consts  --      6.2241                 6.2157                 6.2402
 IR Inten    --      1.4045                17.0764                45.1446

                     94                     95                     96
                      A                      A                      A
 Frequencies --   3106.1935              3110.8224              3112.4723
 Red. masses --      1.0987                 1.0955                 1.0966
 Frc consts  --      6.2458                 6.2461                 6.2589
 IR Inten    --     71.0095                53.5184                10.2762

                     97                     98                     99
                      A                      A                      A
 Frequencies --   3114.3712              3119.2172              3123.7529
 Red. masses --      1.0909                 1.1018                 1.1011
 Frc consts  --      6.2339                 6.3161                 6.3302
 IR Inten    --     33.9029                32.7944                46.5042

                    100                    101                    102
                      A                      A                      A
 Frequencies --   3133.0501              3134.6512              3138.2262
 Red. masses --      1.0990                 1.0964                 1.0897
 Frc consts  --      6.3559                 6.3473                 6.3231
 IR Inten    --     27.9287                28.4107                61.4174

 - Thermochemistry -
 -------------------
 Temperature   298.150 Kelvin.  Pressure   1.00000 Atm.
 Atom     1 has atomic number  6 and mass  12.00000

 Molecular mass:   168.18780 amu.
 Principal axes and moments of inertia in atomic units:
                           1         2         3
     Eigenvalues --  1755.318743063.642944290.63917
           X            0.99996  -0.00715   0.00520
           Y            0.00712   0.99995   0.00644
           Z           -0.00524  -0.00641   0.99997
 This molecule is an asymmetric top.
 Rotational symmetry number  1.
 Warning -- assumption of classical behavior for rotation
           may cause significant error
 Rotational temperatures (Kelvin)      0.04934     0.02827     0.02019
 Rotational constants (GHZ):           1.02816     0.58908     0.42062
 Zero-point vibrational energy     886391.9 (Joules/Mol)
                                  211.85275 (Kcal/Mol)
 Warning -- explicit consideration of  24 degrees of freedom as
           vibrations may cause significant error
 Vibrational temperatures:     32.42    60.81    80.16   105.33   163.09
          (Kelvin)            209.34   282.10   294.21   310.58   317.63
                              322.49   350.11   355.34   404.14   426.22
                              503.30   551.66   575.64   611.55   629.45
                              666.10   673.60   718.51   783.80  1087.88
                             1166.43  1182.66  1223.72  1289.79  1313.40
                             1349.90  1367.17  1386.38  1403.15  1410.30
                             1443.46  1460.32  1500.83  1537.87  1545.39
                             1553.20  1578.47  1620.10  1650.45  1699.95
                             1714.47  1729.32  1742.57  1788.43  1838.83
                             1893.89  1904.06  1932.20  1935.93  1964.29
                             1983.52  1997.51  2017.39  2022.24  2041.15
                             2061.87  2064.55  2072.30  2074.89  2087.90
                             2169.65  2172.66  2180.50  2185.13  2190.88
                             2192.16  2197.50  2202.48  2204.03  2209.22
                             2215.91  2236.78  2532.46  4313.80  4339.99
                             4355.34  4359.33  4363.39  4371.58  4372.59
                             4375.58  4382.78  4384.90  4409.48  4426.17
                             4457.46  4464.04  4466.18  4469.12  4475.78
                             4478.15  4480.89  4487.86  4494.38  4507.76
                             4510.06  4515.21

 Zero-point correction=                           0.337609 (Hartree/Particle)
 Thermal correction to Energy=                    0.353343
 Thermal correction to Enthalpy=                  0.354288
 Thermal correction to Gibbs Free Energy=         0.294394
 Sum of electronic and zero-point Energies=           -471.452105
 Sum of electronic and thermal Energies=              -471.436370
 Sum of electronic and thermal Enthalpies=            -471.435426
 Sum of electronic and thermal Free Energies=         -471.495319

                     E (Thermal)             CV                S
                      KCal/Mol        Cal/Mol-Kelvin    Cal/Mol-Kelvin
 Total                  221.726             58.230            126.056
 Electronic               0.000              0.000              0.000
 Translational            0.889              2.981             41.268
 Rotational               0.889              2.981             31.512
 Vibrational            219.949             52.269             53.276
 Vibration     1          0.593              1.985              6.397
 Vibration     2          0.595              1.980              5.150
 Vibration     3          0.596              1.975              4.603
 Vibration     4          0.599              1.967              4.065
 Vibration     5          0.607              1.938              3.211
 Vibration     6          0.617              1.908              2.730
 Vibration     7          0.636              1.845              2.170
 Vibration     8          0.640              1.834              2.092
 Vibration     9          0.645              1.817              1.994
 Vibration    10          0.647              1.809              1.953
 Vibration    11          0.649              1.804              1.925
 Vibration    12          0.659              1.774              1.778
 Vibration    13          0.661              1.768              1.752
 Vibration    14          0.681              1.709              1.528
 Vibration    15          0.690              1.681              1.438
 Vibration    16          0.727              1.576              1.167
 Vibration    17          0.753              1.506              1.026
 Vibration    18          0.766              1.470              0.962
 Vibration    19          0.787              1.416              0.875
 Vibration    20          0.798              1.388              0.835
 Vibration    21          0.821              1.332              0.758
 Vibration    22          0.825              1.321              0.743
 Vibration    23          0.855              1.251              0.660
 Vibration    24          0.900              1.151              0.555

 Optimization completed.
    -- Stationary point found.
 Normal termination of Gaussian 16 at Wed Dec  9 18:49:19 2020.

 ----------------------------------------------------------------------
 # B3LYP/6-311++G(d,p) empiricaldispersion=gd3bj scf=xqc pop=npa geom=c
 heck
 ----------------------------------------------------------------------

 --------------------------------------
 CID_91212819_JID_2961_Energie_neutraal
 --------------------------------------
 Structure from the checkpoint file:  "JID_2961.chk"
 Charge =  0 Multiplicity = 1

 SCF Done:  E(RB3LYP) =  -471.921576445     A.U. after   13 cycles
 Normal termination of Gaussian 16 at Wed Dec  9 18:52:57 2020.

 ----------------------------------------------------------------------
 # B3LYP/6-311++G(d,p) empiricaldispersion=gd3bj scf=xqc pop=npa geom=c
 heck
 ----------------------------------------------------------------------

 ------------------------------------
 CID_91212819_JID_2961_Energie_kation
 ------------------------------------
 Structure from the checkpoint file:  "JID_2961.chk"
 Charge =  1 Multiplicity = 2

 SCF Done:  E(UB3LYP) =  -471.601749882     A.U. after   20 cycles
 Normal termination of Gaussian 16 at Wed Dec  9 19:00:11 2020.
 Gaussian 16:  ES64L-G16RevA.03 25-Dec-2016

 ----------------------------------------------------------------------
 # B3LYP/6-311++G(d,p) empiricaldispersion=gd3bj scf=xqc pop=npa geom=c
 heck
 ----------------------------------------------------------------------

 -----------------------------------
 CID_91212819_JID_2961_Energie_anion
 -----------------------------------
 Structure from the checkpoint file:  "JID_2961.chk"
 Charge = -1 Multiplicity = 2

                         Standard orientation:
 ---------------------------------------------------------------------
 Center     Atomic      Atomic             Coordinates (Angstroms)
 Number     Number       Type             X           Y           Z
 ---------------------------------------------------------------------
      1          6           0        2.027663    3.004409   -0.117791
      2          6           0        1.766729    1.588722   -0.541792
      3          6           0        2.132191    0.499639    0.137589
      4          6           0        1.845432   -0.921119   -0.270066
      5          6           0        3.150296   -1.707140   -0.479135
      6          6           0        0.954089   -1.628712    0.774678
      7          6           0       -0.349975   -0.891395    1.112872
      8          6           0       -1.308285   -0.641346   -0.069672
      9          6           0       -1.868548   -1.974123   -0.586966
     10          6           0       -2.420642    0.367217    0.322921
     11          6           0       -1.855812    1.782158    0.528953
     12          6           0       -3.558296    0.433212   -0.706905
     13          1           0        2.579530    3.043591    0.827492
     14          1           0        1.086720    3.555304    0.015806
     15          1           0        2.608047    3.550396   -0.873615
     16          1           0        1.223946    1.460484   -1.480087
     17          1           0        2.672874    0.620750    1.080339
     18          1           0        1.308187   -0.898551   -1.227514
     19          1           0        3.741072   -1.734933    0.445159
     20          1           0        2.941795   -2.742956   -0.772601
     21          1           0        3.767566   -1.246255   -1.257480
     22          1           0        0.745344   -2.646992    0.422227
     23          1           0        1.533846   -1.746082    1.701674
     24          1           0       -0.891709   -1.464061    1.879679
     25          1           0       -0.083011    0.063286    1.575477
     26          1           0       -0.739353   -0.175829   -0.887204
     27          1           0       -2.525174   -2.438068    0.160953
     28          1           0       -2.444386   -1.849548   -1.508334
     29          1           0       -1.063123   -2.683730   -0.802508
     30          1           0       -2.852315    0.026660    1.277619
     31          1           0       -1.444929    2.168995   -0.412462
     32          1           0       -2.644361    2.470051    0.855197
     33          1           0       -1.055834    1.816450    1.273397
     34          1           0       -4.105447   -0.510617   -0.785277
     35          1           0       -4.279494    1.211739   -0.432681
     36          1           0       -3.168841    0.680770   -1.703380
 ---------------------------------------------------------------------

 SCF Done:  E(UB3LYP) =  -471.903595102     A.U. after   33 cycles
 SCF Done:  E(UB3LYP) =  -471.903595102     a.u. after    1 cycles

 The electronic state is 2-A.
 Alpha  occ. eigenvalues --  -10.07787 -10.07161 -10.07105 -10.06879 -10.06707
 Alpha  occ. eigenvalues --  -10.06591 -10.06580 -10.06357 -10.05975 -10.05544
 Alpha  occ. eigenvalues --  -10.05465 -10.05377  -0.73345  -0.71326  -0.67582
 Alpha  occ. eigenvalues --   -0.64981  -0.61138  -0.58592  -0.58110  -0.54567
 Alpha  occ. eigenvalues --   -0.50668  -0.47429  -0.46016  -0.44091  -0.38086
 Alpha  occ. eigenvalues --   -0.35993  -0.35533  -0.34782  -0.33733  -0.31933
 Alpha  occ. eigenvalues --   -0.31739  -0.31294  -0.30794  -0.30233  -0.29447
 Alpha  occ. eigenvalues --   -0.28405  -0.27466  -0.26512  -0.26241  -0.25359
 Alpha  occ. eigenvalues --   -0.25036  -0.24532  -0.23128  -0.22558  -0.21289
 Alpha  occ. eigenvalues --   -0.20554  -0.20504  -0.14909   0.04556
 Alpha virt. eigenvalues --    0.06544   0.06651   0.07213   0.08185   0.08732
 Alpha virt. eigenvalues --    0.08983   0.09296   0.09705   0.10557   0.10794
 Alpha virt. eigenvalues --    0.11055   0.11529   0.11683   0.12358   0.12460

  Beta  occ. eigenvalues --  -10.07783 -10.07152 -10.07099 -10.06876 -10.06675
  Beta  occ. eigenvalues --  -10.06583 -10.06566 -10.06335 -10.05966 -10.05516
  Beta  occ. eigenvalues --  -10.05439 -10.05357  -0.73327  -0.71306  -0.67556
  Beta  occ. eigenvalues --   -0.64953  -0.61103  -0.58545  -0.58061  -0.54520
  Beta  occ. eigenvalues --   -0.50621  -0.47380  -0.45975  -0.44052  -0.38063
  Beta  occ. eigenvalues --   -0.35955  -0.35508  -0.34754  -0.33697  -0.31900
  Beta  occ. eigenvalues --   -0.31706  -0.31262  -0.30757  -0.30198  -0.29421
  Beta  occ. eigenvalues --   -0.28377  -0.27438  -0.26486  -0.26205  -0.25330
  Beta  occ. eigenvalues --   -0.25008  -0.24495  -0.23097  -0.22530  -0.21261
  Beta  occ. eigenvalues --   -0.20530  -0.20483  -0.14894
  Beta virt. eigenvalues --    0.06535   0.07301   0.07363   0.07671   0.08629
  Beta virt. eigenvalues --    0.09204   0.09425   0.09723   0.10086   0.10711
  Beta virt. eigenvalues --    0.11199   0.11413   0.11938   0.11983   0.12694

 Mulliken charges and spin densities:
               1          2
     1  C    1.580995  -2.316921
     2  C   -1.579694   1.557193
     3  C    0.948797  -1.101307
     4  C   -1.094485   1.516183
     5  C    0.519165  -1.236992
     6  C    1.179027  -1.940296
     7  C   -1.149075   1.111779
     8  C    0.912763  -0.514495
     9  C    1.104310  -1.859495
    10  C   -1.678579   2.050195
    11  C    0.176391  -0.961664
    12  C    0.375266  -0.996083
    13  H   -0.253525   0.388929
    14  H   -0.208508   0.357018
    15  H   -0.238257   0.377814
    16  H   -0.332450   0.476210
    17  H   -0.182393   0.346135
    18  H    0.018153   0.179113
    19  H   -0.057408   0.200343
    20  H   -0.163172   0.298394
    21  H   -0.066123   0.208179
    22  H    0.018543   0.112546
    23  H    0.029411   0.123928
    24  H   -0.140954   0.320176
    25  H    0.057092   0.032208
    26  H    0.296230  -0.238705
    27  H   -0.062341   0.218644
    28  H   -0.201172   0.341307
    29  H   -0.152605   0.275603
    30  H   -0.090692   0.238128
    31  H    0.127057   0.018184
    32  H   -0.199015   0.345981
    33  H    0.026241   0.117829
    34  H   -0.143663   0.284053
    35  H   -0.162798   0.298198
    36  H   -0.212531   0.371691
 Sum of Mulliken charges =  -1.00000   1.00000

 Dipole moment (field-independent basis, Debye):
    X=              0.6517    Y=             -1.3901    Z=              1.1789  Tot=              1.9357
 Quadrupole moment (field-independent basis, Debye-Ang):
   XX=           -152.2277   YY=           -141.4424   ZZ=           -115.1445
   XY=             -3.1086   XZ=             -1.7750   YZ=             -1.6638

 Summary of Natural Population Analysis:

                                       Natural Population
                Natural  -----------------------------------------------
    Atom  No    Charge         Core      Valence    Rydberg      Total
 -----------------------------------------------------------------------
      C    1   -0.29950      0.99965     2.29381    0.00604     3.29950
      C    2   -0.08773      0.99951     2.07913    0.00910     3.08773
      C    3   -0.09115      0.99949     2.08041    0.01125     3.09115
      C    4   -0.13012      0.99958     2.11934    0.01120     3.13012
      C    5   -0.27663      0.99965     2.27242    0.00456     3.27663
      C    6   -0.18248      0.99961     2.17421    0.00866     3.18248
      C    7   -0.18808      0.99961     2.18007    0.00841     3.18808
      C    8   -0.11362      0.99958     2.10365    0.01039     3.11362
      C    9   -0.28625      0.99965     2.28036    0.00625     3.28625
      C   10   -0.10828      0.99960     2.09915    0.00952     3.10828
      C   11   -0.28255      0.99965     2.27690    0.00601     3.28255
      C   12   -0.28516      0.99965     2.27975    0.00576     3.28516
      H   13    0.09968      0.00000     0.39924    0.00109     0.40032
      H   14    0.10368      0.00000     0.39507    0.00124     0.39632
      H   15    0.10189      0.00000     0.39691    0.00120     0.39811
      H   16    0.08968      0.00000     0.40871    0.00161     0.41032
      H   17    0.08999      0.00000     0.40887    0.00114     0.41001
      H   18    0.09601      0.00000     0.40171    0.00228     0.40399
      H   19    0.09530      0.00000     0.40355    0.00116     0.40470
      H   20    0.09851      0.00000     0.40039    0.00110     0.40149
      H   21    0.10011      0.00000     0.39891    0.00098     0.39989
      H   22    0.09717      0.00000     0.40166    0.00117     0.40283
      H   23    0.09532      0.00000     0.40360    0.00108     0.40468
      H   24    0.09535      0.00000     0.40352    0.00113     0.40465
      H   25    0.10116      0.00000     0.39728    0.00156     0.39884
      H   26    0.09276      0.00000     0.40423    0.00301     0.40724
      H   27    0.09596      0.00000     0.40301    0.00103     0.40404
      H   28    0.10092      0.00000     0.39814    0.00094     0.39908
      H   29    0.09930      0.00000     0.39969    0.00101     0.40070
      H   30    0.08958      0.00000     0.40876    0.00165     0.41042
      H   31    0.09639      0.00000     0.40235    0.00126     0.40361
      H   32    0.09732      0.00000     0.40182    0.00086     0.40268
      H   33    0.10014      0.00000     0.39873    0.00113     0.39986
      H   34    0.10036      0.00000     0.39863    0.00102     0.39964
      H   35    0.09857      0.00000     0.40047    0.00096     0.40143
      H   36    0.09642      0.00000     0.40253    0.00105     0.40358
 =======================================================================
   * Total *    0.00000     11.99522    35.87698    0.12780    48.00000

 Normal termination of Gaussian 16 at Wed Dec  9 19:12:08 2020.
