 Gaussian 16, Revision A.03,

 -----------------------------------------------------------
 # opt freq B3LYP/6-31G(d) empiricaldispersion=gd3bj scf=xqc
 -----------------------------------------------------------

 ------------------------------
 CID_90296453_JID_3575_neutraal
 ------------------------------
 Symbolic Z-matrix:
 Charge =  0 Multiplicity = 1

 SCF Done:  E(RB3LYP) =  -547.012336097     A.U. after   13 cycles
 SCF Done:  E(RB3LYP) =  -547.014724189     A.U. after   11 cycles
 SCF Done:  E(RB3LYP) =  -547.014677450     A.U. after   11 cycles
 SCF Done:  E(RB3LYP) =  -547.014103146     A.U. after   11 cycles
 SCF Done:  E(RB3LYP) =  -547.012637692     A.U. after   10 cycles
 SCF Done:  E(RB3LYP) =  -547.015247068     A.U. after    8 cycles
 SCF Done:  E(RB3LYP) =  -547.016598408     A.U. after   10 cycles
 SCF Done:  E(RB3LYP) =  -547.016376815     A.U. after   11 cycles
 SCF Done:  E(RB3LYP) =  -547.016899993     A.U. after   10 cycles
 SCF Done:  E(RB3LYP) =  -547.016896793     A.U. after   10 cycles
 SCF Done:  E(RB3LYP) =  -547.017008235     A.U. after   10 cycles
 SCF Done:  E(RB3LYP) =  -547.017033925     A.U. after    9 cycles
 SCF Done:  E(RB3LYP) =  -547.017037854     A.U. after    7 cycles
 SCF Done:  E(RB3LYP) =  -547.017038383     A.U. after    7 cycles
 SCF Done:  E(RB3LYP) =  -547.017038597     A.U. after    7 cycles
 Optimization completed.
    -- Stationary point found.
 Normal termination of Gaussian 16 at Sun Dec 13 16:01:38 2020.

 --------------------------------------------------------------------
 #N Geom=AllCheck Guess=TCheck SCRF=Check GenChk RB3LYP/6-31G(d) Freq
 --------------------------------------------------------------------

 Structure from the checkpoint file:  "JID_3575.chk"
 ------------------------------
 CID_90296453_JID_3575_neutraal
 ------------------------------
 Charge =  0 Multiplicity = 1

 SCF Done:  E(RB3LYP) =  -547.017038597     A.U. after    1 cycles

  Exact polarizability: 145.489  -0.466 117.789  -0.501   0.127 115.315
 Approx polarizability: 180.488  -1.158 176.225  -0.689   2.181 171.262

                      1                      2                      3
                      A                      A                      A
 Frequencies --     60.8275                94.6407               118.1934
 Red. masses --      3.3216                 2.6085                 2.6851
 Frc consts  --      0.0072                 0.0138                 0.0221
 IR Inten    --      0.1824                 0.0379                 0.0285

                      4                      5                      6
                      A                      A                      A
 Frequencies --    211.1115               223.6009               236.5754
 Red. masses --      1.1191                 3.0297                 2.4290
 Frc consts  --      0.0294                 0.0892                 0.0801
 IR Inten    --      0.1281                 0.2324                 0.5820

                      7                      8                      9
                      A                      A                      A
 Frequencies --    256.4806               266.9257               295.9945
 Red. masses --      3.0272                 2.1551                 1.4880
 Frc consts  --      0.1173                 0.0905                 0.0768
 IR Inten    --      0.7537                 0.0423                 0.0792

                     10                     11                     12
                      A                      A                      A
 Frequencies --    304.5317               316.1943               325.0558
 Red. masses --      2.0294                 1.2115                 1.8112
 Frc consts  --      0.1109                 0.0714                 0.1128
 IR Inten    --      0.8999                 0.4094                 3.5367

                     13                     14                     15
                      A                      A                      A
 Frequencies --    328.2277               340.5790               359.6940
 Red. masses --      1.1538                 1.3079                 1.3932
 Frc consts  --      0.0732                 0.0894                 0.1062
 IR Inten    --     73.4465                10.0185                 2.7976

                     16                     17                     18
                      A                      A                      A
 Frequencies --    379.3109               387.2337               423.4852
 Red. masses --      2.6891                 2.6849                 2.3619
 Frc consts  --      0.2280                 0.2372                 0.2496
 IR Inten    --      5.4616                 2.9769                 1.9114

                     19                     20                     21
                      A                      A                      A
 Frequencies --    439.7086               446.5456               468.2184
 Red. masses --      1.9742                 2.6422                 3.8047
 Frc consts  --      0.2249                 0.3104                 0.4914
 IR Inten    --      1.0441                 1.2186                 2.5960

                     22                     23                     24
                      A                      A                      A
 Frequencies --    481.1964               517.6859               566.7386
 Red. masses --      1.8395                 2.9588                 2.5402
 Frc consts  --      0.2510                 0.4672                 0.4807
 IR Inten    --      0.0386                 7.5425                 3.2423

                     25                     26                     27
                      A                      A                      A
 Frequencies --    597.0913               701.5531               742.7086
 Red. masses --      2.3517                 2.8694                 2.8410
 Frc consts  --      0.4940                 0.8321                 0.9233
 IR Inten    --      4.2343                 1.1592                 0.5064

                     28                     29                     30
                      A                      A                      A
 Frequencies --    783.5532               829.8130               868.9893
 Red. masses --      1.4629                 2.2100                 2.1106
 Frc consts  --      0.5292                 0.8966                 0.9391
 IR Inten    --      0.7646                 1.7669                 2.8166

                     31                     32                     33
                      A                      A                      A
 Frequencies --    879.9297               921.1776               936.3436
 Red. masses --      1.8266                 2.2193                 1.9002
 Frc consts  --      0.8333                 1.1096                 0.9815
 IR Inten    --      5.2439                 5.7479                 1.9573

                     34                     35                     36
                      A                      A                      A
 Frequencies --    943.8033               950.3177               951.8672
 Red. masses --      1.8220                 1.7568                 1.4139
 Frc consts  --      0.9562                 0.9348                 0.7548
 IR Inten    --      6.2651                 2.3539                 1.4497

                     37                     38                     39
                      A                      A                      A
 Frequencies --    976.0600               990.0803              1010.2910
 Red. masses --      1.2128                 2.4792                 1.4327
 Frc consts  --      0.6807                 1.4319                 0.8616
 IR Inten    --      0.7167                25.9201                 1.1476

                     40                     41                     42
                      A                      A                      A
 Frequencies --   1042.8114              1053.5071              1060.1180
 Red. masses --      1.7502                 1.7741                 2.0110
 Frc consts  --      1.1214                 1.1601                 1.3316
 IR Inten    --      3.1229                 4.0062                25.5831

                     43                     44                     45
                      A                      A                      A
 Frequencies --   1063.7491              1094.4045              1115.1659
 Red. masses --      1.8271                 1.6010                 2.5517
 Frc consts  --      1.2181                 1.1298                 1.8696
 IR Inten    --     15.7236                 3.1981                 2.2088

                     46                     47                     48
                      A                      A                      A
 Frequencies --   1125.2724              1142.9867              1164.9256
 Red. masses --      1.7865                 1.4310                 1.4676
 Frc consts  --      1.3328                 1.1015                 1.1734
 IR Inten    --      3.1351                 2.4711                11.8123

                     49                     50                     51
                      A                      A                      A
 Frequencies --   1170.5057              1219.2746              1254.6609
 Red. masses --      2.0456                 1.6255                 2.3242
 Frc consts  --      1.6513                 1.4238                 2.1557
 IR Inten    --     25.0678                10.3016                 8.8530

                     52                     53                     54
                      A                      A                      A
 Frequencies --   1261.7490              1268.0199              1281.3098
 Red. masses --      2.1334                 1.6027                 2.1364
 Frc consts  --      2.0011                 1.5183                 2.0665
 IR Inten    --     15.1744                 4.7528                14.8725

                     55                     56                     57
                      A                      A                      A
 Frequencies --   1299.9081              1320.8160              1365.9842
 Red. masses --      1.2874                 1.2325                 1.3318
 Frc consts  --      1.2817                 1.2669                 1.4641
 IR Inten    --      0.5557                 2.1113                 0.5792

                     58                     59                     60
                      A                      A                      A
 Frequencies --   1373.7348              1377.0327              1390.6925
 Red. masses --      1.3159                 1.7038                 1.3666
 Frc consts  --      1.4631                 1.9035                 1.5572
 IR Inten    --      0.5098                30.8803                 2.7875

                     61                     62                     63
                      A                      A                      A
 Frequencies --   1392.1764              1402.5551              1413.5889
 Red. masses --      1.3488                 1.4408                 1.4041
 Frc consts  --      1.5402                 1.6700                 1.6531
 IR Inten    --      1.2501                 0.3180                 0.4389

                     64                     65                     66
                      A                      A                      A
 Frequencies --   1420.6721              1424.0155              1431.4664
 Red. masses --      1.2637                 1.2577                 1.3447
 Frc consts  --      1.5027                 1.5027                 1.6234
 IR Inten    --      4.8993                 2.3954                23.2335

                     67                     68                     69
                      A                      A                      A
 Frequencies --   1443.4882              1458.9466              1504.3074
 Red. masses --      1.2329                 1.2192                 1.0819
 Frc consts  --      1.5136                 1.5290                 1.4424
 IR Inten    --      1.9611                16.9783                 2.7863

                     70                     71                     72
                      A                      A                      A
 Frequencies --   1510.5958              1513.9280              1518.5420
 Red. masses --      1.0601                 1.0831                 1.0592
 Frc consts  --      1.4253                 1.4626                 1.4390
 IR Inten    --      0.4255                 2.5396                 1.7268

                     73                     74                     75
                      A                      A                      A
 Frequencies --   1519.3590              1523.4434              1530.8799
 Red. masses --      1.0796                 1.0662                 1.0498
 Frc consts  --      1.4683                 1.4579                 1.4496
 IR Inten    --      4.3012                 6.7255                 3.7089

                     76                     77                     78
                      A                      A                      A
 Frequencies --   1535.7763              1538.9723              1543.6287
 Red. masses --      1.0602                 1.0809                 1.0662
 Frc consts  --      1.4733                 1.5083                 1.4969
 IR Inten    --      3.3862                 3.8107                 4.3509

                     79                     80                     81
                      A                      A                      A
 Frequencies --   1553.4604              1556.6741              1569.3506
 Red. masses --      1.0528                 1.0561                 1.0528
 Frc consts  --      1.4970                 1.5078                 1.5277
 IR Inten    --      2.1474                18.1522                 4.1826

                     82                     83                     84
                      A                      A                      A
 Frequencies --   2997.1279              3010.2235              3017.4862
 Red. masses --      1.0718                 1.0741                 1.0823
 Frc consts  --      5.6727                 5.7342                 5.8063
 IR Inten    --     16.7263                42.1136                15.5882

                     85                     86                     87
                      A                      A                      A
 Frequencies --   3019.4506              3036.6899              3039.7429
 Red. masses --      1.0685                 1.0422                 1.0382
 Frc consts  --      5.7396                 5.6627                 5.6522
 IR Inten    --     39.4486                30.5568                30.5921

                     88                     89                     90
                      A                      A                      A
 Frequencies --   3047.3408              3049.4369              3053.1626
 Red. masses --      1.0410                 1.0649                 1.0711
 Frc consts  --      5.6955                 5.8344                 5.8826
 IR Inten    --     33.7468                27.8180                43.7993

                     91                     92                     93
                      A                      A                      A
 Frequencies --   3071.4037              3073.2874              3082.1465
 Red. masses --      1.0513                 1.0913                 1.0916
 Frc consts  --      5.8434                 6.0729                 6.1098
 IR Inten    --     19.7442                55.6778                36.7639

                     94                     95                     96
                      A                      A                      A
 Frequencies --   3088.9996              3091.9053              3092.9151
 Red. masses --      1.1008                 1.0987                 1.1008
 Frc consts  --      6.1885                 6.1885                 6.2041
 IR Inten    --     20.9404                48.4261                40.1806

                     97                     98                     99
                      A                      A                      A
 Frequencies --   3105.9414              3115.2563              3121.5869
 Red. masses --      1.1003                 1.0914                 1.1006
 Frc consts  --      6.2541                 6.2403                 6.3188
 IR Inten    --     75.7850                34.7035                42.4606

                    100                    101                    102
                      A                      A                      A
 Frequencies --   3127.6730              3146.0421              3158.9174
 Red. masses --      1.0897                 1.0934                 1.0970
 Frc consts  --      6.2808                 6.3761                 6.4497
 IR Inten    --     42.0502                30.6727                11.8464

                    103                    104                    105
                      A                      A                      A
 Frequencies --   3176.7808              3200.6026              3731.4066
 Red. masses --      1.0951                 1.0929                 1.0658
 Frc consts  --      6.5117                 6.5962                 8.7433
 IR Inten    --     25.1638                 5.8335                 3.4114

 - Thermochemistry -
 -------------------
 Temperature   298.150 Kelvin.  Pressure   1.00000 Atm.
 Atom     1 has atomic number  6 and mass  12.00000

 Molecular mass:   184.18272 amu.
 Principal axes and moments of inertia in atomic units:
                           1         2         3
     Eigenvalues --  1311.604923432.210043614.32142
           X            1.00000  -0.00285  -0.00046
           Y            0.00285   0.99996  -0.00809
           Z            0.00048   0.00809   0.99997
 This molecule is an asymmetric top.
 Rotational symmetry number  1.
 Warning -- assumption of classical behavior for rotation
           may cause significant error
 Rotational temperatures (Kelvin)      0.06604     0.02524     0.02396
 Rotational constants (GHZ):           1.37598     0.52582     0.49933
 Zero-point vibrational energy     911197.4 (Joules/Mol)
                                  217.78142 (Kcal/Mol)
 Warning -- explicit consideration of  25 degrees of freedom as
           vibrations may cause significant error
 Vibrational temperatures:     87.52   136.17   170.05   303.74   321.71
          (Kelvin)            340.38   369.02   384.05   425.87   438.15
                              454.93   467.68   472.25   490.02   517.52
                              545.74   557.14   609.30   632.64   642.48
                              673.66   692.33   744.83   815.41   859.08
                             1009.38  1068.59  1127.36  1193.92  1250.28
                             1266.02  1325.37  1347.19  1357.92  1367.30
                             1369.52  1404.33  1424.50  1453.58  1500.37
                             1515.76  1525.27  1530.50  1574.60  1604.48
                             1619.02  1644.50  1676.07  1684.10  1754.26
                             1805.18  1815.38  1824.40  1843.52  1870.28
                             1900.36  1965.35  1976.50  1981.24  2000.90
                             2003.03  2017.96  2033.84  2044.03  2048.84
                             2059.56  2076.86  2099.10  2164.36  2173.41
                             2178.20  2184.84  2186.02  2191.90  2202.59
                             2209.64  2214.24  2220.94  2235.08  2239.71
                             2257.95  4312.20  4331.04  4341.49  4344.32
                             4369.12  4373.51  4384.44  4387.46  4392.82
                             4419.06  4421.78  4434.52  4444.38  4448.56
                             4450.02  4468.76  4482.16  4491.27  4500.02
                             4526.45  4544.98  4570.68  4604.95  5368.66

 Zero-point correction=                           0.347057 (Hartree/Particle)
 Thermal correction to Energy=                    0.361225
 Thermal correction to Enthalpy=                  0.362170
 Thermal correction to Gibbs Free Energy=         0.308522
 Sum of electronic and zero-point Energies=           -546.669982
 Sum of electronic and thermal Energies=              -546.655813
 Sum of electronic and thermal Enthalpies=            -546.654869
 Sum of electronic and thermal Free Energies=         -546.708517

                     E (Thermal)             CV                S
                      KCal/Mol        Cal/Mol-Kelvin    Cal/Mol-Kelvin
 Total                  226.672             58.624            112.911
 Electronic               0.000              0.000              0.000
 Translational            0.889              2.981             41.539
 Rotational               0.889              2.981             31.165
 Vibrational            224.895             52.662             40.207
 Vibration     1          0.597              1.973              4.430
 Vibration     2          0.603              1.953              3.562
 Vibration     3          0.608              1.934              3.130
 Vibration     4          0.643              1.824              2.034
 Vibration     5          0.649              1.805              1.930
 Vibration     6          0.655              1.785              1.828
 Vibration     7          0.666              1.752              1.686
 Vibration     8          0.672              1.734              1.616
 Vibration     9          0.690              1.681              1.439
 Vibration    10          0.695              1.665              1.392
 Vibration    11          0.703              1.643              1.330
 Vibration    12          0.709              1.625              1.285
 Vibration    13          0.711              1.619              1.269
 Vibration    14          0.720              1.594              1.209
 Vibration    15          0.734              1.555              1.123
 Vibration    16          0.749              1.514              1.042
 Vibration    17          0.756              1.497              1.011
 Vibration    18          0.786              1.419              0.880
 Vibration    19          0.800              1.384              0.828
 Vibration    20          0.806              1.369              0.806
 Vibration    21          0.825              1.321              0.743
 Vibration    22          0.837              1.292              0.707
 Vibration    23          0.873              1.211              0.615
 Vibration    24          0.923              1.103              0.511
 Vibration    25          0.955              1.038              0.455

 Optimization completed.
    -- Stationary point found.
 Normal termination of Gaussian 16 at Sun Dec 13 16:13:03 2020.

 ----------------------------------------------------------------------
 # B3LYP/6-311++G(d,p) empiricaldispersion=gd3bj scf=xqc pop=npa geom=c
 heck
 ----------------------------------------------------------------------

 --------------------------------------
 CID_90296453_JID_3575_Energie_neutraal
 --------------------------------------
 Structure from the checkpoint file:  "JID_3575.chk"
 Charge =  0 Multiplicity = 1

 SCF Done:  E(RB3LYP) =  -547.176481944     A.U. after   14 cycles
 Normal termination of Gaussian 16 at Sun Dec 13 16:18:03 2020.

 ----------------------------------------------------------------------
 # B3LYP/6-311++G(d,p) empiricaldispersion=gd3bj scf=xqc pop=npa geom=c
 heck
 ----------------------------------------------------------------------

 ------------------------------------
 CID_90296453_JID_3575_Energie_kation
 ------------------------------------
 Structure from the checkpoint file:  "JID_3575.chk"
 Charge =  1 Multiplicity = 2

 SCF Done:  E(UB3LYP) =  -546.842910512     A.U. after   24 cycles
 Normal termination of Gaussian 16 at Sun Dec 13 16:28:52 2020.
 Gaussian 16:  ES64L-G16RevA.03 25-Dec-2016

 ----------------------------------------------------------------------
 # B3LYP/6-311++G(d,p) empiricaldispersion=gd3bj scf=xqc pop=npa geom=c
 heck
 ----------------------------------------------------------------------

 -----------------------------------
 CID_90296453_JID_3575_Energie_anion
 -----------------------------------
 Structure from the checkpoint file:  "JID_3575.chk"
 Charge = -1 Multiplicity = 2

                         Standard orientation:
 ---------------------------------------------------------------------
 Center     Atomic      Atomic             Coordinates (Angstroms)
 Number     Number       Type             X           Y           Z
 ---------------------------------------------------------------------
      1          6           0        0.230857   -1.761432   -0.572679
      2          6           0        0.652606   -0.281280   -0.580161
      3          6           0       -0.471783    0.640574    0.027549
      4          6           0       -1.555785    0.997028   -1.026037
      5          6           0       -2.687828   -0.016909   -1.233846
      6          6           0       -3.359028   -0.357019    0.101701
      7          6           0       -2.340335   -0.868306    1.126985
      8          6           0       -1.163837    0.106983    1.313634
      9          8           0        0.177663    1.881837    0.368527
     10          6           0        2.122225   -0.096599   -0.024064
     11          6           0        3.016823   -1.259102   -0.512311
     12          6           0        2.761311    1.189568   -0.591507
     13          6           0        2.189828   -0.073160    1.513136
     14          1           0        0.263816   -2.191190    0.434491
     15          1           0        0.892132   -2.354935   -1.206153
     16          1           0       -0.778343   -1.900586   -0.958523
     17          1           0        0.722153    0.014467   -1.636254
     18          1           0       -2.028709    1.928343   -0.676144
     19          1           0       -1.063038    1.246165   -1.972652
     20          1           0       -2.316232   -0.929680   -1.712880
     21          1           0       -3.423458    0.409472   -1.927449
     22          1           0       -4.154268   -1.098148   -0.044440
     23          1           0       -3.843100    0.549739    0.494281
     24          1           0       -1.982134   -1.855736    0.823137
     25          1           0       -2.829537   -1.009885    2.099051
     26          1           0       -0.419604   -0.318182    1.991403
     27          1           0       -1.561743    0.995963    1.826269
     28          1           0       -0.514703    2.481933    0.686828
     29          1           0        2.964073   -1.381272   -1.601347
     30          1           0        4.060353   -1.042889   -0.256720
     31          1           0        2.759564   -2.215834   -0.047817
     32          1           0        2.214599    2.081666   -0.294250
     33          1           0        3.797652    1.276326   -0.241788
     34          1           0        2.787084    1.150545   -1.688335
     35          1           0        1.663800    0.792536    1.918968
     36          1           0        1.761601   -0.983772    1.949941
     37          1           0        3.236409   -0.021823    1.837766
 ---------------------------------------------------------------------

 SCF Done:  E(UB3LYP) =  -547.161142149     A.U. after   28 cycles

 The electronic state is 2-A.
 Alpha  occ. eigenvalues --  -19.01176 -10.12517 -10.08199 -10.07387 -10.05975
 Alpha  occ. eigenvalues --  -10.05886 -10.05799 -10.05773 -10.05720 -10.05673
 Alpha  occ. eigenvalues --  -10.05526 -10.04895 -10.04431  -0.91870  -0.73056
 Alpha  occ. eigenvalues --   -0.71314  -0.65318  -0.63958  -0.61124  -0.58145
 Alpha  occ. eigenvalues --   -0.57895  -0.53850  -0.51159  -0.48464  -0.45395
 Alpha  occ. eigenvalues --   -0.42002  -0.40073  -0.36616  -0.36303  -0.35158
 Alpha  occ. eigenvalues --   -0.34174  -0.33483  -0.32120  -0.31429  -0.30570
 Alpha  occ. eigenvalues --   -0.29629  -0.29081  -0.28324  -0.27533  -0.27057
 Alpha  occ. eigenvalues --   -0.26495  -0.25662  -0.24749  -0.24403  -0.23591
 Alpha  occ. eigenvalues --   -0.22540  -0.21562  -0.21453  -0.20682  -0.20582
 Alpha  occ. eigenvalues --   -0.18468  -0.15997   0.04579
 Alpha virt. eigenvalues --    0.06610   0.07230   0.07561   0.08679   0.09023
 Alpha virt. eigenvalues --    0.09121   0.09736   0.10220   0.11126   0.11282
 Alpha virt. eigenvalues --    0.11422   0.12031   0.12178   0.13213   0.13632

  Beta  occ. eigenvalues --  -19.01152 -10.12520 -10.08197 -10.07378 -10.05956
  Beta  occ. eigenvalues --  -10.05862 -10.05777 -10.05755 -10.05703 -10.05647
  Beta  occ. eigenvalues --  -10.05509 -10.04878 -10.04422  -0.91828  -0.73033
  Beta  occ. eigenvalues --   -0.71286  -0.65291  -0.63914  -0.61082  -0.58112
  Beta  occ. eigenvalues --   -0.57868  -0.53803  -0.51097  -0.48412  -0.45330
  Beta  occ. eigenvalues --   -0.41955  -0.40016  -0.36587  -0.36265  -0.35129
  Beta  occ. eigenvalues --   -0.34144  -0.33460  -0.32087  -0.31403  -0.30537
  Beta  occ. eigenvalues --   -0.29602  -0.29053  -0.28303  -0.27504  -0.27020
  Beta  occ. eigenvalues --   -0.26473  -0.25636  -0.24717  -0.24370  -0.23556
  Beta  occ. eigenvalues --   -0.22505  -0.21526  -0.21420  -0.20654  -0.20556
  Beta  occ. eigenvalues --   -0.18439  -0.15969
  Beta virt. eigenvalues --    0.06573   0.07506   0.07870   0.08248   0.09149
  Beta virt. eigenvalues --    0.09429   0.09499   0.10194   0.10487   0.11411
  Beta virt. eigenvalues --    0.11629   0.11803   0.12404   0.12620   0.13526

 Mulliken charges and spin densities:
               1          2
     1  C    0.036253  -0.942272
     2  C    1.461996  -1.065206
     3  C   -0.700904   0.384230
     4  C    0.183934  -0.380720
     5  C    0.331597  -0.554216
     6  C    0.907181  -1.542129
     7  C   -0.375650   0.237512
     8  C   -0.131568  -0.136500
     9  O   -0.127519   0.000576
    10  C   -0.885700   1.398692
    11  C    0.258118  -0.814386
    12  C   -0.491815  -0.093133
    13  C    0.324695  -1.010967
    14  H   -0.016256   0.214228
    15  H    0.039415   0.106554
    16  H    0.264642  -0.167950
    17  H    0.302250  -0.092328
    18  H   -0.404974   0.524309
    19  H   -0.172546   0.343089
    20  H   -0.173702   0.293721
    21  H   -0.405343   0.596849
    22  H   -0.280420   0.453239
    23  H   -0.097193   0.232012
    24  H   -0.078913   0.194008
    25  H   -0.449330   0.635733
    26  H    0.044017   0.101200
    27  H   -0.486927   0.617849
    28  H    0.037784   0.228203
    29  H   -0.085015   0.236669
    30  H    0.098449   0.038004
    31  H   -0.101737   0.245856
    32  H    0.186467  -0.011744
    33  H    0.001887   0.123997
    34  H   -0.051827   0.166738
    35  H    0.062825   0.137058
    36  H   -0.050822   0.186713
    37  H    0.026653   0.114510
 Sum of Mulliken charges =  -1.00000   1.00000

 Dipole moment (field-independent basis, Debye):
    X=              4.5999    Y=             -1.2442    Z=             -0.8367  Tot=              4.8381
 Quadrupole moment (field-independent basis, Debye-Ang):
   XX=           -156.7631   YY=           -125.0155   ZZ=           -126.8999
   XY=              4.5857   XZ=              1.7860   YZ=              0.8632

 Summary of Natural Population Analysis:

                                       Natural Population
                Natural  -----------------------------------------------
    Atom  No    Charge         Core      Valence    Rydberg      Total
 -----------------------------------------------------------------------
      C    1   -0.29063      0.99964     2.28468    0.00632     3.29063
      C    2   -0.10410      0.99952     2.09156    0.01302     3.10410
      C    3    0.14003      0.99950     1.84387    0.01660     2.85997
      C    4   -0.19710      0.99958     2.18635    0.01117     3.19710
      C    5   -0.18954      0.99962     2.18140    0.00852     3.18954
      C    6   -0.18763      0.99963     2.18000    0.00801     3.18763
      C    7   -0.19048      0.99962     2.18230    0.00856     3.19048
      C    8   -0.20439      0.99957     2.19397    0.01085     3.20439
      O    9   -0.38270      0.99989     3.37593    0.00688     4.38270
      C   10   -0.04144      0.99958     2.02989    0.01197     3.04144
      C   11   -0.28651      0.99963     2.27947    0.00740     3.28651
      C   12   -0.28465      0.99962     2.27920    0.00583     3.28465
      C   13   -0.29109      0.99962     2.28429    0.00718     3.29109
      H   14    0.09765      0.00000     0.40125    0.00110     0.40235
      H   15    0.10140      0.00000     0.39775    0.00084     0.39860
      H   16    0.10108      0.00000     0.39761    0.00131     0.39892
      H   17    0.09740      0.00000     0.40082    0.00178     0.40260
      H   18    0.09603      0.00000     0.40197    0.00200     0.40397
      H   19    0.10185      0.00000     0.39683    0.00132     0.39815
      H   20    0.09125      0.00000     0.40730    0.00145     0.40875
      H   21    0.10085      0.00000     0.39780    0.00135     0.39915
      H   22    0.09846      0.00000     0.40028    0.00126     0.40154
      H   23    0.09470      0.00000     0.40330    0.00199     0.40530
      H   24    0.09394      0.00000     0.40443    0.00163     0.40606
      H   25    0.09996      0.00000     0.39880    0.00124     0.40004
      H   26    0.10530      0.00000     0.39330    0.00140     0.39470
      H   27    0.09810      0.00000     0.39986    0.00204     0.40190
      H   28    0.22989      0.00000     0.26676    0.00335     0.27011
      H   29    0.09824      0.00000     0.40098    0.00079     0.40176
      H   30    0.09817      0.00000     0.40103    0.00080     0.40183
      H   31    0.09951      0.00000     0.39969    0.00080     0.40049
      H   32    0.11738      0.00000     0.38154    0.00108     0.38262
      H   33    0.09129      0.00000     0.40791    0.00080     0.40871
      H   34    0.09441      0.00000     0.40471    0.00088     0.40559
      H   35    0.11123      0.00000     0.38749    0.00127     0.38877
      H   36    0.09673      0.00000     0.40235    0.00091     0.40327
      H   37    0.09543      0.00000     0.40382    0.00075     0.40457
 =======================================================================
   * Total *   -0.00000     12.99501    38.85050    0.15449    52.00000

 Normal termination of Gaussian 16 at Sun Dec 13 16:41:22 2020.
