 Gaussian 16, Revision A.03,

 -----------------------------------------------------------
 # opt freq B3LYP/6-31G(d) empiricaldispersion=gd3bj scf=xqc
 -----------------------------------------------------------

 ------------------------------
 CID_64028354_JID_5586_neutraal
 ------------------------------
 Symbolic Z-matrix:
 Charge =  0 Multiplicity = 1

 SCF Done:  E(RB3LYP) =  -691.216172054     A.U. after   14 cycles
 SCF Done:  E(RB3LYP) =  -691.220714292     A.U. after   12 cycles
 SCF Done:  E(RB3LYP) =  -691.220614892     A.U. after   13 cycles
 SCF Done:  E(RB3LYP) =  -691.221449428     A.U. after   12 cycles
 SCF Done:  E(RB3LYP) =  -691.221516563     A.U. after   10 cycles
 SCF Done:  E(RB3LYP) =  -691.221534253     A.U. after   10 cycles
 SCF Done:  E(RB3LYP) =  -691.221539174     A.U. after    8 cycles
 SCF Done:  E(RB3LYP) =  -691.221541978     A.U. after    9 cycles
 SCF Done:  E(RB3LYP) =  -691.221542336     A.U. after    8 cycles
 SCF Done:  E(RB3LYP) =  -691.221542391     A.U. after    7 cycles
 Optimization completed.
    -- Stationary point found.
 Normal termination of Gaussian 16 at Thu Dec 10 16:30:44 2020.

 --------------------------------------------------------------------
 #N Geom=AllCheck Guess=TCheck SCRF=Check GenChk RB3LYP/6-31G(d) Freq
 --------------------------------------------------------------------

 Structure from the checkpoint file:  "JID_5586.chk"
 ------------------------------
 CID_64028354_JID_5586_neutraal
 ------------------------------
 Charge =  0 Multiplicity = 1

 SCF Done:  E(RB3LYP) =  -691.221542391     A.U. after    1 cycles

  Exact polarizability: 147.778  -5.828 126.222   3.372  -3.482 110.187
 Approx polarizability: 177.548  -7.159 186.774   3.175 -10.057 174.297

                      1                      2                      3
                      A                      A                      A
 Frequencies --     43.5620                56.2210                66.7753
 Red. masses --      4.3704                 3.8570                 3.8963
 Frc consts  --      0.0049                 0.0072                 0.0102
 IR Inten    --      1.2894                 0.3253                 4.6698

                      4                      5                      6
                      A                      A                      A
 Frequencies --     74.8496               117.5816               150.2916
 Red. masses --      3.6940                 3.0480                 4.4130
 Frc consts  --      0.0122                 0.0248                 0.0587
 IR Inten    --      0.8969                 5.3164                 1.1486

                      7                      8                      9
                      A                      A                      A
 Frequencies --    176.4930               196.5763               230.8151
 Red. masses --      3.4831                 2.8894                 1.5731
 Frc consts  --      0.0639                 0.0658                 0.0494
 IR Inten    --      6.5180                 0.5125                23.7266

                     10                     11                     12
                      A                      A                      A
 Frequencies --    246.9352               277.0200               314.1165
 Red. masses --      2.7028                 1.5497                 2.7083
 Frc consts  --      0.0971                 0.0701                 0.1574
 IR Inten    --      3.0438                28.7688                 0.2657

                     13                     14                     15
                      A                      A                      A
 Frequencies --    331.1164               338.0182               400.4244
 Red. masses --      2.4864                 2.4104                 2.5780
 Frc consts  --      0.1606                 0.1623                 0.2435
 IR Inten    --      3.3487                13.3480                 5.1941

                     16                     17                     18
                      A                      A                      A
 Frequencies --    431.6344               458.0652               476.3129
 Red. masses --      1.9235                 3.1401                 2.5601
 Frc consts  --      0.2111                 0.3882                 0.3422
 IR Inten    --      1.9160                 0.9492                 3.9942

                     19                     20                     21
                      A                      A                      A
 Frequencies --    522.3336               549.5616               597.0351
 Red. masses --      4.5286                 2.5210                 3.5711
 Frc consts  --      0.7280                 0.4486                 0.7500
 IR Inten    --      3.6530                 2.1287                 7.7475

                     22                     23                     24
                      A                      A                      A
 Frequencies --    657.1189               678.8571               728.0446
 Red. masses --      2.8534                 3.9732                 3.6533
 Frc consts  --      0.7260                 1.0788                 1.1409
 IR Inten    --      2.0679                 7.7433                 2.5613

                     25                     26                     27
                      A                      A                      A
 Frequencies --    753.7296               807.4189               834.3742
 Red. masses --      2.4708                 3.0048                 2.4089
 Frc consts  --      0.8270                 1.1542                 0.9881
 IR Inten    --      0.0576                 2.9355                 5.0775

                     28                     29                     30
                      A                      A                      A
 Frequencies --    860.7621               877.3977               889.5089
 Red. masses --      1.8274                 1.9452                 1.3988
 Frc consts  --      0.7977                 0.8823                 0.6521
 IR Inten    --     41.6169                 2.7382                86.0689

                     31                     32                     33
                      A                      A                      A
 Frequencies --    895.0698               910.5758               938.3958
 Red. masses --      1.5566                 1.9354                 1.9978
 Frc consts  --      0.7347                 0.9455                 1.0365
 IR Inten    --     10.4275                11.3490                 3.3721

                     34                     35                     36
                      A                      A                      A
 Frequencies --    953.2739               966.7007              1000.1186
 Red. masses --      2.2544                 2.3394                 2.1145
 Frc consts  --      1.2070                 1.2881                 1.2461
 IR Inten    --      9.1766                 6.0270                17.6616

                     37                     38                     39
                      A                      A                      A
 Frequencies --   1030.8356              1031.5744              1057.2336
 Red. masses --      1.9196                 1.6404                 5.4391
 Frc consts  --      1.2018                 1.0285                 3.5820
 IR Inten    --      8.8267                 4.6801                60.0302

                     40                     41                     42
                      A                      A                      A
 Frequencies --   1060.6199              1071.2727              1106.6254
 Red. masses --      1.7896                 2.1446                 1.9962
 Frc consts  --      1.1861                 1.4501                 1.4403
 IR Inten    --      2.0245                16.7684                 0.8335

                     43                     44                     45
                      A                      A                      A
 Frequencies --   1116.7957              1120.5991              1148.5915
 Red. masses --      1.6452                 2.6244                 2.1746
 Frc consts  --      1.2089                 1.9417                 1.6903
 IR Inten    --     28.9957                 4.5576                12.2502

                     46                     47                     48
                      A                      A                      A
 Frequencies --   1163.7364              1181.1997              1188.5795
 Red. masses --      2.3261                 2.7836                 1.5060
 Frc consts  --      1.8561                 2.2882                 1.2535
 IR Inten    --     66.0998               199.5688                 7.2802

                     49                     50                     51
                      A                      A                      A
 Frequencies --   1205.0995              1217.5810              1230.1620
 Red. masses --      1.3904                 1.4129                 1.7211
 Frc consts  --      1.1897                 1.2341                 1.5345
 IR Inten    --     20.9445                 0.5189                 7.0491

                     52                     53                     54
                      A                      A                      A
 Frequencies --   1237.2460              1255.3880              1273.2438
 Red. masses --      1.4147                 1.2754                 1.4650
 Frc consts  --      1.2759                 1.1843                 1.3993
 IR Inten    --     26.0203                16.5045                 4.0012

                     55                     56                     57
                      A                      A                      A
 Frequencies --   1308.3399              1311.3286              1336.8808
 Red. masses --      1.1790                 1.3774                 1.3249
 Frc consts  --      1.1891                 1.3955                 1.3951
 IR Inten    --      2.1441                 6.5360                 0.3457

                     58                     59                     60
                      A                      A                      A
 Frequencies --   1344.9153              1355.2153              1361.5245
 Red. masses --      1.4163                 1.3111                 1.2761
 Frc consts  --      1.5094                 1.4188                 1.3938
 IR Inten    --      1.1193                13.9044                 0.8106

                     61                     62                     63
                      A                      A                      A
 Frequencies --   1378.9658              1385.4127              1393.5011
 Red. masses --      1.3250                 1.3275                 1.5136
 Frc consts  --      1.4845                 1.5012                 1.7317
 IR Inten    --      8.1611                 5.8427                12.3931

                     64                     65                     66
                      A                      A                      A
 Frequencies --   1407.9498              1413.2098              1422.8425
 Red. masses --      1.5443                 1.4335                 1.5094
 Frc consts  --      1.8037                 1.6868                 1.8004
 IR Inten    --      2.5496                21.3888                 4.1358

                     67                     68                     69
                      A                      A                      A
 Frequencies --   1429.3641              1445.5678              1448.2805
 Red. masses --      1.4753                 1.4131                 1.4339
 Frc consts  --      1.7759                 1.7398                 1.7720
 IR Inten    --      1.3642                 5.3926                19.6772

                     70                     71                     72
                      A                      A                      A
 Frequencies --   1507.5109              1518.8460              1521.8858
 Red. masses --      1.0907                 1.0956                 1.0979
 Frc consts  --      1.4604                 1.4891                 1.4982
 IR Inten    --      2.2504                 4.5214                 5.0684

                     73                     74                     75
                      A                      A                      A
 Frequencies --   1525.2883              1530.9974              1542.0534
 Red. masses --      1.0911                 1.0852                 1.0934
 Frc consts  --      1.4956                 1.4986                 1.5319
 IR Inten    --      3.0421                 1.7804                 9.6861

                     76                     77                     78
                      A                      A                      A
 Frequencies --   1550.4170              1553.5575              1699.7518
 Red. masses --      1.0878                 1.0943                 1.0882
 Frc consts  --      1.5406                 1.5561                 1.8524
 IR Inten    --      1.6224                 0.7228                34.6700

                     79                     80                     81
                      A                      A                      A
 Frequencies --   1869.8572              2953.9963              2987.6607
 Red. masses --     12.7718                 1.0740                 1.0696
 Frc consts  --     26.3098                 5.5218                 5.6250
 IR Inten    --    250.9109                74.8225                19.3192

                     82                     83                     84
                      A                      A                      A
 Frequencies --   2990.7671              3029.8898              3034.5576
 Red. masses --      1.0696                 1.0709                 1.0829
 Frc consts  --      5.6371                 5.7925                 5.8755
 IR Inten    --     41.4931                10.1941                12.9565

                     85                     86                     87
                      A                      A                      A
 Frequencies --   3042.6041              3045.7996              3049.7635
 Red. masses --      1.0740                 1.0675                 1.0657
 Frc consts  --      5.8579                 5.8346                 5.8403
 IR Inten    --     47.9872                34.2252                 5.0457

                     88                     89                     90
                      A                      A                      A
 Frequencies --   3062.1350              3069.9966              3071.5136
 Red. masses --      1.0680                 1.0910                 1.0876
 Frc consts  --      5.9003                 6.0581                 6.0454
 IR Inten    --     50.2659                60.7311                47.3845

                     91                     92                     93
                      A                      A                      A
 Frequencies --   3077.4645              3083.5981              3091.8402
 Red. masses --      1.0952                 1.0847                 1.1035
 Frc consts  --      6.1115                 6.0771                 6.2153
 IR Inten    --     60.1279                17.7371                45.3393

                     94                     95                     96
                      A                      A                      A
 Frequencies --   3096.8259              3100.7678              3135.3840
 Red. masses --      1.0680                 1.0991                 1.0996
 Frc consts  --      6.0350                 6.2262                 6.3688
 IR Inten    --     33.1605                36.3743                20.6163

                     97                     98                     99
                      A                      A                      A
 Frequencies --   3146.9471              3466.7612              3549.0416
 Red. masses --      1.1062                 1.0498                 1.0920
 Frc consts  --      6.4546                 7.4336                 8.1036
 IR Inten    --     28.4986                 2.2854                 1.5330

 - Thermochemistry -
 -------------------
 Temperature   298.150 Kelvin.  Pressure   1.00000 Atm.
 Atom     1 has atomic number  6 and mass  12.00000

 Molecular mass:   212.15248 amu.
 Principal axes and moments of inertia in atomic units:
                           1         2         3
     Eigenvalues --  1529.910045675.589106296.72817
           X            0.99991  -0.01004   0.00885
           Y            0.00997   0.99992   0.00784
           Z           -0.00892  -0.00775   0.99993
 This molecule is an asymmetric top.
 Rotational symmetry number  1.
 Warning -- assumption of classical behavior for rotation
           may cause significant error
 Rotational temperatures (Kelvin)      0.05661     0.01526     0.01376
 Rotational constants (GHZ):           1.17964     0.31798     0.28662
 Zero-point vibrational energy     826345.9 (Joules/Mol)
                                  197.50141 (Kcal/Mol)
 Warning -- explicit consideration of  21 degrees of freedom as
           vibrations may cause significant error
 Vibrational temperatures:     62.68    80.89    96.07   107.69   169.17
          (Kelvin)            216.24   253.93   282.83   332.09   355.28
                              398.57   451.94   476.40   486.33   576.12
                              621.03   659.05   685.31   751.52   790.70
                              859.00   945.45   976.72  1047.49  1084.45
                             1161.70  1200.48  1238.44  1262.38  1279.80
                             1287.81  1310.12  1350.14  1371.55  1390.87
                             1438.95  1483.14  1484.21  1521.12  1526.00
                             1541.32  1592.19  1606.82  1612.29  1652.57
                             1674.36  1699.48  1710.10  1733.87  1751.83
                             1769.93  1780.12  1806.22  1831.91  1882.41
                             1886.71  1923.47  1935.03  1949.85  1958.93
                             1984.02  1993.30  2004.94  2025.73  2033.29
                             2047.15  2056.54  2079.85  2083.75  2168.97
                             2185.28  2189.65  2194.55  2202.76  2218.67
                             2230.70  2235.22  2445.56  2690.31  4250.14
                             4298.58  4303.05  4359.34  4366.05  4377.63
                             4382.23  4387.93  4405.73  4417.04  4419.22
                             4427.78  4436.61  4448.47  4455.64  4461.31
                             4511.12  4527.76  4987.90  5106.28

 Zero-point correction=                           0.314739 (Hartree/Particle)
 Thermal correction to Energy=                    0.329188
 Thermal correction to Enthalpy=                  0.330132
 Thermal correction to Gibbs Free Energy=         0.272817
 Sum of electronic and zero-point Energies=           -690.906804
 Sum of electronic and thermal Energies=              -690.892354
 Sum of electronic and thermal Enthalpies=            -690.891410
 Sum of electronic and thermal Free Energies=         -690.948725

                     E (Thermal)             CV                S
                      KCal/Mol        Cal/Mol-Kelvin    Cal/Mol-Kelvin
 Total                  206.569             55.955            120.630
 Electronic               0.000              0.000              0.000
 Translational            0.889              2.981             41.960
 Rotational               0.889              2.981             32.369
 Vibrational            204.791             49.993             46.301
 Vibration     1          0.595              1.980              5.090
 Vibration     2          0.596              1.975              4.586
 Vibration     3          0.598              1.970              4.246
 Vibration     4          0.599              1.966              4.022
 Vibration     5          0.608              1.935              3.140
 Vibration     6          0.618              1.902              2.669
 Vibration     7          0.628              1.871              2.365
 Vibration     8          0.636              1.845              2.165
 Vibration     9          0.653              1.794              1.873
 Vibration    10          0.661              1.768              1.752
 Vibration    11          0.678              1.716              1.552
 Vibration    12          0.702              1.647              1.341
 Vibration    13          0.713              1.613              1.255
 Vibration    14          0.718              1.600              1.221
 Vibration    15          0.766              1.469              0.961
 Vibration    16          0.793              1.401              0.853
 Vibration    17          0.816              1.343              0.772
 Vibration    18          0.833              1.303              0.720
 Vibration    19          0.877              1.201              0.605
 Vibration    20          0.905              1.141              0.545
 Vibration    21          0.955              1.038              0.455

 Optimization completed.
    -- Stationary point found.
 Normal termination of Gaussian 16 at Thu Dec 10 16:42:19 2020.

 ----------------------------------------------------------------------
 # B3LYP/6-311++G(d,p) empiricaldispersion=gd3bj scf=xqc pop=npa geom=c
 heck
 ----------------------------------------------------------------------

 --------------------------------------
 CID_64028354_JID_5586_Energie_neutraal
 --------------------------------------
 Structure from the checkpoint file:  "JID_5586.chk"
 Charge =  0 Multiplicity = 1

 SCF Done:  E(RB3LYP) =  -691.423727962     A.U. after   14 cycles
 Normal termination of Gaussian 16 at Thu Dec 10 16:47:04 2020.

 ----------------------------------------------------------------------
 # B3LYP/6-311++G(d,p) empiricaldispersion=gd3bj scf=xqc pop=npa geom=c
 heck
 ----------------------------------------------------------------------

 ------------------------------------
 CID_64028354_JID_5586_Energie_kation
 ------------------------------------
 Structure from the checkpoint file:  "JID_5586.chk"
 Charge =  1 Multiplicity = 2

 SCF Done:  E(UB3LYP) =  -691.135709758     A.U. after   27 cycles
 Normal termination of Gaussian 16 at Thu Dec 10 16:58:31 2020.
 Gaussian 16:  ES64L-G16RevA.03 25-Dec-2016

 ----------------------------------------------------------------------
 # B3LYP/6-311++G(d,p) empiricaldispersion=gd3bj scf=xqc pop=npa geom=c
 heck
 ----------------------------------------------------------------------

 -----------------------------------
 CID_64028354_JID_5586_Energie_anion
 -----------------------------------
 Structure from the checkpoint file:  "JID_5586.chk"
 Charge = -1 Multiplicity = 2

                         Standard orientation:
 ---------------------------------------------------------------------
 Center     Atomic      Atomic             Coordinates (Angstroms)
 Number     Number       Type             X           Y           Z
 ---------------------------------------------------------------------
      1          6           0       -1.408569    1.899084    0.968392
      2          6           0       -2.110562    1.440929   -0.315155
      3          6           0       -1.703903    0.004869   -0.696576
      4          6           0       -0.170993   -0.063261   -0.768686
      5          7           0        0.423084    0.321831    0.518233
      6          6           0        0.105812    1.716788    0.849403
      7          6           0        1.828584   -0.002205    0.659202
      8          6           0        2.159766   -1.492384    0.816093
      9          6           0        3.606092   -1.554491    0.314594
     10          8           0        3.720518   -0.513265   -0.683100
     11          6           0        2.743585    0.419607   -0.508869
     12          8           0        2.651922    1.398620   -1.205701
     13          6           0       -2.249751   -1.084085    0.246331
     14          6           0       -3.762561   -1.052033    0.465404
     15          7           0       -4.485328   -1.190772   -0.805678
     16          1           0       -1.631915    2.953627    1.170599
     17          1           0       -1.772605    1.319981    1.825473
     18          1           0       -3.198292    1.531546   -0.210453
     19          1           0       -1.819515    2.111160   -1.135897
     20          1           0       -2.078805   -0.204799   -1.707308
     21          1           0        0.134664   -1.087282   -1.007950
     22          1           0        0.192746    0.585592   -1.582934
     23          1           0        0.509139    2.409766    0.091648
     24          1           0        0.589506    1.958321    1.803503
     25          1           0        2.200256    0.535464    1.542672
     26          1           0        2.050193   -1.846359    1.843522
     27          1           0        1.507623   -2.095909    0.178348
     28          1           0        4.328276   -1.345690    1.112900
     29          1           0        3.875374   -2.497022   -0.166046
     30          1           0       -1.985647   -2.061176   -0.178773
     31          1           0       -1.744364   -1.009535    1.215416
     32          1           0       -4.041631   -1.904131    1.096724
     33          1           0       -4.033538   -0.144391    1.034759
     34          1           0       -5.485186   -1.261918   -0.624376
     35          1           0       -4.365093   -0.344395   -1.360102
 ---------------------------------------------------------------------

 SCF Done:  E(UB3LYP) =  -691.413877008     A.U. after   32 cycles

 The electronic state is 2-A.
 Alpha  occ. eigenvalues --  -19.07458 -19.01847 -14.21687 -14.19820 -10.20299
 Alpha  occ. eigenvalues --  -10.14114 -10.12457 -10.09724 -10.09619 -10.09427
 Alpha  occ. eigenvalues --  -10.08800 -10.07847 -10.07205 -10.07149 -10.06303
 Alpha  occ. eigenvalues --   -1.01333  -0.93619  -0.84266  -0.78866  -0.72601
 Alpha  occ. eigenvalues --   -0.69157  -0.67053  -0.63270  -0.61937  -0.55644
 Alpha  occ. eigenvalues --   -0.54104  -0.51791  -0.50263  -0.46721  -0.44034
 Alpha  occ. eigenvalues --   -0.42509  -0.42292  -0.39976  -0.38349  -0.37907
 Alpha  occ. eigenvalues --   -0.36944  -0.36165  -0.35310  -0.34071  -0.33781
 Alpha  occ. eigenvalues --   -0.33026  -0.31336  -0.30777  -0.30375  -0.29351
 Alpha  occ. eigenvalues --   -0.28552  -0.26938  -0.26841  -0.25836  -0.25297
 Alpha  occ. eigenvalues --   -0.24424  -0.22497  -0.21794  -0.21730  -0.20931
 Alpha  occ. eigenvalues --   -0.19518  -0.15065  -0.12338   0.03942
 Alpha virt. eigenvalues --    0.05343   0.06769   0.07426   0.07844   0.08371
 Alpha virt. eigenvalues --    0.08797   0.09111   0.09825   0.09995   0.10786
 Alpha virt. eigenvalues --    0.11075   0.11480   0.12221   0.12885   0.13118

  Beta  occ. eigenvalues --  -19.07446 -19.01838 -14.21685 -14.19786 -10.20280
  Beta  occ. eigenvalues --  -10.14079 -10.12443 -10.09719 -10.09608 -10.09408
  Beta  occ. eigenvalues --  -10.08771 -10.07844 -10.07190 -10.07137 -10.06298
  Beta  occ. eigenvalues --   -1.01306  -0.93599  -0.84253  -0.78811  -0.72570
  Beta  occ. eigenvalues --   -0.69122  -0.67027  -0.63213  -0.61896  -0.55605
  Beta  occ. eigenvalues --   -0.54063  -0.51727  -0.50221  -0.46680  -0.43991
  Beta  occ. eigenvalues --   -0.42461  -0.42248  -0.39935  -0.38313  -0.37860
  Beta  occ. eigenvalues --   -0.36906  -0.36125  -0.35274  -0.34041  -0.33730
  Beta  occ. eigenvalues --   -0.32987  -0.31305  -0.30730  -0.30343  -0.29325
  Beta  occ. eigenvalues --   -0.28520  -0.26897  -0.26805  -0.25815  -0.25256
  Beta  occ. eigenvalues --   -0.24401  -0.22477  -0.21770  -0.21708  -0.20866
  Beta  occ. eigenvalues --   -0.19503  -0.15028  -0.12318
  Beta virt. eigenvalues --    0.06154   0.06745   0.07329   0.07676   0.08384
  Beta virt. eigenvalues --    0.08720   0.09131   0.09740   0.10110   0.10275
  Beta virt. eigenvalues --    0.11098   0.11304   0.11834   0.12429   0.13024

 Mulliken charges and spin densities:
               1          2
     1  C   -0.483442   0.012660
     2  C    0.144360  -0.470830
     3  C    0.195528   0.285856
     4  C   -0.544173  -0.283631
     5  N    0.390144   0.036770
     6  C    0.073084  -0.337548
     7  C   -1.044885   0.572607
     8  C    0.763346  -0.735540
     9  C    0.936211  -1.383384
    10  O   -0.090289   0.036463
    11  C    0.134423  -0.067845
    12  O   -0.319097   0.005445
    13  C   -0.104340  -0.086193
    14  C    0.526486  -1.192250
    15  N   -0.454140   0.105276
    16  H   -0.062313   0.231881
    17  H    0.096931   0.060205
    18  H   -0.143927   0.316940
    19  H    0.057168   0.069145
    20  H    0.103938   0.102922
    21  H    0.109580   0.010215
    22  H    0.119179   0.034494
    23  H    0.240105  -0.069232
    24  H   -0.292607   0.430029
    25  H   -0.300624   0.510283
    26  H   -0.503501   0.702540
    27  H    0.162732  -0.049393
    28  H   -0.334746   0.528731
    29  H   -0.259649   0.451045
    30  H    0.072148   0.081652
    31  H    0.175965  -0.023516
    32  H   -0.042711   0.204829
    33  H   -0.227985   0.352702
    34  H   -0.171176   0.412412
    35  H    0.078275   0.144260
 Sum of Mulliken charges =  -1.00000   1.00000

 Dipole moment (field-independent basis, Debye):
    X=              0.0066    Y=              1.3108    Z=             -2.1951  Tot=              2.5567
 Quadrupole moment (field-independent basis, Debye-Ang):
   XX=           -191.1798   YY=           -131.9451   ZZ=           -132.9495
   XY=             -1.5221   XZ=             -7.9221   YZ=              3.6052

 Summary of Natural Population Analysis:

                                       Natural Population
                Natural  -----------------------------------------------
    Atom  No    Charge         Core      Valence    Rydberg      Total
 -----------------------------------------------------------------------
      C    1   -0.19513      0.99962     2.18689    0.00862     3.19513
      C    2   -0.19210      0.99961     2.18300    0.00949     3.19210
      C    3   -0.11521      0.99959     2.10500    0.01063     3.11521
      C    4   -0.08432      0.99959     2.07519    0.00953     3.08432
      N    5   -0.28275      0.99969     2.76897    0.01409     3.78275
      C    6   -0.08274      0.99961     2.07207    0.01107     3.08274
      C    7   -0.05180      0.99953     2.03755    0.01471     3.05180
      C    8   -0.20411      0.99962     2.19478    0.00971     3.20411
      C    9   -0.01007      0.99959     1.99862    0.01186     3.01007
      O   10   -0.27513      0.99987     3.26761    0.00765     4.27513
      C   11    0.40463      0.99966     1.56848    0.02723     2.59537
      O   12   -0.29737      0.99986     3.29156    0.00595     4.29737
      C   13   -0.19531      0.99960     2.18575    0.00996     3.19531
      C   14   -0.08965      0.99963     2.07859    0.01143     3.08965
      N   15   -0.42437      0.99977     2.91389    0.01071     3.92437
      H   16    0.09852      0.00000     0.40068    0.00080     0.40148
      H   17    0.09768      0.00000     0.40070    0.00161     0.40232
      H   18    0.10105      0.00000     0.39777    0.00118     0.39895
      H   19    0.09581      0.00000     0.40304    0.00115     0.40419
      H   20    0.09883      0.00000     0.39976    0.00141     0.40117
      H   21    0.09574      0.00000     0.40274    0.00152     0.40426
      H   22    0.09173      0.00000     0.40686    0.00141     0.40827
      H   23    0.08846      0.00000     0.41025    0.00130     0.41154
      H   24    0.09739      0.00000     0.40144    0.00117     0.40261
      H   25    0.11545      0.00000     0.38192    0.00262     0.38455
      H   26    0.11286      0.00000     0.38404    0.00310     0.38714
      H   27    0.10103      0.00000     0.39728    0.00169     0.39897
      H   28    0.08927      0.00000     0.40833    0.00240     0.41073
      H   29    0.09304      0.00000     0.40558    0.00138     0.40696
      H   30    0.09765      0.00000     0.40103    0.00132     0.40235
      H   31    0.10476      0.00000     0.39331    0.00193     0.39524
      H   32    0.09048      0.00000     0.40851    0.00101     0.40952
      H   33    0.07825      0.00000     0.41985    0.00191     0.42175
      H   34    0.17595      0.00000     0.32182    0.00223     0.32405
      H   35    0.17148      0.00000     0.32661    0.00190     0.32852
 =======================================================================
   * Total *   -0.00000     14.99486    42.79946    0.20568    58.00000

 Normal termination of Gaussian 16 at Thu Dec 10 17:13:29 2020.
