 Gaussian 16, Revision A.03,

 -----------------------------------------------------------
 # opt freq B3LYP/6-31G(d) empiricaldispersion=gd3bj scf=xqc
 -----------------------------------------------------------

 ------------------------------
 CID_63340896_JID_8848_neutraal
 ------------------------------
 Symbolic Z-matrix:
 Charge =  0 Multiplicity = 1

 SCF Done:  E(RB3LYP) =  -822.750589141     A.U. after   15 cycles
 SCF Done:  E(RB3LYP) =  -822.757906212     A.U. after   12 cycles
 SCF Done:  E(RB3LYP) =  -822.759035143     A.U. after   12 cycles
 SCF Done:  E(RB3LYP) =  -822.759803416     A.U. after   12 cycles
 SCF Done:  E(RB3LYP) =  -822.760240615     A.U. after   12 cycles
 SCF Done:  E(RB3LYP) =  -822.760512211     A.U. after   12 cycles
 SCF Done:  E(RB3LYP) =  -822.760627666     A.U. after   12 cycles
 SCF Done:  E(RB3LYP) =  -822.760705150     A.U. after   10 cycles
 SCF Done:  E(RB3LYP) =  -822.760764083     A.U. after   11 cycles
 SCF Done:  E(RB3LYP) =  -822.760803995     A.U. after   11 cycles
 SCF Done:  E(RB3LYP) =  -822.760853640     A.U. after   10 cycles
 SCF Done:  E(RB3LYP) =  -822.760856364     A.U. after    8 cycles
 SCF Done:  E(RB3LYP) =  -822.760857194     A.U. after    8 cycles
 SCF Done:  E(RB3LYP) =  -822.760857500     A.U. after    7 cycles
 SCF Done:  E(RB3LYP) =  -822.760857548     A.U. after    7 cycles
 Optimization completed.
    -- Stationary point found.
 Normal termination of Gaussian 16 at Fri Dec 11 22:22:45 2020.

 --------------------------------------------------------------------
 #N Geom=AllCheck Guess=TCheck SCRF=Check GenChk RB3LYP/6-31G(d) Freq
 --------------------------------------------------------------------

 Structure from the checkpoint file:  "JID_8848.chk"
 ------------------------------
 CID_63340896_JID_8848_neutraal
 ------------------------------
 Charge =  0 Multiplicity = 1

 SCF Done:  E(RB3LYP) =  -822.760857548     A.U. after    1 cycles

  Exact polarizability: 212.057  -2.344 141.817   2.418   8.454 121.675
 Approx polarizability: 254.026  -3.770 240.055   3.043  25.868 187.341

                      1                      2                      3
                      A                      A                      A
 Frequencies --     21.8675                33.1839                59.1435
 Red. masses --      4.5451                 4.3752                 4.5115
 Frc consts  --      0.0013                 0.0028                 0.0093
 IR Inten    --      0.1805                 0.5601                 1.0103

                      4                      5                      6
                      A                      A                      A
 Frequencies --     60.1917                83.0996               102.8017
 Red. masses --      3.8442                 4.5285                 4.8756
 Frc consts  --      0.0082                 0.0184                 0.0304
 IR Inten    --      0.5273                 0.6772                 1.1280

                      7                      8                      9
                      A                      A                      A
 Frequencies --    126.0951               140.4917               168.5195
 Red. masses --      2.2905                 2.8560                 3.1287
 Frc consts  --      0.0215                 0.0332                 0.0523
 IR Inten    --      0.8189                 0.9360                 3.3150

                     10                     11                     12
                      A                      A                      A
 Frequencies --    212.9859               226.2870               229.0384
 Red. masses --      2.3654                 2.1314                 4.0776
 Frc consts  --      0.0632                 0.0643                 0.1260
 IR Inten    --      4.9364                 1.7359                 6.1183

                     13                     14                     15
                      A                      A                      A
 Frequencies --    243.9408               284.4263               299.2521
 Red. masses --      1.0944                 2.6766                 2.8637
 Frc consts  --      0.0384                 0.1276                 0.1511
 IR Inten    --     34.2529                10.8611                 6.4389

                     16                     17                     18
                      A                      A                      A
 Frequencies --    305.9084               325.6652               361.2117
 Red. masses --      2.0798                 3.6159                 2.9217
 Frc consts  --      0.1147                 0.2259                 0.2246
 IR Inten    --      1.3994                 5.9603                 1.9677

                     19                     20                     21
                      A                      A                      A
 Frequencies --    373.3241               400.9019               425.9131
 Red. masses --      2.5294                 2.3588                 4.1691
 Frc consts  --      0.2077                 0.2234                 0.4456
 IR Inten    --      2.6671                 4.7901                 3.4584

                     22                     23                     24
                      A                      A                      A
 Frequencies --    478.7813               489.7033               516.0530
 Red. masses --      2.6643                 2.4068                 5.0069
 Frc consts  --      0.3598                 0.3401                 0.7856
 IR Inten    --      3.1707                 2.0054                 7.1665

                     25                     26                     27
                      A                      A                      A
 Frequencies --    593.0194               618.9660               632.7804
 Red. masses --      2.8586                 4.0963                 2.3383
 Frc consts  --      0.5923                 0.9246                 0.5516
 IR Inten    --     22.5854                 9.6427                 6.3202

                     28                     29                     30
                      A                      A                      A
 Frequencies --    641.3974               691.3253               733.0288
 Red. masses --      3.5883                 3.3255                 1.4831
 Frc consts  --      0.8698                 0.9364                 0.4695
 IR Inten    --      1.6407                 5.4877                 5.3443

                     31                     32                     33
                      A                      A                      A
 Frequencies --    734.5518               749.8142               803.7539
 Red. masses --      1.8487                 2.9321                 1.6887
 Frc consts  --      0.5877                 0.9713                 0.6428
 IR Inten    --      1.3132                40.7789                22.8074

                     34                     35                     36
                      A                      A                      A
 Frequencies --    807.8782               852.5714               856.0621
 Red. masses --      1.8023                 1.6489                 1.6940
 Frc consts  --      0.6931                 0.7061                 0.7314
 IR Inten    --      6.2287                40.8019                 1.3667

                     37                     38                     39
                      A                      A                      A
 Frequencies --    861.7585               870.7422               885.3502
 Red. masses --      1.7622                 1.8263                 1.6030
 Frc consts  --      0.7710                 0.8158                 0.7403
 IR Inten    --      9.8761                12.7079                35.9483

                     40                     41                     42
                      A                      A                      A
 Frequencies --    897.6552               934.3971               943.6956
 Red. masses --      5.8026                 1.9145                 2.5777
 Frc consts  --      2.7548                 0.9848                 1.3525
 IR Inten    --     30.8135                14.5440                 8.8455

                     43                     44                     45
                      A                      A                      A
 Frequencies --    973.2582              1005.5838              1020.5337
 Red. masses --      2.5955                 2.3576                 2.2838
 Frc consts  --      1.4485                 1.4046                 1.4014
 IR Inten    --      5.8385                69.6762                19.5088

                     46                     47                     48
                      A                      A                      A
 Frequencies --   1039.9924              1049.4668              1060.4574
 Red. masses --      2.0924                 2.0825                 2.2882
 Frc consts  --      1.3334                 1.3513                 1.5161
 IR Inten    --     53.9654                 6.7231                35.3965

                     49                     50                     51
                      A                      A                      A
 Frequencies --   1062.5017              1082.7878              1089.0342
 Red. masses --      1.9832                 1.8740                 1.7994
 Frc consts  --      1.3191                 1.2945                 1.2574
 IR Inten    --      9.9315                 5.7338                 1.6670

                     52                     53                     54
                      A                      A                      A
 Frequencies --   1103.8407              1111.0941              1162.4011
 Red. masses --      1.9690                 1.7916                 2.2006
 Frc consts  --      1.4136                 1.3031                 1.7519
 IR Inten    --     19.9940                15.4710                14.9830

                     55                     56                     57
                      A                      A                      A
 Frequencies --   1176.6625              1193.4880              1199.3155
 Red. masses --      2.0152                 3.0173                 3.9054
 Frc consts  --      1.6439                 2.5323                 3.3097
 IR Inten    --     95.3696                17.0146                34.9958

                     58                     59                     60
                      A                      A                      A
 Frequencies --   1218.1021              1231.2371              1233.9197
 Red. masses --      1.9265                 1.5976                 2.0538
 Frc consts  --      1.6842                 1.4270                 1.8424
 IR Inten    --    107.5883                13.5423                 7.2367

                     61                     62                     63
                      A                      A                      A
 Frequencies --   1258.5338              1271.5776              1303.0322
 Red. masses --      1.4537                 1.2389                 1.2881
 Frc consts  --      1.3566                 1.1802                 1.2886
 IR Inten    --     11.4544                 2.4859                 9.6313

                     64                     65                     66
                      A                      A                      A
 Frequencies --   1307.5937              1326.8848              1355.6558
 Red. masses --      1.4689                 1.9014                 1.2242
 Frc consts  --      1.4798                 1.9724                 1.3256
 IR Inten    --     19.5333                80.1795                 1.3966

                     67                     68                     69
                      A                      A                      A
 Frequencies --   1361.7908              1373.3974              1384.9287
 Red. masses --      1.2759                 1.2606                 1.4297
 Frc consts  --      1.3941                 1.4010                 1.6157
 IR Inten    --      3.7532                11.2638                 2.8925

                     70                     71                     72
                      A                      A                      A
 Frequencies --   1396.6029              1404.3431              1411.1518
 Red. masses --      1.5762                 1.2514                 3.2408
 Frc consts  --      1.8114                 1.4541                 3.8023
 IR Inten    --      3.6825                16.1313                 4.6912

                     73                     74                     75
                      A                      A                      A
 Frequencies --   1421.7981              1428.6627              1437.0559
 Red. masses --      1.3262                 1.4109                 1.3527
 Frc consts  --      1.5796                 1.6967                 1.6459
 IR Inten    --     10.0128                26.9498                11.0187

                     76                     77                     78
                      A                      A                      A
 Frequencies --   1443.3391              1446.0214              1475.3157
 Red. masses --      1.2779                 1.3839                 3.4305
 Frc consts  --      1.5685                 1.7049                 4.3992
 IR Inten    --      2.5098                 5.8537               211.2819

                     79                     80                     81
                      A                      A                      A
 Frequencies --   1499.2445              1515.3792              1518.8186
 Red. masses --      1.1016                 1.0717                 1.0756
 Frc consts  --      1.4589                 1.4501                 1.4619
 IR Inten    --      5.8898                 2.4554                 8.9118

                     82                     83                     84
                      A                      A                      A
 Frequencies --   1523.2187              1529.2002              1532.7201
 Red. masses --      1.0852                 1.0739                 1.0977
 Frc consts  --      1.4835                 1.4795                 1.5194
 IR Inten    --      6.8125                 5.0375                 8.3999

                     85                     86                     87
                      A                      A                      A
 Frequencies --   1536.4396              1538.7589              1554.7969
 Red. masses --      1.0836                 1.0691                 3.8598
 Frc consts  --      1.5071                 1.4914                 5.4975
 IR Inten    --      4.8755                 2.4527                74.0785

                     88                     89                     90
                      A                      A                      A
 Frequencies --   1623.2269              1696.2908              1730.9933
 Red. masses --      5.7358                 1.0872                11.6464
 Frc consts  --      8.9043                 1.8432                20.5604
 IR Inten    --     37.6786                32.6016               315.7338

                     91                     92                     93
                      A                      A                      A
 Frequencies --   2973.6840              2987.4563              3009.6695
 Red. masses --      1.0735                 1.0709                 1.0722
 Frc consts  --      5.5929                 5.6315                 5.7225
 IR Inten    --     72.6195                43.6995                42.5978

                     94                     95                     96
                      A                      A                      A
 Frequencies --   3018.5987              3024.9574              3038.1721
 Red. masses --      1.0731                 1.0832                 1.0708
 Frc consts  --      5.7613                 5.8399                 5.8235
 IR Inten    --     70.4816                27.2636               102.5488

                     97                     98                     99
                      A                      A                      A
 Frequencies --   3044.4349              3061.8891              3089.0346
 Red. masses --      1.0372                 1.0608                 1.0978
 Frc consts  --      5.6638                 5.8595                 6.1721
 IR Inten    --     29.3797                24.8470                17.1772

                    100                    101                    102
                      A                      A                      A
 Frequencies --   3091.6281              3107.7850              3112.7283
 Red. masses --      1.0964                 1.0900                 1.1026
 Frc consts  --      6.1743                 6.2027                 6.2941
 IR Inten    --     27.9620                29.5521                49.9606

                    103                    104                    105
                      A                      A                      A
 Frequencies --   3115.8792              3140.2902              3160.9465
 Red. masses --      1.1014                 1.0941                 1.0921
 Frc consts  --      6.3005                 6.3567                 6.4292
 IR Inten    --     47.9213                 6.6856                 3.4652

                    106                    107                    108
                      A                      A                      A
 Frequencies --   3166.2962              3286.8064              3297.1028
 Red. masses --      1.0890                 1.0903                 1.0976
 Frc consts  --      6.4325                 6.9395                 7.0299
 IR Inten    --     14.0475                 0.2935                 0.4100

                    109                    110                    111
                      A                      A                      A
 Frequencies --   3310.5574              3475.3401              3558.4512
 Red. masses --      1.1073                 1.0498                 1.0925
 Frc consts  --      7.1504                 7.4706                 8.1509
 IR Inten    --      1.7512                 0.9143                 0.0073

 - Thermochemistry -
 -------------------
 Temperature   298.150 Kelvin.  Pressure   1.00000 Atm.
 Atom     1 has atomic number  6 and mass  12.00000

 Molecular mass:   251.16338 amu.
 Principal axes and moments of inertia in atomic units:
                           1         2         3
     Eigenvalues --  1714.847149958.63894**********
           X            0.99999   0.00181  -0.00342
           Y           -0.00195   0.99916  -0.04099
           Z            0.00334   0.04099   0.99915
 This molecule is an asymmetric top.
 Rotational symmetry number  1.
 Warning -- assumption of classical behavior for rotation
           may cause significant error
 Rotational temperatures (Kelvin)      0.05051     0.00870     0.00836
 Rotational constants (GHZ):           1.05242     0.18122     0.17429
 Zero-point vibrational energy     895821.7 (Joules/Mol)
                                  214.10652 (Kcal/Mol)
 Warning -- explicit consideration of  26 degrees of freedom as
           vibrations may cause significant error
 Vibrational temperatures:     31.46    47.74    85.09    86.60   119.56
          (Kelvin)            147.91   181.42   202.14   242.46   306.44
                              325.58   329.54   350.98   409.23   430.56
                              440.13   468.56   519.70   537.13   576.81
                              612.79   688.86   704.57   742.49   853.22
                              890.55   910.43   922.83   994.66  1054.66
                             1056.86  1078.82  1156.42  1162.36  1226.66
                             1231.68  1239.88  1252.80  1273.82  1291.53
                             1344.39  1357.77  1400.30  1446.81  1468.32
                             1496.32  1509.95  1525.76  1528.70  1557.89
                             1566.88  1588.18  1598.62  1672.44  1692.95
                             1717.16  1725.55  1752.58  1771.48  1775.34
                             1810.75  1829.52  1874.77  1881.34  1909.09
                             1950.49  1959.31  1976.01  1992.60  2009.40
                             2020.54  2030.33  2045.65  2055.53  2067.60
                             2076.64  2080.50  2122.65  2157.08  2180.29
                             2185.24  2191.57  2200.18  2205.24  2210.59
                             2213.93  2237.01  2335.46  2440.58  2490.51
                             4278.47  4298.28  4330.24  4343.09  4352.24
                             4371.25  4380.26  4405.38  4444.43  4448.16
                             4471.41  4478.52  4483.06  4518.18  4547.90
                             4555.59  4728.98  4743.80  4763.15  5000.24
                             5119.82

 Zero-point correction=                           0.341200 (Hartree/Particle)
 Thermal correction to Energy=                    0.358843
 Thermal correction to Enthalpy=                  0.359787
 Thermal correction to Gibbs Free Energy=         0.294380
 Sum of electronic and zero-point Energies=           -822.419657
 Sum of electronic and thermal Energies=              -822.402015
 Sum of electronic and thermal Enthalpies=            -822.401071
 Sum of electronic and thermal Free Energies=         -822.466478

                     E (Thermal)             CV                S
                      KCal/Mol        Cal/Mol-Kelvin    Cal/Mol-Kelvin
 Total                  225.177             67.410            137.660
 Electronic               0.000              0.000              0.000
 Translational            0.889              2.981             42.463
 Rotational               0.889              2.981             33.536
 Vibrational            223.400             61.449             61.661
 Vibration     1          0.593              1.985              6.457
 Vibration     2          0.594              1.983              5.629
 Vibration     3          0.597              1.974              4.486
 Vibration     4          0.597              1.973              4.451
 Vibration     5          0.600              1.961              3.816
 Vibration     6          0.605              1.947              3.400
 Vibration     7          0.611              1.927              3.005
 Vibration     8          0.615              1.913              2.797
 Vibration     9          0.625              1.881              2.452
 Vibration    10          0.644              1.821              2.018
 Vibration    11          0.650              1.801              1.908
 Vibration    12          0.652              1.797              1.886
 Vibration    13          0.659              1.773              1.774
 Vibration    14          0.683              1.703              1.507
 Vibration    15          0.692              1.675              1.421
 Vibration    16          0.696              1.662              1.384
 Vibration    17          0.710              1.624              1.282
 Vibration    18          0.735              1.552              1.117
 Vibration    19          0.745              1.527              1.066
 Vibration    20          0.767              1.468              0.959
 Vibration    21          0.788              1.414              0.872
 Vibration    22          0.835              1.297              0.713
 Vibration    23          0.846              1.273              0.684
 Vibration    24          0.871              1.214              0.619
 Vibration    25          0.951              1.047              0.462
 Vibration    26          0.979              0.992              0.418

                           ! Non-Optimized Parameters !
 Normal termination of Gaussian 16 at Fri Dec 11 22:43:01 2020.

 ----------------------------------------------------------------------
 # B3LYP/6-311++G(d,p) empiricaldispersion=gd3bj scf=xqc pop=npa geom=c
 heck
 ----------------------------------------------------------------------

 --------------------------------------
 CID_63340896_JID_8848_Energie_neutraal
 --------------------------------------
 Structure from the checkpoint file:  "JID_8848.chk"
 Charge =  0 Multiplicity = 1

 SCF Done:  E(RB3LYP) =  -822.996135649     A.U. after   16 cycles
 Normal termination of Gaussian 16 at Fri Dec 11 22:53:00 2020.

 ----------------------------------------------------------------------
 # B3LYP/6-311++G(d,p) empiricaldispersion=gd3bj scf=xqc pop=npa geom=c
 heck
 ----------------------------------------------------------------------

 ------------------------------------
 CID_63340896_JID_8848_Energie_kation
 ------------------------------------
 Structure from the checkpoint file:  "JID_8848.chk"
 Charge =  1 Multiplicity = 2

 SCF Done:  E(UB3LYP) =  -822.730735770     A.U. after   26 cycles
 Normal termination of Gaussian 16 at Fri Dec 11 23:16:35 2020.
 Gaussian 16:  ES64L-G16RevA.03 25-Dec-2016

 ----------------------------------------------------------------------
 # B3LYP/6-311++G(d,p) empiricaldispersion=gd3bj scf=xqc pop=npa geom=c
 heck
 ----------------------------------------------------------------------

 -----------------------------------
 CID_63340896_JID_8848_Energie_anion
 -----------------------------------
 Structure from the checkpoint file:  "JID_8848.chk"
 Charge = -1 Multiplicity = 2

                         Standard orientation:
 ---------------------------------------------------------------------
 Center     Atomic      Atomic             Coordinates (Angstroms)
 Number     Number       Type             X           Y           Z
 ---------------------------------------------------------------------
      1          6           0       -4.317800   -0.948249    1.964745
      2          6           0       -3.063843   -0.397882    1.275000
      3          6           0       -2.957087   -0.774785   -0.221700
      4          6           0       -4.186108   -0.293225   -1.023711
      5          7           0       -4.484624    1.133048   -0.823566
      6          7           0       -1.708361   -0.406247   -0.893068
      7          6           0       -1.320295    1.002481   -0.969335
      8          6           0       -0.355631    1.452048    0.140192
      9          7           0        0.789758    0.543595    0.186215
     10          6           0        0.406425   -0.848662    0.392448
     11          6           0       -0.561304   -1.283384   -0.721033
     12          6           0        2.056732    1.067311    0.256971
     13          8           0        2.261292    2.273973    0.387787
     14          6           0        3.222356    0.150494    0.118695
     15          6           0        3.410530   -0.939459   -0.686172
     16          8           0        4.694561   -1.379724   -0.605910
     17          6           0        5.344788   -0.550698    0.270594
     18          6           0        4.500170    0.405871    0.731030
     19          1           0       -5.239291   -0.513559    1.560368
     20          1           0       -4.300078   -0.734990    3.038995
     21          1           0       -4.390073   -2.036066    1.842942
     22          1           0       -3.030441    0.693266    1.377221
     23          1           0       -2.179176   -0.781136    1.794889
     24          1           0       -2.993297   -1.871791   -0.277963
     25          1           0       -3.958446   -0.443766   -2.082858
     26          1           0       -5.038348   -0.948855   -0.777003
     27          1           0       -5.168596    1.436956   -1.513406
     28          1           0       -4.920257    1.273382    0.086161
     29          1           0       -0.810628    1.162233   -1.931621
     30          1           0       -2.225202    1.612781   -0.960344
     31          1           0       -0.857159    1.455498    1.118063
     32          1           0        0.024332    2.456188   -0.048988
     33          1           0       -0.084162   -0.937309    1.373082
     34          1           0        1.292950   -1.480934    0.411321
     35          1           0       -0.910543   -2.304309   -0.531627
     36          1           0        0.009893   -1.298057   -1.663741
     37          1           0        2.777136   -1.469865   -1.380138
     38          1           0        6.384122   -0.781858    0.443954
     39          1           0        4.719427    1.214251    1.412256
 ---------------------------------------------------------------------

 SCF Done:  E(UB3LYP) =  -822.988222356     A.U. after   33 cycles
 SCF Done:  E(UB3LYP) =  -822.988222355     a.u. after    1 cycles

 The electronic state is 2-A.
 Alpha  occ. eigenvalues --  -19.10769 -18.98321 -14.24292 -14.20060 -14.19181
 Alpha  occ. eigenvalues --  -10.17352 -10.14142 -10.13770 -10.11089 -10.10432
 Alpha  occ. eigenvalues --  -10.10006 -10.09724 -10.09335 -10.09200 -10.08791
 Alpha  occ. eigenvalues --  -10.08715 -10.06477 -10.05935  -1.03238  -0.93723
 Alpha  occ. eigenvalues --   -0.85382  -0.81437  -0.77788  -0.72606  -0.68435
 Alpha  occ. eigenvalues --   -0.67632  -0.66797  -0.63177  -0.59470  -0.56130
 Alpha  occ. eigenvalues --   -0.54129  -0.53221  -0.50153  -0.49996  -0.47774
 Alpha  occ. eigenvalues --   -0.46167  -0.43800  -0.40375  -0.39331  -0.38503
 Alpha  occ. eigenvalues --   -0.37958  -0.37295  -0.36703  -0.35861  -0.35366
 Alpha  occ. eigenvalues --   -0.34879  -0.33949  -0.33265  -0.32167  -0.31352
 Alpha  occ. eigenvalues --   -0.31073  -0.30167  -0.29802  -0.28729  -0.28070
 Alpha  occ. eigenvalues --   -0.27802  -0.26925  -0.26047  -0.25547  -0.24537
 Alpha  occ. eigenvalues --   -0.23285  -0.22488  -0.20104  -0.16509  -0.15470
 Alpha  occ. eigenvalues --   -0.15177  -0.14579  -0.10152   0.04015
 Alpha virt. eigenvalues --    0.05587   0.06306   0.06878   0.07182   0.08070
 Alpha virt. eigenvalues --    0.08500   0.09155   0.09530   0.09739   0.10028
 Alpha virt. eigenvalues --    0.10605   0.10624   0.11388   0.11869   0.12406

  Beta  occ. eigenvalues --  -19.10688 -18.98245 -14.24298 -14.20061 -14.19132
  Beta  occ. eigenvalues --  -10.17282 -10.14131 -10.13632 -10.11080 -10.10421
  Beta  occ. eigenvalues --  -10.09999 -10.09723 -10.09333 -10.09204 -10.08783
  Beta  occ. eigenvalues --  -10.08693 -10.06460 -10.05887  -1.03097  -0.93593
  Beta  occ. eigenvalues --   -0.85355  -0.81413  -0.77713  -0.72541  -0.68391
  Beta  occ. eigenvalues --   -0.67585  -0.66697  -0.63117  -0.59382  -0.56098
  Beta  occ. eigenvalues --   -0.54045  -0.53139  -0.50080  -0.49878  -0.47711
  Beta  occ. eigenvalues --   -0.46118  -0.43763  -0.40322  -0.39267  -0.38448
  Beta  occ. eigenvalues --   -0.37822  -0.37112  -0.36601  -0.35797  -0.35310
  Beta  occ. eigenvalues --   -0.34829  -0.33875  -0.33222  -0.32122  -0.31274
  Beta  occ. eigenvalues --   -0.31038  -0.30051  -0.29745  -0.28674  -0.27974
  Beta  occ. eigenvalues --   -0.27647  -0.26886  -0.26009  -0.25520  -0.24512
  Beta  occ. eigenvalues --   -0.23236  -0.22452  -0.19913  -0.16398  -0.15161
  Beta  occ. eigenvalues --   -0.14940  -0.14529  -0.10127
  Beta virt. eigenvalues --    0.06128   0.06552   0.06743   0.07391   0.07776
  Beta virt. eigenvalues --    0.08448   0.08854   0.09197   0.09710   0.10039
  Beta virt. eigenvalues --    0.10331   0.10684   0.10819   0.11674   0.12113

 Mulliken charges and spin densities:
               1          2
     1  C    1.596288  -2.323371
     2  C   -1.513753   1.383243
     3  C   -0.551334   0.407395
     4  C    1.573056  -2.223208
     5  N   -0.561092   0.194627
     6  N    0.280442   0.052236
     7  C   -0.306982  -0.326680
     8  C   -0.269614   0.217426
     9  N    0.094008  -0.007432
    10  C   -0.118308  -0.222136
    11  C   -0.274827  -0.016788
    12  C   -0.750776  -0.302985
    13  O   -0.326287   0.026716
    14  C    0.774369  -0.061550
    15  C   -0.520227   0.242529
    16  O    0.004821   0.011129
    17  C   -0.163416  -0.078189
    18  C    0.210086   0.135335
    19  H   -0.375735   0.519766
    20  H   -0.359058   0.502020
    21  H   -0.327699   0.474436
    22  H    0.101180   0.049749
    23  H    0.153662  -0.061008
    24  H    0.127465   0.032478
    25  H   -0.010732   0.193172
    26  H   -0.282427   0.431387
    27  H   -0.157654   0.403651
    28  H   -0.025330   0.251025
    29  H    0.027653   0.116968
    30  H    0.369598  -0.101675
    31  H    0.016289   0.174138
    32  H    0.189613   0.021721
    33  H   -0.046828   0.258221
    34  H    0.154905   0.036258
    35  H   -0.225232   0.361482
    36  H    0.147049   0.036815
    37  H    0.056049   0.129667
    38  H    0.136586   0.028013
    39  H    0.154195   0.033420
 Sum of Mulliken charges =  -1.00000   1.00000

 Dipole moment (field-independent basis, Debye):
    X=              9.2754    Y=             -1.4599    Z=             -1.0260  Tot=              9.4455
 Quadrupole moment (field-independent basis, Debye-Ang):
   XX=           -220.0386   YY=           -149.4151   ZZ=           -143.0025
   XY=             -8.8014   XZ=              8.2803   YZ=              4.4162

 Summary of Natural Population Analysis:

                                       Natural Population
                Natural  -----------------------------------------------
    Atom  No    Charge         Core      Valence    Rydberg      Total
 -----------------------------------------------------------------------
      C    1   -0.28686      0.99967     2.28195    0.00524     3.28686
      C    2   -0.20491      0.99961     2.19580    0.00950     3.20491
      C    3   -0.00029      0.99956     1.98546    0.01528     3.00029
      C    4   -0.09345      0.99960     2.08076    0.01309     3.09345
      N    5   -0.43035      0.99977     2.91923    0.01135     3.93035
      N    6   -0.28380      0.99971     2.77120    0.01289     3.78380
      C    7   -0.09783      0.99960     2.08834    0.00989     3.09783
      C    8   -0.09592      0.99961     2.08750    0.00881     3.09592
      N    9   -0.25343      0.99964     2.74408    0.00970     3.75343
      C   10   -0.09463      0.99960     2.08491    0.01011     3.09463
      C   11   -0.08419      0.99961     2.07310    0.01148     3.08419
      C   12    0.34384      0.99959     1.63507    0.02150     2.65616
      O   13   -0.31971      0.99988     3.31478    0.00505     4.31971
      C   14   -0.10548      0.99948     2.09633    0.00966     3.10548
      C   15    0.09570      0.99947     1.89167    0.01317     2.90430
      O   16   -0.22655      0.99987     3.21842    0.00826     4.22655
      C   17    0.05027      0.99952     1.93607    0.01413     2.94973
      C   18   -0.13404      0.99954     2.12554    0.00897     3.13404
      H   19    0.09721      0.00000     0.40101    0.00177     0.40279
      H   20    0.10022      0.00000     0.39877    0.00101     0.39978
      H   21    0.09762      0.00000     0.40092    0.00146     0.40238
      H   22    0.09690      0.00000     0.40154    0.00155     0.40310
      H   23    0.09644      0.00000     0.40196    0.00160     0.40356
      H   24    0.09541      0.00000     0.40298    0.00161     0.40459
      H   25    0.09591      0.00000     0.40247    0.00162     0.40409
      H   26    0.08401      0.00000     0.41423    0.00176     0.41599
      H   27    0.17946      0.00000     0.31811    0.00243     0.32054
      H   28    0.17648      0.00000     0.32123    0.00229     0.32352
      H   29    0.08856      0.00000     0.41016    0.00128     0.41144
      H   30    0.12114      0.00000     0.37738    0.00148     0.37886
      H   31    0.09102      0.00000     0.40754    0.00144     0.40898
      H   32    0.11493      0.00000     0.38389    0.00118     0.38507
      H   33    0.09101      0.00000     0.40734    0.00166     0.40899
      H   34    0.10450      0.00000     0.39403    0.00147     0.39550
      H   35    0.09853      0.00000     0.40041    0.00107     0.40147
      H   36    0.08783      0.00000     0.41080    0.00137     0.41217
      H   37    0.09634      0.00000     0.40214    0.00153     0.40366
      H   38    0.09300      0.00000     0.40609    0.00092     0.40700
      H   39    0.11511      0.00000     0.38405    0.00084     0.38489
 =======================================================================
   * Total *   -0.00000     17.99334    49.77725    0.22941    68.00000

 Normal termination of Gaussian 16 at Fri Dec 11 23:46:50 2020.
