 Gaussian 16, Revision A.03,

 -----------------------------------------------------------
 # opt freq B3LYP/6-31G(d) empiricaldispersion=gd3bj scf=xqc
 -----------------------------------------------------------

 ------------------------------
 CID_61809963_JID_6118_neutraal
 ------------------------------
 Symbolic Z-matrix:
 Charge =  0 Multiplicity = 1

 SCF Done:  E(RB3LYP) =  -711.868200081     A.U. after   14 cycles
 SCF Done:  E(RB3LYP) =  -711.872214001     A.U. after   12 cycles
 SCF Done:  E(RB3LYP) =  -711.870981447     A.U. after   12 cycles
 SCF Done:  E(RB3LYP) =  -711.872982991     A.U. after   12 cycles
 SCF Done:  E(RB3LYP) =  -711.872989187     A.U. after   11 cycles
 SCF Done:  E(RB3LYP) =  -711.873340078     A.U. after   11 cycles
 SCF Done:  E(RB3LYP) =  -711.873379765     A.U. after   10 cycles
 SCF Done:  E(RB3LYP) =  -711.873412923     A.U. after   10 cycles
 SCF Done:  E(RB3LYP) =  -711.873431864     A.U. after   10 cycles
 SCF Done:  E(RB3LYP) =  -711.873455289     A.U. after   10 cycles
 SCF Done:  E(RB3LYP) =  -711.873486592     A.U. after   10 cycles
 SCF Done:  E(RB3LYP) =  -711.873495805     A.U. after   10 cycles
 SCF Done:  E(RB3LYP) =  -711.873497574     A.U. after    9 cycles
 SCF Done:  E(RB3LYP) =  -711.873497597     A.U. after    7 cycles
 SCF Done:  E(RB3LYP) =  -711.873497657     A.U. after    8 cycles
 Optimization completed.
    -- Stationary point found.
 Normal termination of Gaussian 16 at Thu Dec 10 21:17:22 2020.

 --------------------------------------------------------------------
 #N Geom=AllCheck Guess=TCheck SCRF=Check GenChk RB3LYP/6-31G(d) Freq
 --------------------------------------------------------------------

 Structure from the checkpoint file:  "JID_6118.chk"
 ------------------------------
 CID_61809963_JID_6118_neutraal
 ------------------------------
 Charge =  0 Multiplicity = 1

 SCF Done:  E(RB3LYP) =  -711.873497657     A.U. after    1 cycles

  Exact polarizability: 159.336  -2.367 158.787  -0.575  -0.728 125.358
 Approx polarizability: 200.885  -2.890 220.938   1.834   2.048 187.408

                      1                      2                      3
                      A                      A                      A
 Frequencies --     22.1577                35.5214                43.9400
 Red. masses --      3.2010                 3.8666                 3.4602
 Frc consts  --      0.0009                 0.0029                 0.0039
 IR Inten    --      0.2834                 0.2715                 0.5371

                      4                      5                      6
                      A                      A                      A
 Frequencies --     64.7995                79.7520                96.3867
 Red. masses --      2.4869                 2.5560                 1.9631
 Frc consts  --      0.0062                 0.0096                 0.0107
 IR Inten    --      0.8573                 1.5989                 0.5585

                      7                      8                      9
                      A                      A                      A
 Frequencies --    105.6478               134.5615               160.1116
 Red. masses --      1.7586                 1.9796                 3.7100
 Frc consts  --      0.0116                 0.0211                 0.0560
 IR Inten    --      0.5906                 2.1388                 1.5573

                     10                     11                     12
                      A                      A                      A
 Frequencies --    177.8978               209.6900               217.9525
 Red. masses --      2.7135                 2.4486                 1.2483
 Frc consts  --      0.0506                 0.0634                 0.0349
 IR Inten    --      0.3303                 1.9116                 0.1413

                     13                     14                     15
                      A                      A                      A
 Frequencies --    242.4698               255.6156               263.1246
 Red. masses --      2.1205                 2.2954                 1.3584
 Frc consts  --      0.0735                 0.0884                 0.0554
 IR Inten    --      1.8115                 1.7315                 0.6519

                     16                     17                     18
                      A                      A                      A
 Frequencies --    287.8987               303.9897               325.1514
 Red. masses --      2.8792                 2.2394                 2.8617
 Frc consts  --      0.1406                 0.1219                 0.1783
 IR Inten    --      5.6178                 3.4104                10.0973

                     19                     20                     21
                      A                      A                      A
 Frequencies --    360.1324               380.8296               418.1301
 Red. masses --      2.4463                 2.0301                 2.2923
 Frc consts  --      0.1869                 0.1735                 0.2361
 IR Inten    --     15.3785                 0.4911                 4.2201

                     22                     23                     24
                      A                      A                      A
 Frequencies --    426.5408               466.6173               487.8959
 Red. masses --      2.4971                 2.6307                 3.3892
 Frc consts  --      0.2677                 0.3375                 0.4753
 IR Inten    --      5.0675                 5.3585                 1.0952

                     25                     26                     27
                      A                      A                      A
 Frequencies --    529.1226               557.9373               580.4215
 Red. masses --      3.4988                 2.7040                 3.2520
 Frc consts  --      0.5771                 0.4959                 0.6455
 IR Inten    --      7.5614                 3.1480                 7.0845

                     28                     29                     30
                      A                      A                      A
 Frequencies --    613.1898               700.7099               758.1615
 Red. masses --      4.1566                 3.0866                 2.7203
 Frc consts  --      0.9208                 0.8929                 0.9213
 IR Inten    --      3.0152                 8.5997                40.0150

                     31                     32                     33
                      A                      A                      A
 Frequencies --    780.4102               796.4383               808.4512
 Red. masses --      2.3438                 1.1393                 1.6344
 Frc consts  --      0.8410                 0.4258                 0.6294
 IR Inten    --     21.3776                 1.9503                 6.5474

                     34                     35                     36
                      A                      A                      A
 Frequencies --    814.9344               840.2539               866.9990
 Red. masses --      1.4625                 1.5805                 3.3122
 Frc consts  --      0.5723                 0.6575                 1.4669
 IR Inten    --     45.6324                17.8512                11.3138

                     37                     38                     39
                      A                      A                      A
 Frequencies --    920.4219               923.8698               928.6870
 Red. masses --      1.7593                 2.2966                 2.2700
 Frc consts  --      0.8781                 1.1549                 1.1535
 IR Inten    --     36.1666                 3.1257                12.1791

                     40                     41                     42
                      A                      A                      A
 Frequencies --    946.6850              1009.0497              1016.0811
 Red. masses --      2.8087                 1.7599                 2.2893
 Frc consts  --      1.4831                 1.0558                 1.3925
 IR Inten    --      0.9281                 7.9297                15.1303

                     43                     44                     45
                      A                      A                      A
 Frequencies --   1042.0476              1061.6358              1067.3371
 Red. masses --      1.5304                 2.6523                 2.2405
 Frc consts  --      0.9791                 1.7613                 1.5038
 IR Inten    --      2.5267                 1.5019                 8.7192

                     46                     47                     48
                      A                      A                      A
 Frequencies --   1094.5102              1097.3298              1124.9415
 Red. masses --      1.9759                 1.8778                 1.9449
 Frc consts  --      1.3946                 1.3322                 1.4502
 IR Inten    --     14.3361                 4.9009                57.7875

                     49                     50                     51
                      A                      A                      A
 Frequencies --   1141.8721              1150.0546              1153.4029
 Red. masses --      2.2928                 1.7133                 1.8124
 Frc consts  --      1.7613                 1.3351                 1.4206
 IR Inten    --     41.8854                 2.6655                18.5744

                     52                     53                     54
                      A                      A                      A
 Frequencies --   1160.2467              1167.8090              1185.1554
 Red. masses --      1.5457                 1.8692                 1.8169
 Frc consts  --      1.2260                 1.5019                 1.5036
 IR Inten    --     12.8854                19.2235                 1.3775

                     55                     56                     57
                      A                      A                      A
 Frequencies --   1195.2818              1207.0567              1223.8200
 Red. masses --      2.1802                 2.1751                 3.9422
 Frc consts  --      1.8352                 1.8672                 3.4787
 IR Inten    --     65.0143                 9.6283                10.5416

                     58                     59                     60
                      A                      A                      A
 Frequencies --   1241.9933              1271.9489              1297.5858
 Red. masses --      1.1206                 1.7427                 1.2658
 Frc consts  --      1.0184                 1.6611                 1.2557
 IR Inten    --      6.1032                13.3728                 5.1336

                     61                     62                     63
                      A                      A                      A
 Frequencies --   1323.8984              1341.2302              1347.9023
 Red. masses --      1.3035                 1.2407                 1.3914
 Frc consts  --      1.3461                 1.3150                 1.4895
 IR Inten    --      5.4521                 3.1980                78.9898

                     64                     65                     66
                      A                      A                      A
 Frequencies --   1356.5048              1361.0514              1380.4061
 Red. masses --      1.4815                 1.3969                 1.3297
 Frc consts  --      1.6062                 1.5246                 1.4929
 IR Inten    --     20.7881                 3.1002                16.9909

                     67                     68                     69
                      A                      A                      A
 Frequencies --   1390.8902              1398.9792              1403.1004
 Red. masses --      1.2997                 1.5069                 1.4053
 Frc consts  --      1.4814                 1.7377                 1.6301
 IR Inten    --      3.5189                41.9804                37.3144

                     70                     71                     72
                      A                      A                      A
 Frequencies --   1413.8639              1416.3094              1424.0525
 Red. masses --      1.3695                 1.3816                 1.3518
 Frc consts  --      1.6130                 1.6329                 1.6152
 IR Inten    --      1.9351                26.5206                 2.6813

                     73                     74                     75
                      A                      A                      A
 Frequencies --   1433.2684              1443.0801              1454.2464
 Red. masses --      1.2684                 1.3262                 1.3994
 Frc consts  --      1.5352                 1.6272                 1.7437
 IR Inten    --     11.1695                10.2342                21.1823

                     76                     77                     78
                      A                      A                      A
 Frequencies --   1479.0618              1493.2837              1500.3209
 Red. masses --      1.2089                 1.0937                 1.1108
 Frc consts  --      1.5582                 1.4370                 1.4732
 IR Inten    --      9.2701                 3.3822                20.8025

                     79                     80                     81
                      A                      A                      A
 Frequencies --   1504.0014              1507.6238              1515.3891
 Red. masses --      1.1073                 1.0754                 1.0686
 Frc consts  --      1.4758                 1.4402                 1.4458
 IR Inten    --      2.7424                 0.2539                 6.2689

                     82                     83                     84
                      A                      A                      A
 Frequencies --   1521.0366              1522.8108              1528.3371
 Red. masses --      1.1443                 1.0577                 1.0808
 Frc consts  --      1.5598                 1.4451                 1.4875
 IR Inten    --      1.9795                 3.4930                 0.4808

                     85                     86                     87
                      A                      A                      A
 Frequencies --   1528.9554              1530.2905              1531.4810
 Red. masses --      1.1668                 1.0425                 1.0701
 Frc consts  --      1.6070                 1.4383                 1.4788
 IR Inten    --      4.5698                 5.2412                 1.1890

                     88                     89                     90
                      A                      A                      A
 Frequencies --   1544.8747              1547.7736              1548.9224
 Red. masses --      1.1647                 1.1000                 1.0932
 Frc consts  --      1.6378                 1.5526                 1.5453
 IR Inten    --     31.1022                26.5460                10.0586

                     91                     92                     93
                      A                      A                      A
 Frequencies --   1556.7168              1745.5535              2985.7979
 Red. masses --      1.2313                 9.2437                 1.0681
 Frc consts  --      1.7580                16.5944                 5.6103
 IR Inten    --     18.8414               245.5523                48.2446

                     94                     95                     96
                      A                      A                      A
 Frequencies --   3018.1016              3026.6786              3027.5374
 Red. masses --      1.0605                 1.0670                 1.0602
 Frc consts  --      5.6918                 5.7591                 5.7254
 IR Inten    --     34.9818                31.6799                44.4728

                     97                     98                     99
                      A                      A                      A
 Frequencies --   3034.5388              3037.1219              3041.4307
 Red. masses --      1.0505                 1.0629                 1.0645
 Frc consts  --      5.6992                 5.7764                 5.8016
 IR Inten    --     47.7573                13.2662                 2.3605

                    100                    101                    102
                      A                      A                      A
 Frequencies --   3045.5806              3046.8860              3049.7255
 Red. masses --      1.0817                 1.0651                 1.0465
 Frc consts  --      5.9118                 5.8258                 5.7345
 IR Inten    --     23.9419                61.2178                33.2011

                    103                    104                    105
                      A                      A                      A
 Frequencies --   3053.4881              3062.6050              3065.0320
 Red. masses --      1.0385                 1.0988                 1.0869
 Frc consts  --      5.7050                 6.0721                 6.0160
 IR Inten    --     33.8592                13.4615                64.4759

                    106                    107                    108
                      A                      A                      A
 Frequencies --   3068.4924              3082.1393              3089.7704
 Red. masses --      1.0926                 1.1037                 1.1042
 Frc consts  --      6.0611                 6.1772                 6.2107
 IR Inten    --     54.5402                27.1111                42.6150

                    109                    110                    111
                      A                      A                      A
 Frequencies --   3092.0613              3092.4528              3106.7979
 Red. masses --      1.0960                 1.0959                 1.1004
 Frc consts  --      6.1741                 6.1751                 6.2579
 IR Inten    --      1.4936                28.1383                41.9307

                    112                    113                    114
                      A                      A                      A
 Frequencies --   3113.6278              3117.5060              3129.6739
 Red. masses --      1.1009                 1.1008                 1.1032
 Frc consts  --      6.2884                 6.3034                 6.3666
 IR Inten    --     46.7300                53.3087                28.7927

                    115                    116                    117
                      A                      A                      A
 Frequencies --   3130.9662              3198.3363              3474.1422
 Red. masses --      1.1023                 1.0932                 1.0721
 Frc consts  --      6.3664                 6.5886                 7.6239
 IR Inten    --     41.1731                14.2362                 2.7543

 - Thermochemistry -
 -------------------
 Temperature   298.150 Kelvin.  Pressure   1.00000 Atm.
 Atom     1 has atomic number  6 and mass  12.00000

 Molecular mass:   227.19976 amu.
 Principal axes and moments of inertia in atomic units:
                           1         2         3
     Eigenvalues --  2634.035605578.308547202.61406
           X            0.99997  -0.00220  -0.00771
           Y            0.00218   0.99999  -0.00269
           Z            0.00772   0.00267   0.99997
 This molecule is an asymmetric top.
 Rotational symmetry number  1.
 Warning -- assumption of classical behavior for rotation
           may cause significant error
 Rotational temperatures (Kelvin)      0.03288     0.01553     0.01203
 Rotational constants (GHZ):           0.68516     0.32353     0.25057
 Zero-point vibrational energy     987088.9 (Joules/Mol)
                                  235.91991 (Kcal/Mol)
 Warning -- explicit consideration of  28 degrees of freedom as
           vibrations may cause significant error
 Vibrational temperatures:     31.88    51.11    63.22    93.23   114.75
          (Kelvin)            138.68   152.00   193.60   230.36   255.96
                              301.70   313.59   348.86   367.77   378.58
                              414.22   437.37   467.82   518.15   547.93
                              601.60   613.70   671.36   701.97   761.29
                              802.75   835.10   882.24  1008.17  1090.83
                             1122.84  1145.90  1163.18  1172.51  1208.94
                             1247.42  1324.28  1329.24  1336.17  1362.07
                             1451.80  1461.91  1499.27  1527.46  1535.66
                             1574.76  1578.81  1618.54  1642.90  1654.67
                             1659.49  1669.34  1680.22  1705.17  1719.74
                             1736.69  1760.80  1786.95  1830.05  1866.94
                             1904.79  1929.73  1939.33  1951.71  1958.25
                             1986.10  2001.18  2012.82  2018.75  2034.23
                             2037.75  2048.89  2062.15  2076.27  2092.34
                             2128.04  2148.50  2158.63  2163.92  2169.13
                             2180.31  2188.43  2190.99  2198.94  2199.83
                             2201.75  2203.46  2222.73  2226.90  2228.55
                             2239.77  2511.46  4295.90  4342.38  4354.72
                             4355.95  4366.02  4369.74  4375.94  4381.91
                             4383.79  4387.87  4393.29  4406.41  4409.90
                             4414.88  4434.51  4445.49  4448.79  4449.35
                             4469.99  4479.82  4485.40  4502.90  4504.76
                             4601.69  4998.52

 Zero-point correction=                           0.375962 (Hartree/Particle)
 Thermal correction to Energy=                    0.394019
 Thermal correction to Enthalpy=                  0.394963
 Thermal correction to Gibbs Free Energy=         0.328683
 Sum of electronic and zero-point Energies=           -711.497535
 Sum of electronic and thermal Energies=              -711.479479
 Sum of electronic and thermal Enthalpies=            -711.478534
 Sum of electronic and thermal Free Energies=         -711.544814

                     E (Thermal)             CV                S
                      KCal/Mol        Cal/Mol-Kelvin    Cal/Mol-Kelvin
 Total                  247.251             67.122            139.498
 Electronic               0.000              0.000              0.000
 Translational            0.889              2.981             42.164
 Rotational               0.889              2.981             33.026
 Vibrational            245.473             61.160             64.308
 Vibration     1          0.593              1.985              6.431
 Vibration     2          0.594              1.982              5.494
 Vibration     3          0.595              1.980              5.073
 Vibration     4          0.597              1.971              4.305
 Vibration     5          0.600              1.963              3.897
 Vibration     6          0.603              1.952              3.526
 Vibration     7          0.605              1.945              3.347
 Vibration     8          0.613              1.919              2.880
 Vibration     9          0.622              1.891              2.548
 Vibration    10          0.628              1.870              2.350
 Vibration    11          0.642              1.826              2.046
 Vibration    12          0.646              1.814              1.976
 Vibration    13          0.659              1.775              1.785
 Vibration    14          0.666              1.753              1.692
 Vibration    15          0.670              1.740              1.641
 Vibration    16          0.685              1.696              1.486
 Vibration    17          0.695              1.666              1.395
 Vibration    18          0.709              1.625              1.284
 Vibration    19          0.735              1.554              1.122
 Vibration    20          0.751              1.511              1.036
 Vibration    21          0.781              1.431              0.898
 Vibration    22          0.788              1.412              0.870
 Vibration    23          0.824              1.324              0.747
 Vibration    24          0.844              1.277              0.689
 Vibration    25          0.884              1.186              0.589
 Vibration    26          0.913              1.122              0.528
 Vibration    27          0.937              1.074              0.485
 Vibration    28          0.973              1.004              0.428

                           ! Non-Optimized Parameters !
 Normal termination of Gaussian 16 at Thu Dec 10 21:32:37 2020.

 ----------------------------------------------------------------------
 # B3LYP/6-311++G(d,p) empiricaldispersion=gd3bj scf=xqc pop=npa geom=c
 heck
 ----------------------------------------------------------------------

 --------------------------------------
 CID_61809963_JID_6118_Energie_neutraal
 --------------------------------------
 Structure from the checkpoint file:  "JID_6118.chk"
 Charge =  0 Multiplicity = 1

 SCF Done:  E(RB3LYP) =  -712.075805494     A.U. after   15 cycles
 Normal termination of Gaussian 16 at Thu Dec 10 21:39:54 2020.

 ----------------------------------------------------------------------
 # B3LYP/6-311++G(d,p) empiricaldispersion=gd3bj scf=xqc pop=npa geom=c
 heck
 ----------------------------------------------------------------------

 ------------------------------------
 CID_61809963_JID_6118_Energie_kation
 ------------------------------------
 Structure from the checkpoint file:  "JID_6118.chk"
 Charge =  1 Multiplicity = 2

 SCF Done:  E(UB3LYP) =  -711.807695389     A.U. after   26 cycles
 Normal termination of Gaussian 16 at Thu Dec 10 21:57:45 2020.
 Gaussian 16:  ES64L-G16RevA.03 25-Dec-2016

 ----------------------------------------------------------------------
 # B3LYP/6-311++G(d,p) empiricaldispersion=gd3bj scf=xqc pop=npa geom=c
 heck
 ----------------------------------------------------------------------

 -----------------------------------
 CID_61809963_JID_6118_Energie_anion
 -----------------------------------
 Structure from the checkpoint file:  "JID_6118.chk"
 Charge = -1 Multiplicity = 2

                         Standard orientation:
 ---------------------------------------------------------------------
 Center     Atomic      Atomic             Coordinates (Angstroms)
 Number     Number       Type             X           Y           Z
 ---------------------------------------------------------------------
      1          6           0       -4.241600   -2.477539    0.435397
      2          6           0       -3.628236   -1.086513    0.549657
      3          7           0       -3.333773   -0.547380   -0.783009
      4          6           0       -2.661341    0.735873   -0.732053
      5          6           0       -1.175739    0.614744   -0.308162
      6          8           0       -0.655178   -0.500671   -0.321742
      7          7           0       -0.507530    1.744034    0.057162
      8          6           0       -1.066810    3.079081   -0.123179
      9          6           0        0.903774    1.757556    0.525774
     10          6           0        1.930433    1.691335   -0.623059
     11          6           0        2.353101    0.265881   -0.980083
     12          7           0        2.882526   -0.390567    0.215241
     13          6           0        1.847219   -0.580950    1.233692
     14          6           0        1.257578    0.769500    1.660710
     15          6           0        3.636937   -1.607168   -0.072576
     16          6           0        2.861125   -2.772327   -0.709749
     17          1           0       -5.137349   -2.452509   -0.193744
     18          1           0       -4.514923   -2.866276    1.422347
     19          1           0       -3.529597   -3.180640   -0.014035
     20          1           0       -4.342605   -0.405190    1.031655
     21          1           0       -2.733610   -1.128992    1.193512
     22          1           0       -2.691112   -1.197466   -1.236979
     23          1           0       -2.699884    1.205228   -1.725720
     24          1           0       -3.212603    1.392472   -0.050198
     25          1           0       -1.204193    3.582762    0.842577
     26          1           0       -0.387924    3.689187   -0.731848
     27          1           0       -2.025707    3.046619   -0.635455
     28          1           0        0.987750    2.754966    0.969458
     29          1           0        1.531536    2.209342   -1.504111
     30          1           0        2.828004    2.232398   -0.299711
     31          1           0        1.508221   -0.277498   -1.428220
     32          1           0        3.157302    0.309188   -1.725311
     33          1           0        2.324626   -1.039167    2.109872
     34          1           0        1.044526   -1.244898    0.897939
     35          1           0        2.013805    1.279092    2.270313
     36          1           0        0.381038    0.612010    2.298509
     37          1           0        4.470612   -1.327756   -0.730911
     38          1           0        4.083841   -1.945022    0.871978
     39          1           0        2.432636   -2.487882   -1.676627
     40          1           0        3.529718   -3.624968   -0.876579
     41          1           0        2.040103   -3.109082   -0.068736
 ---------------------------------------------------------------------

 SCF Done:  E(UB3LYP) =  -712.064459687     A.U. after   33 cycles
 SCF Done:  E(UB3LYP) =  -712.064459687     a.u. after    1 cycles

 The electronic state is 2-A.
 Alpha  occ. eigenvalues --  -18.98754 -14.24429 -14.20254 -14.19957 -10.17055
 Alpha  occ. eigenvalues --  -10.11263 -10.10477 -10.09966 -10.09916 -10.09835
 Alpha  occ. eigenvalues --  -10.08537 -10.08169 -10.07606 -10.06894 -10.06795
 Alpha  occ. eigenvalues --  -10.06592  -0.94109  -0.83935  -0.82396  -0.81304
 Alpha  occ. eigenvalues --   -0.70009  -0.66531  -0.65364  -0.64580  -0.60981
 Alpha  occ. eigenvalues --   -0.58998  -0.56043  -0.53081  -0.52095  -0.50863
 Alpha  occ. eigenvalues --   -0.46784  -0.41930  -0.40990  -0.39059  -0.38546
 Alpha  occ. eigenvalues --   -0.38122  -0.37371  -0.37202  -0.36099  -0.35702
 Alpha  occ. eigenvalues --   -0.35081  -0.33524  -0.32410  -0.31592  -0.30566
 Alpha  occ. eigenvalues --   -0.30283  -0.30245  -0.29051  -0.28449  -0.28170
 Alpha  occ. eigenvalues --   -0.27267  -0.26684  -0.26112  -0.26048  -0.25583
 Alpha  occ. eigenvalues --   -0.24547  -0.24036  -0.22476  -0.21998  -0.16715
 Alpha  occ. eigenvalues --   -0.14405  -0.13818  -0.11152   0.04221
 Alpha virt. eigenvalues --    0.06181   0.06568   0.07262   0.07765   0.08375
 Alpha virt. eigenvalues --    0.08611   0.08882   0.09347   0.10097   0.10336
 Alpha virt. eigenvalues --    0.10789   0.10963   0.11286   0.11664   0.11916

  Beta  occ. eigenvalues --  -18.98752 -14.24427 -14.20252 -14.19955 -10.17053
  Beta  occ. eigenvalues --  -10.11252 -10.10455 -10.09959 -10.09852 -10.09824
  Beta  occ. eigenvalues --  -10.08530 -10.08164 -10.07602 -10.06888 -10.06780
  Beta  occ. eigenvalues --  -10.06571  -0.94104  -0.83921  -0.82387  -0.81295
  Beta  occ. eigenvalues --   -0.69982  -0.66513  -0.65340  -0.64562  -0.60907
  Beta  occ. eigenvalues --   -0.58952  -0.56019  -0.53043  -0.52068  -0.50833
  Beta  occ. eigenvalues --   -0.46758  -0.41894  -0.40938  -0.39020  -0.38516
  Beta  occ. eigenvalues --   -0.38091  -0.37357  -0.37188  -0.36069  -0.35678
  Beta  occ. eigenvalues --   -0.35065  -0.33502  -0.32385  -0.31561  -0.30520
  Beta  occ. eigenvalues --   -0.30262  -0.30220  -0.29027  -0.28437  -0.28144
  Beta  occ. eigenvalues --   -0.27242  -0.26658  -0.26092  -0.26029  -0.25567
  Beta  occ. eigenvalues --   -0.24525  -0.24022  -0.22449  -0.21967  -0.16703
  Beta  occ. eigenvalues --   -0.14385  -0.13808  -0.11139
  Beta virt. eigenvalues --    0.06053   0.06636   0.07188   0.07717   0.08216
  Beta virt. eigenvalues --    0.08556   0.08933   0.09234   0.09820   0.10421
  Beta virt. eigenvalues --    0.10546   0.10989   0.11331   0.11467   0.11616

 Mulliken charges and spin densities:
               1          2
     1  C   -0.249552  -0.293113
     2  C    0.027679  -0.235652
     3  N    0.003658   0.026686
     4  C    0.000598  -0.971966
     5  C   -0.131821   0.298682
     6  O   -0.263635   0.001296
     7  N    0.192617   0.079214
     8  C    2.335842  -2.647067
     9  C   -1.763618   1.722252
    10  C    1.251931  -1.797343
    11  C   -0.222194  -0.113102
    12  N    0.115426   0.054554
    13  C   -0.445985   0.069118
    14  C    0.158668  -0.564912
    15  C   -0.217196   0.097871
    16  C   -0.176934  -0.264646
    17  H    0.129034   0.021788
    18  H    0.058886   0.061604
    19  H    0.099398   0.030530
    20  H   -0.147846   0.281290
    21  H    0.110283   0.017681
    22  H    0.218894   0.005822
    23  H   -0.180757   0.404317
    24  H   -0.007927   0.202277
    25  H   -0.807363   0.999656
    26  H   -0.528561   0.699161
    27  H   -0.228792   0.373844
    28  H   -0.414179   0.628073
    29  H   -0.290827   0.438454
    30  H   -0.036958   0.192283
    31  H    0.244846  -0.098733
    32  H   -0.036380   0.203632
    33  H    0.019716   0.129041
    34  H    0.260234  -0.118401
    35  H   -0.068577   0.229755
    36  H   -0.193611   0.350432
    37  H    0.012028   0.116671
    38  H    0.003101   0.118187
    39  H    0.066671   0.072428
    40  H    0.011731   0.128112
    41  H    0.091471   0.050223
 Sum of Mulliken charges =  -1.00000   1.00000

 Dipole moment (field-independent basis, Debye):
    X=              1.3629    Y=             -8.1847    Z=             -0.3385  Tot=              8.3043
 Quadrupole moment (field-independent basis, Debye-Ang):
   XX=           -164.3289   YY=           -171.0500   ZZ=           -138.2376
   XY=              6.4067   XZ=             -1.2199   YZ=             -2.1936

 Summary of Natural Population Analysis:

                                       Natural Population
                Natural  -----------------------------------------------
    Atom  No    Charge         Core      Valence    Rydberg      Total
 -----------------------------------------------------------------------
      C    1   -0.28755      0.99967     2.28339    0.00449     3.28755
      C    2   -0.09010      0.99964     2.07979    0.01067     3.09010
      N    3   -0.33866      0.99975     2.82710    0.01181     3.83866
      C    4   -0.13005      0.99960     2.11903    0.01142     3.13005
      C    5    0.34062      0.99963     1.63676    0.02298     2.65938
      O    6   -0.34367      0.99988     3.33813    0.00566     4.34367
      N    7   -0.25438      0.99964     2.74111    0.01363     3.75438
      C    8   -0.17444      0.99962     2.16667    0.00815     3.17444
      C    9    0.00064      0.99955     1.98480    0.01500     2.99936
      C   10   -0.19549      0.99960     2.18601    0.00988     3.19549
      C   11   -0.08910      0.99960     2.07783    0.01167     3.08910
      N   12   -0.28488      0.99972     2.77259    0.01258     3.78488
      C   13   -0.08748      0.99960     2.07690    0.01098     3.08748
      C   14   -0.19501      0.99960     2.18499    0.01042     3.19501
      C   15   -0.07806      0.99963     2.06860    0.00983     3.07806
      C   16   -0.29907      0.99966     2.29543    0.00397     3.29907
      H   17    0.09805      0.00000     0.40075    0.00120     0.40195
      H   18    0.09724      0.00000     0.40205    0.00071     0.40276
      H   19    0.09499      0.00000     0.40392    0.00109     0.40501
      H   20    0.08765      0.00000     0.41090    0.00146     0.41235
      H   21    0.08583      0.00000     0.41257    0.00160     0.41417
      H   22    0.17704      0.00000     0.31974    0.00322     0.32296
      H   23    0.10497      0.00000     0.39359    0.00144     0.39503
      H   24    0.10273      0.00000     0.39549    0.00178     0.39727
      H   25    0.09977      0.00000     0.39632    0.00391     0.40023
      H   26    0.09970      0.00000     0.39738    0.00292     0.40030
      H   27    0.10283      0.00000     0.39507    0.00210     0.39717
      H   28    0.10330      0.00000     0.39423    0.00247     0.39670
      H   29    0.10298      0.00000     0.39586    0.00116     0.39702
      H   30    0.10048      0.00000     0.39779    0.00172     0.39952
      H   31    0.09316      0.00000     0.40509    0.00174     0.40684
      H   32    0.09203      0.00000     0.40685    0.00112     0.40797
      H   33    0.08907      0.00000     0.40983    0.00110     0.41093
      H   34    0.09845      0.00000     0.39989    0.00165     0.40155
      H   35    0.10012      0.00000     0.39849    0.00139     0.39988
      H   36    0.10495      0.00000     0.39397    0.00108     0.39505
      H   37    0.08931      0.00000     0.40955    0.00114     0.41069
      H   38    0.08920      0.00000     0.40966    0.00114     0.41080
      H   39    0.09870      0.00000     0.40035    0.00095     0.40130
      H   40    0.09468      0.00000     0.40417    0.00115     0.40532
      H   41    0.09944      0.00000     0.39960    0.00096     0.40056
 =======================================================================
   * Total *    0.00000     15.99439    46.79225    0.21335    63.00000

 Normal termination of Gaussian 16 at Thu Dec 10 22:20:49 2020.
