 Gaussian 16, Revision A.03,

 -----------------------------------------------------------
 # opt freq B3LYP/6-31G(d) empiricaldispersion=gd3bj scf=xqc
 -----------------------------------------------------------

 ------------------------------
 CID_63649404_JID_5027_neutraal
 ------------------------------
 Symbolic Z-matrix:
 Charge =  0 Multiplicity = 1

 SCF Done:  E(RB3LYP) =  -996.917376376     A.U. after   14 cycles
 SCF Done:  E(RB3LYP) =  -996.921371990     A.U. after   12 cycles
 SCF Done:  E(RB3LYP) =  -996.922187536     A.U. after   12 cycles
 SCF Done:  E(RB3LYP) =  -996.922656170     A.U. after   12 cycles
 SCF Done:  E(RB3LYP) =  -996.922801810     A.U. after   11 cycles
 SCF Done:  E(RB3LYP) =  -996.922997020     A.U. after   12 cycles
 SCF Done:  E(RB3LYP) =  -996.923142455     A.U. after   12 cycles
 SCF Done:  E(RB3LYP) =  -996.922998974     A.U. after   11 cycles
 SCF Done:  E(RB3LYP) =  -996.923495194     A.U. after   11 cycles
 SCF Done:  E(RB3LYP) =  -996.924273342     A.U. after   14 cycles
 SCF Done:  E(RB3LYP) =  -996.925515245     A.U. after   11 cycles
 SCF Done:  E(RB3LYP) =  -996.925517362     A.U. after   10 cycles
 SCF Done:  E(RB3LYP) =  -996.925518285     A.U. after    9 cycles
 SCF Done:  E(RB3LYP) =  -996.925518339     A.U. after    8 cycles
 SCF Done:  E(RB3LYP) =  -996.925518329     A.U. after    7 cycles
 Optimization completed.
    -- Stationary point found.
 Normal termination of Gaussian 16 at Thu Dec 10 14:49:20 2020.

 --------------------------------------------------------------------
 #N Geom=AllCheck Guess=TCheck SCRF=Check GenChk RB3LYP/6-31G(d) Freq
 --------------------------------------------------------------------

 Structure from the checkpoint file:  "JID_5027.chk"
 ------------------------------
 CID_63649404_JID_5027_neutraal
 ------------------------------
 Charge =  0 Multiplicity = 1

 SCF Done:  E(RB3LYP) =  -996.925518329     A.U. after    1 cycles

  Exact polarizability: 218.971  17.861 115.774   7.901  -9.188 132.447
 Approx polarizability: 275.060  26.911 171.575   9.152 -26.190 218.663

                      1                      2                      3
                      A                      A                      A
 Frequencies --     16.4465                24.6572                37.9495
 Red. masses --      4.4956                 3.4229                 3.8369
 Frc consts  --      0.0007                 0.0012                 0.0033
 IR Inten    --      0.4031                 2.2975                 0.3627

                      4                      5                      6
                      A                      A                      A
 Frequencies --     41.6884                71.6880                91.8692
 Red. masses --      3.5907                 3.0420                 3.6389
 Frc consts  --      0.0037                 0.0092                 0.0181
 IR Inten    --      0.0373                 0.2620                 0.6906

                      7                      8                      9
                      A                      A                      A
 Frequencies --    109.8485               139.1897               163.4577
 Red. masses --      4.3655                 2.4289                 1.1049
 Frc consts  --      0.0310                 0.0277                 0.0174
 IR Inten    --      1.2414                 1.2908                 0.1507

                     10                     11                     12
                      A                      A                      A
 Frequencies --    187.2919               205.6652               240.1853
 Red. masses --      2.0923                 4.0995                 1.6058
 Frc consts  --      0.0432                 0.1022                 0.0546
 IR Inten    --      1.0845                 0.7258                 2.6797

                     13                     14                     15
                      A                      A                      A
 Frequencies --    271.7732               289.1354               304.8689
 Red. masses --      2.3410                 4.9911                 2.3011
 Frc consts  --      0.1019                 0.2458                 0.1260
 IR Inten    --      0.0938                 0.5275                 0.7295

                     16                     17                     18
                      A                      A                      A
 Frequencies --    353.4404               378.6173               404.0818
 Red. masses --      3.5151                 3.1625                 2.4240
 Frc consts  --      0.2587                 0.2671                 0.2332
 IR Inten    --      4.7886                 4.6214                 3.7064

                     19                     20                     21
                      A                      A                      A
 Frequencies --    428.1076               462.2759               487.9021
 Red. masses --      3.1573                 2.5897                 4.0128
 Frc consts  --      0.3409                 0.3261                 0.5628
 IR Inten    --      0.0208                 0.1236                 2.1710

                     22                     23                     24
                      A                      A                      A
 Frequencies --    537.4603               571.8832               649.1474
 Red. masses --      2.5396                 2.8179                 6.7642
 Frc consts  --      0.4322                 0.5430                 1.6794
 IR Inten    --     10.4249                 1.0900                 0.1558

                     25                     26                     27
                      A                      A                      A
 Frequencies --    679.2171               703.0350               722.5300
 Red. masses --      4.6320                 5.5245                 1.3936
 Frc consts  --      1.2590                 1.6088                 0.4287
 IR Inten    --     12.3504                 0.5182                58.3046

                     28                     29                     30
                      A                      A                      A
 Frequencies --    723.2297               748.9920               821.2700
 Red. masses --      3.0969                 1.7854                 1.3655
 Frc consts  --      0.9544                 0.5901                 0.5427
 IR Inten    --     13.0483                31.9606                15.8452

                     31                     32                     33
                      A                      A                      A
 Frequencies --    834.3268               843.5468               845.0388
 Red. masses --      2.5631                 3.0554                 1.6034
 Frc consts  --      1.0512                 1.2810                 0.6746
 IR Inten    --      7.6071                19.3446                35.9284

                     34                     35                     36
                      A                      A                      A
 Frequencies --    905.2859               950.2019               959.1883
 Red. masses --      2.0637                 1.3121                 1.9288
 Frc consts  --      0.9965                 0.6980                 1.0455
 IR Inten    --      5.2195                 0.4192                 7.9621

                     37                     38                     39
                      A                      A                      A
 Frequencies --    965.9345               986.9550               997.3656
 Red. masses --      1.2979                 1.1792                 1.7808
 Frc consts  --      0.7135                 0.6768                 1.0437
 IR Inten    --      0.0311                 2.5138                 8.3092

                     40                     41                     42
                      A                      A                      A
 Frequencies --   1006.8485              1009.2978              1031.7797
 Red. masses --      1.3369                 1.8533                 3.2206
 Frc consts  --      0.7985                 1.1123                 2.0201
 IR Inten    --     38.7545                 6.1299                 4.0305

                     43                     44                     45
                      A                      A                      A
 Frequencies --   1080.0147              1092.0076              1118.5265
 Red. masses --      1.8612                 1.8177                 2.5319
 Frc consts  --      1.2791                 1.2771                 1.8663
 IR Inten    --     31.7355                46.6493                 4.3151

                     46                     47                     48
                      A                      A                      A
 Frequencies --   1121.1113              1140.1646              1157.1042
 Red. masses --      2.8771                 1.3630                 2.1958
 Frc consts  --      2.1306                 1.0439                 1.7321
 IR Inten    --      1.9153                 8.3403                 7.9342

                     49                     50                     51
                      A                      A                      A
 Frequencies --   1171.7878              1200.0468              1209.2764
 Red. masses --      1.5026                 1.9447                 1.1640
 Frc consts  --      1.2156                 1.6500                 1.0029
 IR Inten    --     15.1094                11.4089                42.9749

                     52                     53                     54
                      A                      A                      A
 Frequencies --   1240.0650              1270.3823              1297.2486
 Red. masses --      1.3627                 1.2713                 4.7207
 Frc consts  --      1.2346                 1.2088                 4.6806
 IR Inten    --      8.8966                 2.2119               383.3483

                     55                     56                     57
                      A                      A                      A
 Frequencies --   1323.0471              1331.9462              1344.6363
 Red. masses --      1.2309                 1.4777                 1.7457
 Frc consts  --      1.2694                 1.5446                 1.8596
 IR Inten    --      3.1568                10.3196                44.8181

                     58                     59                     60
                      A                      A                      A
 Frequencies --   1350.4608              1383.3671              1391.8004
 Red. masses --      2.0159                 1.1556                 1.3161
 Frc consts  --      2.1661                 1.3029                 1.5021
 IR Inten    --     26.0435                 7.5421                13.4894

                     61                     62                     63
                      A                      A                      A
 Frequencies --   1401.9942              1423.7335              1444.8778
 Red. masses --      1.4457                 1.3596                 1.3847
 Frc consts  --      1.6743                 1.6238                 1.7032
 IR Inten    --      2.8212                 4.4511                23.7752

                     64                     65                     66
                      A                      A                      A
 Frequencies --   1455.0692              1480.6877              1496.3532
 Red. masses --      3.0224                 1.1562                 1.0564
 Frc consts  --      3.7702                 1.4935                 1.3937
 IR Inten    --      1.7562                 1.3966                 9.5683

                     67                     68                     69
                      A                      A                      A
 Frequencies --   1505.0924              1508.0264              1513.8131
 Red. masses --      1.1131                 1.1377                 1.0542
 Frc consts  --      1.4856                 1.5243                 1.4234
 IR Inten    --     12.0620                24.0601                 7.5842

                     70                     71                     72
                      A                      A                      A
 Frequencies --   1514.2973              1518.7012              1528.4008
 Red. masses --      1.0961                 1.0974                 1.1019
 Frc consts  --      1.4809                 1.4913                 1.5166
 IR Inten    --      6.7344                 6.0315                 7.6788

                     73                     74                     75
                      A                      A                      A
 Frequencies --   1540.5047              1551.4216              1555.9489
 Red. masses --      1.7045                 1.0485                 1.3389
 Frc consts  --      2.3833                 1.4868                 1.9099
 IR Inten    --    146.2563                 4.4702                 5.2136

                     76                     77                     78
                      A                      A                      A
 Frequencies --   1623.4426              1659.3589              2966.7434
 Red. masses --      6.8296                 5.6532                 1.0592
 Frc consts  --     10.6053                 9.1712                 5.4928
 IR Inten    --     15.8257               108.4955                74.2137

                     79                     80                     81
                      A                      A                      A
 Frequencies --   3016.9843              3040.7172              3044.7923
 Red. masses --      1.0557                 1.0634                 1.0698
 Frc consts  --      5.6615                 5.7931                 5.8433
 IR Inten    --     26.9447                33.6721                11.5504

                     82                     83                     84
                      A                      A                      A
 Frequencies --   3055.8048              3057.2299              3062.8579
 Red. masses --      1.0921                 1.0727                 1.0290
 Frc consts  --      6.0087                 5.9070                 5.6872
 IR Inten    --     44.8213                30.7949                30.7435

                     85                     86                     87
                      A                      A                      A
 Frequencies --   3070.8836              3080.4064              3091.4534
 Red. masses --      1.0742                 1.0997                 1.0996
 Frc consts  --      5.9685                 6.1479                 6.1915
 IR Inten    --     52.4904                35.7316                45.7842

                     88                     89                     90
                      A                      A                      A
 Frequencies --   3101.8348              3116.2667              3150.9249
 Red. masses --      1.1020                 1.1027                 1.1082
 Frc consts  --      6.2469                 6.3092                 6.4823
 IR Inten    --     63.3105                30.1134                11.2722

                     91                     92                     93
                      A                      A                      A
 Frequencies --   3154.9149              3202.2909              3204.8601
 Red. masses --      1.1051                 1.0878                 1.0893
 Frc consts  --      6.4810                 6.5725                 6.5921
 IR Inten    --     12.5512                 5.7678                 5.8281

                     94                     95                     96
                      A                      A                      A
 Frequencies --   3218.6768              3231.4515              3500.1051
 Red. masses --      1.0947                 1.0920                 1.0737
 Frc consts  --      6.6821                 6.7184                 7.7496
 IR Inten    --      7.3519                11.8906                 3.2343

 - Thermochemistry -
 -------------------
 Temperature   298.150 Kelvin.  Pressure   1.00000 Atm.
 Atom     1 has atomic number  6 and mass  12.00000

 Molecular mass:   225.11874 amu.
 Principal axes and moments of inertia in atomic units:
                           1         2         3
     Eigenvalues --  1277.23401********************
           X            0.99998   0.00490   0.00402
           Y           -0.00494   0.99995   0.00920
           Z           -0.00398  -0.00922   0.99995
 This molecule is an asymmetric top.
 Rotational symmetry number  1.
 Warning -- assumption of classical behavior for rotation
           may cause significant error
 Rotational temperatures (Kelvin)      0.06781     0.00807     0.00783
 Rotational constants (GHZ):           1.41301     0.16815     0.16307
 Zero-point vibrational energy     774681.2 (Joules/Mol)
                                  185.15326 (Kcal/Mol)
 Warning -- explicit consideration of  23 degrees of freedom as
           vibrations may cause significant error
 Vibrational temperatures:     23.66    35.48    54.60    59.98   103.14
          (Kelvin)            132.18   158.05   200.26   235.18   269.47
                              295.91   345.57   391.02   416.00   438.64
                              508.52   544.75   581.38   615.95   665.11
                              701.98   773.29   822.81   933.98   977.24
                             1011.51  1039.56  1040.57  1077.63  1181.62
                             1200.41  1213.68  1215.82  1302.50  1367.13
                             1380.06  1389.76  1420.01  1434.99  1448.63
                             1452.15  1484.50  1553.90  1571.16  1609.31
                             1613.03  1640.44  1664.81  1685.94  1726.60
                             1739.88  1784.18  1827.80  1866.45  1903.57
                             1916.37  1934.63  1943.01  1990.36  2002.49
                             2017.16  2048.43  2078.86  2093.52  2130.38
                             2152.92  2165.49  2169.71  2178.04  2178.74
                             2185.07  2199.03  2216.44  2232.15  2238.66
                             2335.77  2387.45  4268.48  4340.77  4374.91
                             4380.78  4396.62  4398.67  4406.77  4418.32
                             4432.02  4447.91  4462.85  4483.61  4533.48
                             4539.22  4607.38  4611.08  4630.96  4649.34
                             5035.87

 Zero-point correction=                           0.295061 (Hartree/Particle)
 Thermal correction to Energy=                    0.311689
 Thermal correction to Enthalpy=                  0.312633
 Thermal correction to Gibbs Free Energy=         0.247489
 Sum of electronic and zero-point Energies=           -996.630458
 Sum of electronic and thermal Energies=              -996.613829
 Sum of electronic and thermal Enthalpies=            -996.612885
 Sum of electronic and thermal Free Energies=         -996.678029

                     E (Thermal)             CV                S
                      KCal/Mol        Cal/Mol-Kelvin    Cal/Mol-Kelvin
 Total                  195.588             60.566            137.107
 Electronic               0.000              0.000              0.000
 Translational            0.889              2.981             42.137
 Rotational               0.889              2.981             33.383
 Vibrational            193.810             54.605             61.587
 Vibration     1          0.593              1.986              7.023
 Vibration     2          0.593              1.985              6.219
 Vibration     3          0.594              1.982              5.363
 Vibration     4          0.594              1.981              5.177
 Vibration     5          0.598              1.968              4.106
 Vibration     6          0.602              1.955              3.620
 Vibration     7          0.606              1.941              3.272
 Vibration     8          0.615              1.914              2.815
 Vibration     9          0.623              1.887              2.509
 Vibration    10          0.632              1.857              2.254
 Vibration    11          0.640              1.832              2.082
 Vibration    12          0.657              1.779              1.802
 Vibration    13          0.675              1.725              1.585
 Vibration    14          0.686              1.694              1.479
 Vibration    15          0.696              1.664              1.390
 Vibration    16          0.730              1.568              1.151
 Vibration    17          0.749              1.516              1.045
 Vibration    18          0.769              1.461              0.948
 Vibration    19          0.790              1.409              0.865
 Vibration    20          0.820              1.334              0.760
 Vibration    21          0.844              1.277              0.689
 Vibration    22          0.892              1.167              0.571
 Vibration    23          0.928              1.092              0.501

 Optimization completed.
    -- Stationary point found.
 Normal termination of Gaussian 16 at Thu Dec 10 14:57:55 2020.

 ----------------------------------------------------------------------
 # B3LYP/6-311++G(d,p) empiricaldispersion=gd3bj scf=xqc pop=npa geom=c
 heck
 ----------------------------------------------------------------------

 --------------------------------------
 CID_63649404_JID_5027_Energie_neutraal
 --------------------------------------
 Structure from the checkpoint file:  "JID_5027.chk"
 Charge =  0 Multiplicity = 1

 SCF Done:  E(RB3LYP) =  -997.119941081     A.U. after   15 cycles
 Normal termination of Gaussian 16 at Thu Dec 10 15:02:16 2020.

 ----------------------------------------------------------------------
 # B3LYP/6-311++G(d,p) empiricaldispersion=gd3bj scf=xqc pop=npa geom=c
 heck
 ----------------------------------------------------------------------

 ------------------------------------
 CID_63649404_JID_5027_Energie_kation
 ------------------------------------
 Structure from the checkpoint file:  "JID_5027.chk"
 Charge =  1 Multiplicity = 2

 SCF Done:  E(UB3LYP) =  -996.838542606     A.U. after   29 cycles
 Normal termination of Gaussian 16 at Thu Dec 10 15:21:02 2020.
 Gaussian 16:  ES64L-G16RevA.03 25-Dec-2016

 ----------------------------------------------------------------------
 # B3LYP/6-311++G(d,p) empiricaldispersion=gd3bj scf=xqc pop=npa geom=c
 heck
 ----------------------------------------------------------------------

 -----------------------------------
 CID_63649404_JID_5027_Energie_anion
 -----------------------------------
 Structure from the checkpoint file:  "JID_5027.chk"
 Charge = -1 Multiplicity = 2

                         Standard orientation:
 ---------------------------------------------------------------------
 Center     Atomic      Atomic             Coordinates (Angstroms)
 Number     Number       Type             X           Y           Z
 ---------------------------------------------------------------------
      1          6           0       -5.898786    1.180627   -0.172003
      2          7           0       -4.491058    1.557571   -0.187756
      3          6           0       -3.679816    0.929993    0.854198
      4          6           0       -3.634406   -0.610322    0.881988
      5          6           0       -3.180553   -1.254770   -0.435023
      6          6           0       -1.793970   -0.823631   -0.892279
      7          8           0       -0.873105   -1.142045    0.148319
      8          6           0        0.435734   -0.801604   -0.011317
      9          6           0        0.961436   -0.184028   -1.151934
     10          6           0        2.323316    0.120120   -1.204250
     11          6           0        3.171416   -0.182937   -0.136915
     12          6           0        2.633408   -0.811331    0.997240
     13          6           0        1.281023   -1.114194    1.063602
     14         16           0        4.918669    0.198709   -0.226176
     15          6           0        4.928060    1.832037    0.608546
     16          1           0       -6.332090    1.468248    0.793433
     17          1           0       -6.104469    0.105398   -0.319533
     18          1           0       -6.429739    1.735438   -0.952708
     19          1           0       -4.093659    1.360065   -1.103437
     20          1           0       -2.661124    1.325509    0.760106
     21          1           0       -4.056281    1.285772    1.822395
     22          1           0       -2.955196   -0.919969    1.684203
     23          1           0       -4.623715   -1.007204    1.140236
     24          1           0       -3.191335   -2.345943   -0.330401
     25          1           0       -3.885710   -1.011271   -1.241127
     26          1           0       -1.509719   -1.346732   -1.815926
     27          1           0       -1.759045    0.256055   -1.094717
     28          1           0        0.329162    0.059135   -1.997323
     29          1           0        2.732073    0.597345   -2.089541
     30          1           0        3.286603   -1.063486    1.826960
     31          1           0        0.852343   -1.598870    1.934874
     32          1           0        4.316275    2.551728    0.058636
     33          1           0        4.562546    1.745373    1.635012
     34          1           0        5.965455    2.177671    0.624277
 ---------------------------------------------------------------------

 SCF Done:  E(UB3LYP) =  -997.108957753     A.U. after   33 cycles
 SCF Done:  E(UB3LYP) =  -997.108957753     a.u. after    1 cycles

 The electronic state is 2-A.
 Alpha  occ. eigenvalues --  -88.75322 -19.06617 -14.20249 -10.15151 -10.13460
 Alpha  occ. eigenvalues --  -10.10995 -10.10339 -10.09837 -10.09599 -10.09478
 Alpha  occ. eigenvalues --  -10.09228 -10.08929 -10.08912 -10.07971 -10.07329
 Alpha  occ. eigenvalues --   -7.83904  -5.80312  -5.79949  -5.79256  -0.98391
 Alpha  occ. eigenvalues --   -0.80956  -0.77813  -0.71618  -0.69605  -0.66987
 Alpha  occ. eigenvalues --   -0.65039  -0.62463  -0.58745  -0.55757  -0.54496
 Alpha  occ. eigenvalues --   -0.52375  -0.49642  -0.47485  -0.45362  -0.41379
 Alpha  occ. eigenvalues --   -0.39462  -0.38739  -0.38401  -0.37033  -0.35987
 Alpha  occ. eigenvalues --   -0.34447  -0.34105  -0.33835  -0.33445  -0.33056
 Alpha  occ. eigenvalues --   -0.31862  -0.30411  -0.29904  -0.28539  -0.28241
 Alpha  occ. eigenvalues --   -0.27625  -0.26275  -0.25347  -0.24848  -0.24089
 Alpha  occ. eigenvalues --   -0.23458  -0.22275  -0.17624  -0.14429  -0.13940
 Alpha  occ. eigenvalues --   -0.13129   0.03962
 Alpha virt. eigenvalues --    0.05210   0.06462   0.06608   0.06992   0.07223
 Alpha virt. eigenvalues --    0.07783   0.08052   0.08600   0.09176   0.09586
 Alpha virt. eigenvalues --    0.09934   0.10380   0.10947   0.11263   0.11317

  Beta  occ. eigenvalues --  -88.75318 -19.06604 -14.20226 -10.15119 -10.13432
  Beta  occ. eigenvalues --  -10.10989 -10.10281 -10.09830 -10.09581 -10.09454
  Beta  occ. eigenvalues --  -10.09195 -10.08933 -10.08908 -10.07943 -10.07322
  Beta  occ. eigenvalues --   -7.83900  -5.80305  -5.79940  -5.79254  -0.98359
  Beta  occ. eigenvalues --   -0.80919  -0.77780  -0.71572  -0.69559  -0.66954
  Beta  occ. eigenvalues --   -0.64990  -0.62416  -0.58686  -0.55688  -0.54436
  Beta  occ. eigenvalues --   -0.52332  -0.49604  -0.47435  -0.45314  -0.41331
  Beta  occ. eigenvalues --   -0.39432  -0.38693  -0.38362  -0.36997  -0.35954
  Beta  occ. eigenvalues --   -0.34425  -0.34062  -0.33779  -0.33397  -0.33009
  Beta  occ. eigenvalues --   -0.31819  -0.30358  -0.29855  -0.28492  -0.28193
  Beta  occ. eigenvalues --   -0.27586  -0.26247  -0.25300  -0.24822  -0.24040
  Beta  occ. eigenvalues --   -0.23419  -0.22215  -0.17561  -0.14389  -0.13877
  Beta  occ. eigenvalues --   -0.13102
  Beta virt. eigenvalues --    0.05892   0.06179   0.06665   0.07044   0.07211
  Beta virt. eigenvalues --    0.07519   0.08158   0.08320   0.08711   0.09477
  Beta virt. eigenvalues --    0.09882   0.10323   0.10568   0.11354   0.11459

 Mulliken charges and spin densities:
               1          2
     1  C    0.646966  -1.074005
     2  N   -0.249147   0.124988
     3  C    0.052848  -0.485323
     4  C   -0.456840   0.298720
     5  C    0.136139  -0.732210
     6  C    0.087601  -0.427558
     7  O   -0.034241   0.030311
     8  C   -0.012158  -0.383479
     9  C    0.989769  -0.543864
    10  C   -0.963633   0.094886
    11  C    1.540604  -0.160147
    12  C   -0.474692   0.130029
    13  C   -0.711254   0.283822
    14  S   -0.168017  -0.027355
    15  C    0.208768  -0.939747
    16  H   -0.067222   0.206460
    17  H   -0.142961   0.262162
    18  H   -0.311400   0.453473
    19  H   -0.087884   0.326990
    20  H    0.121584   0.055469
    21  H    0.036065   0.105135
    22  H    0.116620   0.032381
    23  H    0.029372   0.128919
    24  H   -0.071348   0.238838
    25  H   -0.473771   0.669821
    26  H   -0.237164   0.417200
    27  H    0.274887  -0.104786
    28  H   -0.444902   0.630134
    29  H   -0.027338   0.228470
    30  H    0.031333   0.144537
    31  H    0.099848   0.065966
    32  H   -0.107380   0.287894
    33  H   -0.106659   0.280313
    34  H   -0.224388   0.381556
 Sum of Mulliken charges =  -1.00000   1.00000

 Dipole moment (field-independent basis, Debye):
    X=              2.5527    Y=             -2.6506    Z=              3.7946  Tot=              5.2859
 Quadrupole moment (field-independent basis, Debye-Ang):
   XX=           -229.9941   YY=           -140.0618   ZZ=           -134.3230
   XY=             -3.0036   XZ=            -15.2353   YZ=             -3.3501

 Summary of Natural Population Analysis:

                                       Natural Population
                Natural  -----------------------------------------------
    Atom  No    Charge         Core      Valence    Rydberg      Total
 -----------------------------------------------------------------------
      C    1   -0.18155      0.99966     2.17259    0.00930     3.18155
      N    2   -0.33996      0.99976     2.82739    0.01280     3.83996
      C    3   -0.08832      0.99962     2.07800    0.01070     3.08832
      C    4   -0.20328      0.99962     2.19516    0.00850     3.20328
      C    5   -0.20170      0.99962     2.19116    0.01092     3.20170
      C    6   -0.01341      0.99956     2.00112    0.01273     3.01341
      O    7   -0.27668      0.99985     3.26726    0.00957     4.27668
      C    8    0.17271      0.99939     1.81456    0.01333     2.82729
      C    9   -0.14389      0.99952     2.13564    0.00873     3.14389
      C   10   -0.08623      0.99950     2.07496    0.01177     3.08623
      C   11   -0.11049      0.99939     2.09831    0.01278     3.11049
      C   12   -0.09157      0.99950     2.08213    0.00994     3.09157
      C   13   -0.12136      0.99953     2.11321    0.00863     3.12136
      S   14    0.09426      4.99957     2.88366    0.02251     7.90574
      C   15   -0.34321      0.99962     2.33737    0.00622     3.34321
      H   16    0.08843      0.00000     0.41055    0.00102     0.41157
      H   17    0.07973      0.00000     0.41864    0.00164     0.42027
      H   18    0.09634      0.00000     0.40263    0.00103     0.40366
      H   19    0.17266      0.00000     0.32331    0.00403     0.32734
      H   20    0.09432      0.00000     0.40443    0.00126     0.40568
      H   21    0.08988      0.00000     0.40909    0.00103     0.41012
      H   22    0.10248      0.00000     0.39624    0.00128     0.39752
      H   23    0.09663      0.00000     0.40238    0.00098     0.40337
      H   24    0.10116      0.00000     0.39771    0.00114     0.39884
      H   25    0.10393      0.00000     0.39398    0.00209     0.39607
      H   26    0.08961      0.00000     0.40867    0.00171     0.41039
      H   27    0.08494      0.00000     0.41297    0.00209     0.41506
      H   28    0.11016      0.00000     0.38842    0.00141     0.38984
      H   29    0.10552      0.00000     0.39313    0.00135     0.39448
      H   30    0.10400      0.00000     0.39484    0.00116     0.39600
      H   31    0.10553      0.00000     0.39316    0.00131     0.39447
      H   32    0.10264      0.00000     0.39576    0.00160     0.39736
      H   33    0.10121      0.00000     0.39711    0.00168     0.39879
      H   34    0.10551      0.00000     0.39285    0.00164     0.39449
 =======================================================================
   * Total *   -0.00000     18.99370    41.80842    0.19788    61.00000

 Normal termination of Gaussian 16 at Thu Dec 10 15:38:14 2020.
