 Gaussian 16, Revision A.03,

 -----------------------------------------------------------
 # opt freq B3LYP/6-31G(d) empiricaldispersion=gd3bj scf=xqc
 -----------------------------------------------------------

 -----------------------------
 CID_3023981_JID_3348_neutraal
 -----------------------------
 Symbolic Z-matrix:
 Charge =  0 Multiplicity = 1

 SCF Done:  E(RB3LYP) =  -545.789719874     A.U. after   14 cycles
 SCF Done:  E(RB3LYP) =  -545.791716594     A.U. after   11 cycles
 SCF Done:  E(RB3LYP) =  -545.791570979     A.U. after   11 cycles
 SCF Done:  E(RB3LYP) =  -545.792188886     A.U. after   10 cycles
 SCF Done:  E(RB3LYP) =  -545.792243594     A.U. after   10 cycles
 SCF Done:  E(RB3LYP) =  -545.792256567     A.U. after    9 cycles
 SCF Done:  E(RB3LYP) =  -545.792259278     A.U. after    9 cycles
 SCF Done:  E(RB3LYP) =  -545.792259440     A.U. after    6 cycles
 SCF Done:  E(RB3LYP) =  -545.792259468     A.U. after    6 cycles
 Optimization completed.
    -- Stationary point found.
 Normal termination of Gaussian 16 at Wed Dec  9 22:57:09 2020.

 --------------------------------------------------------------------
 #N Geom=AllCheck Guess=TCheck SCRF=Check GenChk RB3LYP/6-31G(d) Freq
 --------------------------------------------------------------------

 Structure from the checkpoint file:  "JID_3348.chk"
 -----------------------------
 CID_3023981_JID_3348_neutraal
 -----------------------------
 Charge =  0 Multiplicity = 1

 SCF Done:  E(RB3LYP) =  -545.792259468     A.U. after    1 cycles

  Exact polarizability: 151.087  -2.775 119.866   1.905  -1.555 112.484
 Approx polarizability: 201.291 -12.981 173.382   6.691  -5.235 163.634

                      1                      2                      3
                      A                      A                      A
 Frequencies --     50.8509                62.0555                90.9681
 Red. masses --      2.9197                 3.4845                 3.0224
 Frc consts  --      0.0044                 0.0079                 0.0147
 IR Inten    --      0.2708                 0.1697                 0.3623

                      4                      5                      6
                      A                      A                      A
 Frequencies --    113.5899               158.2920               168.8665
 Red. masses --      2.7096                 1.9510                 1.5989
 Frc consts  --      0.0206                 0.0288                 0.0269
 IR Inten    --      2.5226                 0.7088                 0.7782

                      7                      8                      9
                      A                      A                      A
 Frequencies --    185.6825               220.1461               251.9246
 Red. masses --      1.1462                 1.6959                 1.4763
 Frc consts  --      0.0233                 0.0484                 0.0552
 IR Inten    --      0.0463                 0.4846                 4.0591

                     10                     11                     12
                      A                      A                      A
 Frequencies --    262.4148               270.7453               285.0958
 Red. masses --      1.7107                 1.7393                 1.3837
 Frc consts  --      0.0694                 0.0751                 0.0663
 IR Inten    --      1.2445                 0.3091                 0.2555

                     13                     14                     15
                      A                      A                      A
 Frequencies --    324.3371               328.5052               348.3616
 Red. masses --      2.6077                 2.3463                 2.6842
 Frc consts  --      0.1616                 0.1492                 0.1919
 IR Inten    --      0.9552                 0.2017                 0.6835

                     16                     17                     18
                      A                      A                      A
 Frequencies --    365.8898               392.0992               415.9888
 Red. masses --      2.6057                 2.2038                 2.0798
 Frc consts  --      0.2055                 0.1996                 0.2121
 IR Inten    --      1.0598                 0.7243                 0.0586

                     19                     20                     21
                      A                      A                      A
 Frequencies --    442.0303               468.8656               495.3752
 Red. masses --      1.6592                 2.7152                 2.5921
 Frc consts  --      0.1910                 0.3517                 0.3748
 IR Inten    --      1.2283                 0.4538                 5.4289

                     22                     23                     24
                      A                      A                      A
 Frequencies --    542.0879               582.0553               671.4442
 Red. masses --      2.6091                 3.2640                 3.6230
 Frc consts  --      0.4517                 0.6515                 0.9624
 IR Inten    --      3.3845                 2.8388                 2.1806

                     25                     26                     27
                      A                      A                      A
 Frequencies --    768.3057               801.0169               857.5540
 Red. masses --      2.5199                 3.0816                 2.2479
 Frc consts  --      0.8764                 1.1649                 0.9740
 IR Inten    --      2.4428                 0.3102                 1.3828

                     28                     29                     30
                      A                      A                      A
 Frequencies --    872.8075               904.3040               911.7161
 Red. masses --      1.6565                 1.7506                 1.6869
 Frc consts  --      0.7435                 0.8434                 0.8261
 IR Inten    --      9.8872                 2.1015                 0.4137

                     31                     32                     33
                      A                      A                      A
 Frequencies --    929.6362               948.0409               950.3572
 Red. masses --      2.1607                 2.0042                 2.7840
 Frc consts  --      1.1002                 1.0613                 1.4815
 IR Inten    --      0.6581                 8.4174                23.7974

                     34                     35                     36
                      A                      A                      A
 Frequencies --    959.9883               977.9495              1005.0607
 Red. masses --      1.4735                 2.0060                 1.7246
 Frc consts  --      0.8001                 1.1304                 1.0264
 IR Inten    --      0.5393                 1.0126                 4.5736

                     37                     38                     39
                      A                      A                      A
 Frequencies --   1022.7991              1047.3349              1059.5918
 Red. masses --      1.7109                 1.4173                 1.7494
 Frc consts  --      1.0545                 0.9160                 1.1572
 IR Inten    --      2.2249                 0.6489                 1.8939

                     40                     41                     42
                      A                      A                      A
 Frequencies --   1088.6226              1097.4138              1136.2553
 Red. masses --      1.7561                 2.5350                 1.8642
 Frc consts  --      1.2261                 1.7988                 1.4180
 IR Inten    --      3.0669                10.3280                28.2626

                     43                     44                     45
                      A                      A                      A
 Frequencies --   1148.1119              1156.4062              1190.5881
 Red. masses --      2.5348                 1.4962                 1.2801
 Frc consts  --      1.9686                 1.1788                 1.0691
 IR Inten    --     72.0578                16.7746                 2.0227

                     46                     47                     48
                      A                      A                      A
 Frequencies --   1195.5934              1209.3727              1218.5645
 Red. masses --      1.6119                 2.2167                 1.5118
 Frc consts  --      1.3575                 1.9102                 1.3226
 IR Inten    --      2.3428                 2.6756                22.7292

                     49                     50                     51
                      A                      A                      A
 Frequencies --   1247.0715              1281.8949              1297.9153
 Red. masses --      1.8887                 1.6642                 1.6582
 Frc consts  --      1.7306                 1.6112                 1.6458
 IR Inten    --      3.9290                 4.3913                 3.5321

                     52                     53                     54
                      A                      A                      A
 Frequencies --   1304.1812              1321.1905              1347.8932
 Red. masses --      1.6005                 1.2752                 1.5244
 Frc consts  --      1.6039                 1.3115                 1.6318
 IR Inten    --      4.1450                 6.6322                 1.7399

                     55                     56                     57
                      A                      A                      A
 Frequencies --   1357.2833              1363.6033              1389.7431
 Red. masses --      1.3653                 1.4159                 1.6735
 Frc consts  --      1.4819                 1.5512                 1.9044
 IR Inten    --      7.5755                10.7020                 2.2630

                     58                     59                     60
                      A                      A                      A
 Frequencies --   1401.6009              1408.9897              1426.8231
 Red. masses --      1.3125                 1.3090                 1.2829
 Frc consts  --      1.5192                 1.5311                 1.5388
 IR Inten    --      6.2239                 0.6896                 0.6618

                     61                     62                     63
                      A                      A                      A
 Frequencies --   1430.3760              1443.9219              1450.2674
 Red. masses --      1.4207                 1.2698                 1.2295
 Frc consts  --      1.7126                 1.5598                 1.5236
 IR Inten    --     14.7086                 7.9162                 5.0145

                     64                     65                     66
                      A                      A                      A
 Frequencies --   1497.4211              1503.0756              1505.7987
 Red. masses --      1.1353                 1.1008                 1.0871
 Frc consts  --      1.4999                 1.4653                 1.4523
 IR Inten    --      1.8002                 1.3758                 2.7557

                     67                     68                     69
                      A                      A                      A
 Frequencies --   1509.4847              1512.2343              1515.0229
 Red. masses --      1.0667                 1.0722                 1.0541
 Frc consts  --      1.4321                 1.4447                 1.4255
 IR Inten    --      1.7149                 1.8625                 3.5848

                     70                     71                     72
                      A                      A                      A
 Frequencies --   1520.5879              1522.0909              1529.8212
 Red. masses --      1.0674                 1.0735                 1.0598
 Frc consts  --      1.4542                 1.4653                 1.4614
 IR Inten    --      3.8507                 5.8553                 3.4321

                     73                     74                     75
                      A                      A                      A
 Frequencies --   1533.0899              1536.2875              1541.5047
 Red. masses --      1.0615                 1.0594                 1.0551
 Frc consts  --      1.4699                 1.4732                 1.4772
 IR Inten    --      8.2672                 1.8555                10.0578

                     76                     77                     78
                      A                      A                      A
 Frequencies --   1553.2418              1751.8881              2990.9938
 Red. masses --      1.0526                 7.3338                 1.0409
 Frc consts  --      1.4962                13.2614                 5.4864
 IR Inten    --      9.3420                10.1538                45.6745

                     79                     80                     81
                      A                      A                      A
 Frequencies --   3004.1551              3011.9909              3014.1306
 Red. masses --      1.0675                 1.0707                 1.0652
 Frc consts  --      5.6761                 5.7228                 5.7017
 IR Inten    --     12.3190                36.1188                 9.3969

                     82                     83                     84
                      A                      A                      A
 Frequencies --   3017.7596              3031.1625              3037.0485
 Red. masses --      1.0678                 1.0714                 1.0387
 Frc consts  --      5.7292                 5.7999                 5.6450
 IR Inten    --     37.0461                81.5071                62.9723

                     85                     86                     87
                      A                      A                      A
 Frequencies --   3043.3727              3048.5296              3052.6371
 Red. masses --      1.0979                 1.0398                 1.0458
 Frc consts  --      5.9915                 5.6938                 5.7416
 IR Inten    --     44.0889                31.8706                16.2031

                     88                     89                     90
                      A                      A                      A
 Frequencies --   3058.7799              3070.0439              3074.9147
 Red. masses --      1.0985                 1.0982                 1.0948
 Frc consts  --      6.0557                 6.0982                 6.0990
 IR Inten    --     41.4231                37.4656                21.8293

                     91                     92                     93
                      A                      A                      A
 Frequencies --   3101.6214              3104.5211              3106.0097
 Red. masses --      1.1022                 1.0981                 1.0994
 Frc consts  --      6.2473                 6.2354                 6.2492
 IR Inten    --      2.0411                 4.7605                40.5176

                     94                     95                     96
                      A                      A                      A
 Frequencies --   3107.9391              3109.4003              3133.6841
 Red. masses --      1.0981                 1.0993                 1.0973
 Frc consts  --      6.2496                 6.2623                 6.3485
 IR Inten    --     74.4490                57.8852                48.7735

                     97                     98                     99
                      A                      A                      A
 Frequencies --   3141.7070              3142.5477              3160.8166
 Red. masses --      1.0969                 1.0897                 1.0939
 Frc consts  --      6.3787                 6.3404                 6.4391
 IR Inten    --     41.7455                 8.0429                26.0000

 - Thermochemistry -
 -------------------
 Temperature   298.150 Kelvin.  Pressure   1.00000 Atm.
 Atom     1 has atomic number  6 and mass  12.00000

 Molecular mass:   182.16707 amu.
 Principal axes and moments of inertia in atomic units:
                           1         2         3
     Eigenvalues --  1486.667723692.152173928.55520
           X            0.99983   0.01856   0.00094
           Y           -0.01856   0.99983  -0.00192
           Z           -0.00097   0.00190   1.00000
 This molecule is an asymmetric top.
 Rotational symmetry number  1.
 Warning -- assumption of classical behavior for rotation
           may cause significant error
 Rotational temperatures (Kelvin)      0.05826     0.02346     0.02205
 Rotational constants (GHZ):           1.21395     0.48880     0.45939
 Zero-point vibrational energy     846496.3 (Joules/Mol)
                                  202.31748 (Kcal/Mol)
 Warning -- explicit consideration of  23 degrees of freedom as
           vibrations may cause significant error
 Vibrational temperatures:     73.16    89.28   130.88   163.43   227.75
          (Kelvin)            242.96   267.16   316.74   362.46   377.56
                              389.54   410.19   466.65   472.65   501.21
                              526.43   564.14   598.52   635.98   674.59
                              712.73   779.94   837.45   966.06  1105.42
                             1152.48  1233.83  1255.78  1301.09  1311.76
                             1337.54  1364.02  1367.35  1381.21  1407.05
                             1446.06  1471.58  1506.88  1524.52  1566.29
                             1578.93  1634.82  1651.88  1663.81  1712.99
                             1720.19  1740.02  1753.24  1794.26  1844.36
                             1867.41  1876.43  1900.90  1939.32  1952.83
                             1961.92  1999.53  2016.59  2027.22  2052.88
                             2057.99  2077.48  2086.61  2154.45  2162.59
                             2166.51  2171.81  2175.77  2179.78  2187.79
                             2189.95  2201.07  2205.77  2210.38  2217.88
                             2234.77  2520.58  4303.37  4322.31  4333.58
                             4336.66  4341.88  4361.17  4369.64  4378.73
                             4386.15  4392.06  4400.90  4417.11  4424.12
                             4462.54  4466.71  4468.86  4471.63  4473.73
                             4508.67  4520.22  4521.43  4547.71

 Zero-point correction=                           0.322413 (Hartree/Particle)
 Thermal correction to Energy=                    0.337002
 Thermal correction to Enthalpy=                  0.337946
 Thermal correction to Gibbs Free Energy=         0.281951
 Sum of electronic and zero-point Energies=           -545.469846
 Sum of electronic and thermal Energies=              -545.455258
 Sum of electronic and thermal Enthalpies=            -545.454313
 Sum of electronic and thermal Free Energies=         -545.510309

                     E (Thermal)             CV                S
                      KCal/Mol        Cal/Mol-Kelvin    Cal/Mol-Kelvin
 Total                  211.472             56.367            117.853
 Electronic               0.000              0.000              0.000
 Translational            0.889              2.981             41.506
 Rotational               0.889              2.981             31.445
 Vibrational            209.694             50.406             44.902
 Vibration     1          0.595              1.977              4.784
 Vibration     2          0.597              1.972              4.391
 Vibration     3          0.602              1.956              3.639
 Vibration     4          0.607              1.938              3.207
 Vibration     5          0.621              1.893              2.570
 Vibration     6          0.625              1.881              2.448
 Vibration     7          0.632              1.859              2.271
 Vibration     8          0.647              1.810              1.958
 Vibration     9          0.664              1.760              1.717
 Vibration    10          0.670              1.742              1.646
 Vibration    11          0.674              1.727              1.591
 Vibration    12          0.683              1.701              1.503
 Vibration    13          0.709              1.627              1.288
 Vibration    14          0.712              1.619              1.267
 Vibration    15          0.726              1.579              1.174
 Vibration    16          0.739              1.542              1.097
 Vibration    17          0.760              1.487              0.992
 Vibration    18          0.779              1.436              0.906
 Vibration    19          0.802              1.378              0.820
 Vibration    20          0.826              1.319              0.741
 Vibration    21          0.851              1.260              0.670
 Vibration    22          0.897              1.157              0.561
 Vibration    23          0.939              1.070              0.482

                           ! Non-Optimized Parameters !
 Normal termination of Gaussian 16 at Wed Dec  9 23:07:53 2020.

 ----------------------------------------------------------------------
 # B3LYP/6-311++G(d,p) empiricaldispersion=gd3bj scf=xqc pop=npa geom=c
 heck
 ----------------------------------------------------------------------

 -------------------------------------
 CID_3023981_JID_3348_Energie_neutraal
 -------------------------------------
 Structure from the checkpoint file:  "JID_3348.chk"
 Charge =  0 Multiplicity = 1

 SCF Done:  E(RB3LYP) =  -545.944658967     A.U. after   14 cycles
 Normal termination of Gaussian 16 at Wed Dec  9 23:12:34 2020.

 ----------------------------------------------------------------------
 # B3LYP/6-311++G(d,p) empiricaldispersion=gd3bj scf=xqc pop=npa geom=c
 heck
 ----------------------------------------------------------------------

 -----------------------------------
 CID_3023981_JID_3348_Energie_kation
 -----------------------------------
 Structure from the checkpoint file:  "JID_3348.chk"
 Charge =  1 Multiplicity = 2

 SCF Done:  E(UB3LYP) =  -545.632054174     A.U. after   22 cycles
 Normal termination of Gaussian 16 at Wed Dec  9 23:22:02 2020.
 Gaussian 16:  ES64L-G16RevA.03 25-Dec-2016

 ----------------------------------------------------------------------
 # B3LYP/6-311++G(d,p) empiricaldispersion=gd3bj scf=xqc pop=npa geom=c
 heck
 ----------------------------------------------------------------------

 ----------------------------------
 CID_3023981_JID_3348_Energie_anion
 ----------------------------------
 Structure from the checkpoint file:  "JID_3348.chk"
 Charge = -1 Multiplicity = 2

                         Standard orientation:
 ---------------------------------------------------------------------
 Center     Atomic      Atomic             Coordinates (Angstroms)
 Number     Number       Type             X           Y           Z
 ---------------------------------------------------------------------
      1          6           0       -0.115377    2.230453    0.713558
      2          6           0       -0.911373    1.736975   -0.502317
      3          6           0       -0.017069    0.921444   -1.466918
      4          6           0        0.211331   -0.481742   -0.958306
      5          6           0        1.402710   -1.038971   -0.701279
      6          6           0        2.769059   -0.434382   -0.870658
      7          8           0        3.598080   -0.631979    0.271027
      8          6           0        3.163527    0.095880    1.399974
      9          6           0       -1.075873   -1.239637   -0.738819
     10          6           0       -2.013772   -0.530453    0.272647
     11          6           0       -2.192010    0.945296   -0.161602
     12          6           0       -1.438816   -0.665335    1.693778
     13          6           0       -3.391151   -1.212748    0.245817
     14          1           0       -0.770451    2.716237    1.445716
     15          1           0        0.638125    2.962875    0.399967
     16          1           0        0.412470    1.419691    1.220119
     17          1           0       -1.239917    2.633722   -1.045714
     18          1           0       -0.527800    0.853116   -2.439345
     19          1           0        0.920225    1.456570   -1.643772
     20          1           0        1.424006   -2.066300   -0.334937
     21          1           0        3.304228   -0.932480   -1.688590
     22          1           0        2.713967    0.637242   -1.113688
     23          1           0        3.109841    1.176751    1.189550
     24          1           0        2.174383   -0.233554    1.750890
     25          1           0        3.897528   -0.076291    2.191622
     26          1           0       -0.872130   -2.262642   -0.400305
     27          1           0       -1.608934   -1.319928   -1.699187
     28          1           0       -2.765054    1.482837    0.606036
     29          1           0       -2.820161    0.942165   -1.064068
     30          1           0       -2.001358   -0.051846    2.407067
     31          1           0       -1.500367   -1.708294    2.027591
     32          1           0       -0.388724   -0.371070    1.744121
     33          1           0       -3.845861   -1.151786   -0.750142
     34          1           0       -3.308451   -2.272641    0.514977
     35          1           0       -4.077328   -0.739227    0.958632
 ---------------------------------------------------------------------

 SCF Done:  E(UB3LYP) =  -545.930584231     A.U. after   30 cycles

 The electronic state is 2-A.
 Alpha  occ. eigenvalues --  -19.03017 -10.12048 -10.11547 -10.07971 -10.07652
 Alpha  occ. eigenvalues --  -10.06735 -10.06295 -10.06210 -10.06055 -10.05463
 Alpha  occ. eigenvalues --  -10.05375 -10.05187 -10.04879  -0.94128  -0.74873
 Alpha  occ. eigenvalues --   -0.69377  -0.67695  -0.63586  -0.58930  -0.58148
 Alpha  occ. eigenvalues --   -0.57499  -0.57323  -0.52168  -0.47524  -0.44046
 Alpha  occ. eigenvalues --   -0.40855  -0.39762  -0.38453  -0.37726  -0.35118
 Alpha  occ. eigenvalues --   -0.34563  -0.34472  -0.33923  -0.32567  -0.31686
 Alpha  occ. eigenvalues --   -0.30206  -0.29135  -0.28448  -0.28187  -0.26855
 Alpha  occ. eigenvalues --   -0.26541  -0.25460  -0.24327  -0.23586  -0.22699
 Alpha  occ. eigenvalues --   -0.22467  -0.21886  -0.20577  -0.19205  -0.16737
 Alpha  occ. eigenvalues --   -0.14283   0.04541
 Alpha virt. eigenvalues --    0.07017   0.07153   0.07785   0.08802   0.09041
 Alpha virt. eigenvalues --    0.09257   0.09808   0.10079   0.10862   0.11539
 Alpha virt. eigenvalues --    0.11618   0.12016   0.12369   0.12713   0.13127

  Beta  occ. eigenvalues --  -19.03007 -10.12040 -10.11533 -10.07973 -10.07646
  Beta  occ. eigenvalues --  -10.06720 -10.06276 -10.06186 -10.06032 -10.05437
  Beta  occ. eigenvalues --  -10.05346 -10.05161 -10.04849  -0.94105  -0.74841
  Beta  occ. eigenvalues --   -0.69346  -0.67656  -0.63556  -0.58884  -0.58100
  Beta  occ. eigenvalues --   -0.57446  -0.57265  -0.52133  -0.47468  -0.43995
  Beta  occ. eigenvalues --   -0.40798  -0.39719  -0.38427  -0.37690  -0.35093
  Beta  occ. eigenvalues --   -0.34537  -0.34427  -0.33891  -0.32530  -0.31650
  Beta  occ. eigenvalues --   -0.30170  -0.29112  -0.28414  -0.28156  -0.26826
  Beta  occ. eigenvalues --   -0.26509  -0.25415  -0.24297  -0.23555  -0.22657
  Beta  occ. eigenvalues --   -0.22434  -0.21854  -0.20533  -0.19159  -0.16713
  Beta  occ. eigenvalues --   -0.14192
  Beta virt. eigenvalues --    0.06696   0.07504   0.07962   0.08254   0.09059
  Beta virt. eigenvalues --    0.09335   0.09850   0.10326   0.10479   0.11268
  Beta virt. eigenvalues --    0.11817   0.11925   0.12359   0.12806   0.12963

 Mulliken charges and spin densities:
               1          2
     1  C    0.889775  -1.638334
     2  C   -1.276520   1.715027
     3  C    0.109953  -0.901287
     4  C    0.925477   0.111042
     5  C   -0.278605  -0.132200
     6  C    0.261345  -0.798701
     7  O   -0.131947   0.016997
     8  C   -0.051636  -0.285101
     9  C   -0.585152  -0.225845
    10  C   -1.789373   2.603126
    11  C    1.563656  -2.342961
    12  C    0.285927  -0.985441
    13  C    1.117626  -1.552638
    14  H    0.033653   0.103168
    15  H   -0.416046   0.573596
    16  H   -0.024363   0.174500
    17  H   -0.783206   1.015745
    18  H   -0.134338   0.313743
    19  H   -0.338785   0.453797
    20  H    0.031014   0.132725
    21  H    0.102879   0.056121
    22  H    0.144998   0.025264
    23  H    0.043790   0.073577
    24  H   -0.064603   0.221379
    25  H   -0.035903   0.191304
    26  H    0.038472   0.136318
    27  H   -0.253313   0.428909
    28  H   -0.158296   0.337246
    29  H   -0.058816   0.208446
    30  H   -0.140110   0.304197
    31  H   -0.132587   0.271429
    32  H    0.526298  -0.436975
    33  H   -0.255000   0.401114
    34  H   -0.068060   0.197579
    35  H   -0.098204   0.233133
 Sum of Mulliken charges =  -1.00000   1.00000

 Dipole moment (field-independent basis, Debye):
    X=              3.3310    Y=             -3.0696    Z=              1.6402  Tot=              4.8175
 Quadrupole moment (field-independent basis, Debye-Ang):
   XX=           -145.3574   YY=           -132.5130   ZZ=           -124.3349
   XY=              1.7439   XZ=             -4.5014   YZ=              3.8000

 Summary of Natural Population Analysis:

                                       Natural Population
                Natural  -----------------------------------------------
    Atom  No    Charge         Core      Valence    Rydberg      Total
 -----------------------------------------------------------------------
      C    1   -0.28428      0.99964     2.27784    0.00680     3.28428
      C    2   -0.10830      0.99960     2.09589    0.01281     3.10830
      C    3   -0.20503      0.99956     2.19439    0.01108     3.20503
      C    4    0.01242      0.99948     1.97590    0.01220     2.98758
      C    5   -0.11972      0.99942     2.11080    0.00949     3.11972
      C    6   -0.02085      0.99956     2.00967    0.01162     3.02085
      O    7   -0.29840      0.99989     3.28914    0.00937     4.29840
      C    8   -0.10019      0.99962     2.09198    0.00859     3.10019
      C    9   -0.19995      0.99955     2.18938    0.01103     3.19995
      C   10   -0.04328      0.99957     2.03170    0.01202     3.04328
      C   11   -0.18650      0.99957     2.17550    0.01142     3.18650
      C   12   -0.28522      0.99961     2.27803    0.00758     3.28522
      C   13   -0.28050      0.99963     2.27352    0.00735     3.28050
      H   14    0.09921      0.00000     0.39978    0.00100     0.40079
      H   15    0.09904      0.00000     0.39951    0.00146     0.40096
      H   16    0.09524      0.00000     0.40314    0.00163     0.40476
      H   17    0.09898      0.00000     0.39822    0.00280     0.40102
      H   18    0.10781      0.00000     0.39020    0.00199     0.39219
      H   19    0.10188      0.00000     0.39668    0.00145     0.39812
      H   20    0.09346      0.00000     0.40498    0.00157     0.40654
      H   21    0.09050      0.00000     0.40816    0.00135     0.40950
      H   22    0.08226      0.00000     0.41613    0.00161     0.41774
      H   23    0.07905      0.00000     0.41941    0.00155     0.42095
      H   24    0.08233      0.00000     0.41605    0.00162     0.41767
      H   25    0.08654      0.00000     0.41241    0.00104     0.41346
      H   26    0.10019      0.00000     0.39836    0.00145     0.39981
      H   27    0.10518      0.00000     0.39322    0.00160     0.39482
      H   28    0.10067      0.00000     0.39795    0.00138     0.39933
      H   29    0.10229      0.00000     0.39564    0.00207     0.39771
      H   30    0.09995      0.00000     0.39914    0.00091     0.40005
      H   31    0.09705      0.00000     0.40201    0.00094     0.40295
      H   32    0.10067      0.00000     0.39779    0.00154     0.39933
      H   33    0.10078      0.00000     0.39805    0.00116     0.39922
      H   34    0.09729      0.00000     0.40172    0.00098     0.40271
      H   35    0.09944      0.00000     0.39958    0.00098     0.40056
 =======================================================================
   * Total *    0.00000     12.99469    37.84185    0.16346    51.00000

 Normal termination of Gaussian 16 at Wed Dec  9 23:34:18 2020.
