 Gaussian 16, Revision A.03,

 -----------------------------------------------------------
 # opt freq B3LYP/6-31G(d) empiricaldispersion=gd3bj scf=xqc
 -----------------------------------------------------------

 ------------------------------
 CID_62970626_JID_6835_neutraal
 ------------------------------
 Symbolic Z-matrix:
 Charge =  0 Multiplicity = 1

 SCF Done:  E(RB3LYP) =  -668.708821014     A.U. after   15 cycles
 SCF Done:  E(RB3LYP) =  -668.713692160     A.U. after   12 cycles
 SCF Done:  E(RB3LYP) =  -668.714166520     A.U. after   12 cycles
 SCF Done:  E(RB3LYP) =  -668.714530497     A.U. after   11 cycles
 SCF Done:  E(RB3LYP) =  -668.714797308     A.U. after   12 cycles
 SCF Done:  E(RB3LYP) =  -668.714968578     A.U. after   12 cycles
 SCF Done:  E(RB3LYP) =  -668.715047603     A.U. after   11 cycles
 SCF Done:  E(RB3LYP) =  -668.715067491     A.U. after   10 cycles
 SCF Done:  E(RB3LYP) =  -668.715095481     A.U. after   11 cycles
 SCF Done:  E(RB3LYP) =  -668.715124777     A.U. after   11 cycles
 SCF Done:  E(RB3LYP) =  -668.717599965     A.U. after   10 cycles
 SCF Done:  E(RB3LYP) =  -668.717601273     A.U. after    9 cycles
 SCF Done:  E(RB3LYP) =  -668.717601476     A.U. after    8 cycles
 SCF Done:  E(RB3LYP) =  -668.717601538     A.U. after    7 cycles
 SCF Done:  E(RB3LYP) =  -668.717601544     A.U. after    7 cycles
 Optimization completed.
    -- Stationary point found.
 Normal termination of Gaussian 16 at Fri Dec 11 01:08:16 2020.

 --------------------------------------------------------------------
 #N Geom=AllCheck Guess=TCheck SCRF=Check GenChk RB3LYP/6-31G(d) Freq
 --------------------------------------------------------------------

 Structure from the checkpoint file:  "JID_6835.chk"
 ------------------------------
 CID_62970626_JID_6835_neutraal
 ------------------------------
 Charge =  0 Multiplicity = 1

 SCF Done:  E(RB3LYP) =  -668.717601544     A.U. after    1 cycles

  Exact polarizability: 229.641  -1.681 144.787  11.139  -4.396  95.894
 Approx polarizability: 315.954  -6.514 238.736  21.960 -14.645 160.212

                      1                      2                      3
                      A                      A                      A
 Frequencies --     34.7428                37.4963                47.1924
 Red. masses --      3.7717                 3.2280                 4.6243
 Frc consts  --      0.0027                 0.0027                 0.0061
 IR Inten    --      0.3403                 2.0237                 0.3245

                      4                      5                      6
                      A                      A                      A
 Frequencies --     72.4725               102.9800               151.1647
 Red. masses --      3.0542                 3.2249                 3.5073
 Frc consts  --      0.0095                 0.0201                 0.0472
 IR Inten    --      1.9290                 1.4602                 3.4746

                      7                      8                      9
                      A                      A                      A
 Frequencies --    188.2328               210.0937               236.7936
 Red. masses --      2.7437                 1.7622                 2.1936
 Frc consts  --      0.0573                 0.0458                 0.0725
 IR Inten    --      3.1014                 0.3822                 8.7703

                     10                     11                     12
                      A                      A                      A
 Frequencies --    271.5186               298.2104               310.3369
 Red. masses --      2.0543                 2.8758                 2.1945
 Frc consts  --      0.0892                 0.1507                 0.1245
 IR Inten    --     22.5454                17.1889                18.1501

                     13                     14                     15
                      A                      A                      A
 Frequencies --    368.8441               404.3045               414.7716
 Red. masses --      3.1112                 2.8492                 4.6013
 Frc consts  --      0.2494                 0.2744                 0.4664
 IR Inten    --      8.1092                 1.4730                 6.4215

                     16                     17                     18
                      A                      A                      A
 Frequencies --    426.3200               449.9263               483.0863
 Red. masses --      3.1213                 4.0149                 3.9715
 Frc consts  --      0.3342                 0.4789                 0.5461
 IR Inten    --      1.2182                10.4885                 0.6601

                     19                     20                     21
                      A                      A                      A
 Frequencies --    547.3916               585.9647               592.4122
 Red. masses --      2.8811                 4.4696                 3.0270
 Frc consts  --      0.5086                 0.9042                 0.6259
 IR Inten    --     18.0355                 4.6759                13.0519

                     22                     23                     24
                      A                      A                      A
 Frequencies --    656.7284               685.1950               700.6676
 Red. masses --      6.9720                 6.7135                 4.3613
 Frc consts  --      1.7717                 1.8571                 1.2615
 IR Inten    --      0.5581                 0.6057                11.8207

                     25                     26                     27
                      A                      A                      A
 Frequencies --    746.7597               754.2893               808.3175
 Red. masses --      3.6900                 3.4725                 3.9166
 Frc consts  --      1.2124                 1.1640                 1.5077
 IR Inten    --     11.0663                 3.1719                 6.9576

                     28                     29                     30
                      A                      A                      A
 Frequencies --    824.3405               843.4053               848.8782
 Red. masses --      1.6020                 1.4308                 1.2648
 Frc consts  --      0.6414                 0.5996                 0.5370
 IR Inten    --     32.2576                29.9514                 1.6716

                     31                     32                     33
                      A                      A                      A
 Frequencies --    861.9978               883.0853               906.5188
 Red. masses --      1.2876                 1.4234                 3.3901
 Frc consts  --      0.5637                 0.6540                 1.6414
 IR Inten    --     14.9851                84.3921                25.2277

                     34                     35                     36
                      A                      A                      A
 Frequencies --    959.8521               965.1109               985.0207
 Red. masses --      1.3095                 1.2816                 1.3190
 Frc consts  --      0.7108                 0.7033                 0.7540
 IR Inten    --      1.1616                 0.5392                 3.1740

                     37                     38                     39
                      A                      A                      A
 Frequencies --    988.7432              1008.7744              1012.3583
 Red. masses --      1.3970                 7.1071                 1.7578
 Frc consts  --      0.8047                 4.2612                 1.0614
 IR Inten    --      0.2963                33.0574                18.5280

                     40                     41                     42
                      A                      A                      A
 Frequencies --   1040.5605              1073.4837              1100.8404
 Red. masses --      2.8887                 2.6846                 2.3935
 Frc consts  --      1.8428                 1.8227                 1.7090
 IR Inten    --      8.5365                 5.1051                 3.7581

                     43                     44                     45
                      A                      A                      A
 Frequencies --   1111.1543              1137.7049              1145.9818
 Red. masses --      2.8508                 1.4920                 1.4630
 Frc consts  --      2.0738                 1.1378                 1.1320
 IR Inten    --     16.0094                 3.9491                 5.1962

                     46                     47                     48
                      A                      A                      A
 Frequencies --   1151.8326              1170.4855              1186.7385
 Red. masses --      1.3071                 1.5852                 1.2826
 Frc consts  --      1.0217                 1.2795                 1.0643
 IR Inten    --      9.3353                47.8063                 7.2749

                     49                     50                     51
                      A                      A                      A
 Frequencies --   1207.8891              1240.4986              1265.7345
 Red. masses --      1.1315                 2.3284                 1.2646
 Frc consts  --      0.9727                 2.1110                 1.1937
 IR Inten    --      1.4613                 2.3709                25.2920

                     52                     53                     54
                      A                      A                      A
 Frequencies --   1295.9990              1308.6471              1321.6932
 Red. masses --      4.0691                 1.6019                 3.3330
 Frc consts  --      4.0268                 1.6163                 3.4304
 IR Inten    --     48.5593                 2.5337                 8.6063

                     55                     56                     57
                      A                      A                      A
 Frequencies --   1342.2294              1366.4548              1386.7518
 Red. masses --      2.2962                 1.9474                 1.4988
 Frc consts  --      2.4374                 2.1423                 1.6982
 IR Inten    --      0.7929                 3.2206                16.7850

                     58                     59                     60
                      A                      A                      A
 Frequencies --   1405.8265              1438.5457              1466.7006
 Red. masses --      2.9696                 1.6218                 2.3332
 Frc consts  --      3.4579                 1.9774                 2.9572
 IR Inten    --    165.2990                28.1788                 9.7434

                     61                     62                     63
                      A                      A                      A
 Frequencies --   1475.2795              1487.7989              1519.0463
 Red. masses --      2.2852                 1.2462                 1.0466
 Frc consts  --      2.9303                 1.6252                 1.4229
 IR Inten    --      8.6642                 0.3927                 5.8664

                     64                     65                     66
                      A                      A                      A
 Frequencies --   1533.6169              1544.7714              1554.0963
 Red. masses --      1.1032                 1.1535                 2.2255
 Frc consts  --      1.5287                 1.6218                 3.1668
 IR Inten    --      5.1259                20.9410               158.4095

                     67                     68                     69
                      A                      A                      A
 Frequencies --   1564.9300              1605.6079              1632.8171
 Red. masses --      2.3031                 6.5217                 6.5591
 Frc consts  --      3.3232                 9.9058                10.3032
 IR Inten    --     82.6293                60.7001                 9.5532

                     70                     71                     72
                      A                      A                      A
 Frequencies --   1654.0035              1674.2260              1693.7715
 Red. masses --      5.2305                 4.8735                 1.1336
 Frc consts  --      8.4307                 8.0486                 1.9161
 IR Inten    --    326.2376                23.1729                27.1238

                     73                     74                     75
                      A                      A                      A
 Frequencies --   2961.6927              3014.7392              3039.0621
 Red. masses --      1.0731                 1.0502                 1.0878
 Frc consts  --      5.5459                 5.6237                 5.9195
 IR Inten    --     80.0464                65.1394                34.4215

                     76                     77                     78
                      A                      A                      A
 Frequencies --   3088.8182              3161.7582              3166.6426
 Red. masses --      1.0913                 1.0885                 1.0907
 Frc consts  --      6.1347                 6.4109                 6.4437
 IR Inten    --     27.7772                50.7278                34.2391

                     79                     80                     81
                      A                      A                      A
 Frequencies --   3169.3439              3177.2017              3202.5935
 Red. masses --      1.0976                 1.0881                 1.0935
 Frc consts  --      6.4960                 6.4714                 6.6080
 IR Inten    --     11.0954                17.6216                13.8684

                     82                     83                     84
                      A                      A                      A
 Frequencies --   3204.2599              3222.2635              3232.3201
 Red. masses --      1.0887                 1.0935                 1.0920
 Frc consts  --      6.5857                 6.6892                 6.7222
 IR Inten    --      6.1515                 3.1487                 5.6401

                     85                     86                     87
                      A                      A                      A
 Frequencies --   3233.0838              3469.9570              3558.7880
 Red. masses --      1.0911                 1.0497                 1.0930
 Frc consts  --      6.7197                 7.4467                 8.1557
 IR Inten    --     13.4158                 2.2538                 0.7319

 - Thermochemistry -
 -------------------
 Temperature   298.150 Kelvin.  Pressure   1.00000 Atm.
 Atom     1 has atomic number  6 and mass  12.00000

 Molecular mass:   213.12660 amu.
 Principal axes and moments of inertia in atomic units:
                           1         2         3
     Eigenvalues --  1484.474346860.710417854.58943
           X            0.99988   0.01488   0.00449
           Y           -0.01489   0.99988   0.00312
           Z           -0.00444  -0.00319   0.99999
 This molecule is an asymmetric top.
 Rotational symmetry number  1.
 Warning -- assumption of classical behavior for rotation
           may cause significant error
 Rotational temperatures (Kelvin)      0.05835     0.01262     0.01103
 Rotational constants (GHZ):           1.21574     0.26305     0.22977
 Zero-point vibrational energy     685953.9 (Joules/Mol)
                                  163.94692 (Kcal/Mol)
 Warning -- explicit consideration of  21 degrees of freedom as
           vibrations may cause significant error
 Vibrational temperatures:     49.99    53.95    67.90   104.27   148.17
          (Kelvin)            217.49   270.83   302.28   340.69   390.65
                              429.06   446.51   530.68   581.70   596.76
                              613.38   647.34   695.05   787.57   843.07
                              852.35   944.89   985.84  1008.10  1074.42
                             1085.25  1162.99  1186.04  1213.47  1221.35
                             1240.22  1270.56  1304.28  1381.01  1388.58
                             1417.23  1422.58  1451.40  1456.56  1497.13
                             1544.50  1583.86  1598.70  1636.90  1648.81
                             1657.23  1684.07  1707.45  1737.88  1784.80
                             1821.11  1864.65  1882.85  1901.62  1931.17
                             1966.02  1995.23  2022.67  2069.75  2110.26
                             2122.60  2140.61  2185.57  2206.53  2222.58
                             2236.00  2251.59  2310.11  2349.26  2379.74
                             2408.84  2436.96  4261.22  4337.54  4372.53
                             4444.12  4549.06  4556.09  4559.98  4571.28
                             4607.82  4610.22  4636.12  4650.59  4651.69
                             4992.49  5120.30

 Zero-point correction=                           0.261266 (Hartree/Particle)
 Thermal correction to Energy=                    0.275602
 Thermal correction to Enthalpy=                  0.276546
 Thermal correction to Gibbs Free Energy=         0.218489
 Sum of electronic and zero-point Energies=           -668.456335
 Sum of electronic and thermal Energies=              -668.442000
 Sum of electronic and thermal Enthalpies=            -668.441056
 Sum of electronic and thermal Free Energies=         -668.499113

                     E (Thermal)             CV                S
                      KCal/Mol        Cal/Mol-Kelvin    Cal/Mol-Kelvin
 Total                  172.943             55.070            122.191
 Electronic               0.000              0.000              0.000
 Translational            0.889              2.981             41.974
 Rotational               0.889              2.981             32.748
 Vibrational            171.165             49.108             47.470
 Vibration     1          0.594              1.983              5.538
 Vibration     2          0.594              1.982              5.387
 Vibration     3          0.595              1.979              4.932
 Vibration     4          0.599              1.967              4.085
 Vibration     5          0.605              1.947              3.397
 Vibration     6          0.619              1.901              2.658
 Vibration     7          0.633              1.856              2.245
 Vibration     8          0.642              1.825              2.043
 Vibration     9          0.656              1.784              1.827
 Vibration    10          0.675              1.726              1.587
 Vibration    11          0.691              1.677              1.427
 Vibration    12          0.699              1.654              1.361
 Vibration    13          0.741              1.536              1.085
 Vibration    14          0.769              1.461              0.947
 Vibration    15          0.778              1.438              0.910
 Vibration    16          0.788              1.413              0.871
 Vibration    17          0.809              1.361              0.796
 Vibration    18          0.839              1.288              0.702
 Vibration    19          0.903              1.145              0.550
 Vibration    20          0.943              1.062              0.474
 Vibration    21          0.950              1.048              0.463

 Optimization completed.
    -- Stationary point found.
 Normal termination of Gaussian 16 at Fri Dec 11 01:18:42 2020.

 ----------------------------------------------------------------------
 # B3LYP/6-311++G(d,p) empiricaldispersion=gd3bj scf=xqc pop=npa geom=c
 heck
 ----------------------------------------------------------------------

 --------------------------------------
 CID_62970626_JID_6835_Energie_neutraal
 --------------------------------------
 Structure from the checkpoint file:  "JID_6835.chk"
 Charge =  0 Multiplicity = 1

 SCF Done:  E(RB3LYP) =  -668.898741358     A.U. after   15 cycles
 Normal termination of Gaussian 16 at Fri Dec 11 01:23:43 2020.

 ----------------------------------------------------------------------
 # B3LYP/6-311++G(d,p) empiricaldispersion=gd3bj scf=xqc pop=npa geom=c
 heck
 ----------------------------------------------------------------------

 ------------------------------------
 CID_62970626_JID_6835_Energie_kation
 ------------------------------------
 Structure from the checkpoint file:  "JID_6835.chk"
 Charge =  1 Multiplicity = 2

 SCF Done:  E(UB3LYP) =  -668.628487629     A.U. after   22 cycles
 Normal termination of Gaussian 16 at Fri Dec 11 01:34:14 2020.
 Gaussian 16:  ES64L-G16RevA.03 25-Dec-2016

 ----------------------------------------------------------------------
 # B3LYP/6-311++G(d,p) empiricaldispersion=gd3bj scf=xqc pop=npa geom=c
 heck
 ----------------------------------------------------------------------

 -----------------------------------
 CID_62970626_JID_6835_Energie_anion
 -----------------------------------
 Structure from the checkpoint file:  "JID_6835.chk"
 Charge = -1 Multiplicity = 2

                         Standard orientation:
 ---------------------------------------------------------------------
 Center     Atomic      Atomic             Coordinates (Angstroms)
 Number     Number       Type             X           Y           Z
 ---------------------------------------------------------------------
      1          6           0        1.351972    2.530142    0.404471
      2          7           0        1.039481    1.157991    0.026621
      3          6           0       -0.333342    0.773953    0.001319
      4          6           0       -0.832113   -0.183035    0.894479
      5          6           0       -2.179066   -0.532204    0.871732
      6          6           0       -3.063622    0.077908   -0.026682
      7          6           0       -2.559161    1.033727   -0.913357
      8          6           0       -1.208521    1.377165   -0.907270
      9          6           0       -4.537078   -0.271723   -0.022270
     10          7           0       -4.748537   -1.691433    0.275837
     11          6           0        2.053924    0.216342   -0.026763
     12          6           0        3.373247    0.523408    0.360045
     13          6           0        4.357518   -0.454917    0.249008
     14          7           0        4.156577   -1.696988   -0.204798
     15          6           0        2.896681   -1.977729   -0.575798
     16          6           0        1.833100   -1.089669   -0.513980
     17          1           0        0.455572    3.138162    0.282318
     18          1           0        2.142822    2.938592   -0.234115
     19          1           0        1.677440    2.604905    1.452785
     20          1           0       -0.154815   -0.652083    1.601405
     21          1           0       -2.564599   -1.282424    1.554208
     22          1           0       -3.226984    1.504666   -1.631087
     23          1           0       -0.821359    2.100512   -1.618986
     24          1           0       -5.042324    0.300268    0.768713
     25          1           0       -4.981877    0.065428   -0.975313
     26          1           0       -5.745930   -1.887675    0.331659
     27          1           0       -4.380317   -2.258123   -0.486733
     28          1           0        3.637025    1.498593    0.750122
     29          1           0        5.376288   -0.216990    0.552832
     30          1           0        2.726257   -2.984443   -0.954752
     31          1           0        0.848921   -1.396591   -0.846282
 ---------------------------------------------------------------------

 SCF Done:  E(UB3LYP) =  -668.890631003     A.U. after   33 cycles
 SCF Done:  E(UB3LYP) =  -668.890631003     a.u. after    1 cycles

 The electronic state is 2-A.
 Alpha  occ. eigenvalues --  -14.25215 -14.20253 -14.19146 -10.13347 -10.11434
 Alpha  occ. eigenvalues --  -10.11076 -10.10960 -10.10939 -10.09452 -10.08146
 Alpha  occ. eigenvalues --  -10.07779 -10.07725 -10.07658 -10.07633 -10.07481
 Alpha  occ. eigenvalues --  -10.07107  -0.87467  -0.83944  -0.78698  -0.75243
 Alpha  occ. eigenvalues --   -0.70177  -0.67084  -0.65674  -0.64992  -0.60998
 Alpha  occ. eigenvalues --   -0.56840  -0.53458  -0.52097  -0.51175  -0.47991
 Alpha  occ. eigenvalues --   -0.44986  -0.42087  -0.40029  -0.38760  -0.38198
 Alpha  occ. eigenvalues --   -0.36940  -0.35862  -0.35645  -0.35038  -0.33551
 Alpha  occ. eigenvalues --   -0.33074  -0.32806  -0.31836  -0.30832  -0.30317
 Alpha  occ. eigenvalues --   -0.29756  -0.26762  -0.26413  -0.25168  -0.24735
 Alpha  occ. eigenvalues --   -0.22770  -0.17172  -0.16642  -0.16402  -0.15925
 Alpha  occ. eigenvalues --   -0.14406  -0.11433   0.04017
 Alpha virt. eigenvalues --    0.05574   0.06396   0.07143   0.07258   0.07962
 Alpha virt. eigenvalues --    0.08367   0.08435   0.08498   0.08955   0.09591
 Alpha virt. eigenvalues --    0.09763   0.10314   0.10810   0.11230   0.11695

  Beta  occ. eigenvalues --  -14.25231 -14.20204 -14.19090 -10.13282 -10.11411
  Beta  occ. eigenvalues --  -10.10980 -10.10946 -10.10927 -10.09429 -10.08155
  Beta  occ. eigenvalues --  -10.07760 -10.07720 -10.07654 -10.07577 -10.07457
  Beta  occ. eigenvalues --  -10.07094  -0.87410  -0.83870  -0.78594  -0.75157
  Beta  occ. eigenvalues --   -0.70089  -0.67017  -0.65584  -0.64927  -0.60937
  Beta  occ. eigenvalues --   -0.56716  -0.53413  -0.52038  -0.51121  -0.47900
  Beta  occ. eigenvalues --   -0.44933  -0.42031  -0.39952  -0.38700  -0.38147
  Beta  occ. eigenvalues --   -0.36887  -0.35805  -0.35587  -0.34988  -0.33519
  Beta  occ. eigenvalues --   -0.33034  -0.32763  -0.31765  -0.30771  -0.30175
  Beta  occ. eigenvalues --   -0.29676  -0.26681  -0.26285  -0.25113  -0.24668
  Beta  occ. eigenvalues --   -0.22589  -0.17059  -0.16545  -0.16129  -0.15797
  Beta  occ. eigenvalues --   -0.14320  -0.11304
  Beta virt. eigenvalues --    0.05998   0.06664   0.07052   0.07252   0.07690
  Beta virt. eigenvalues --    0.08244   0.08505   0.08573   0.08837   0.09386
  Beta virt. eigenvalues --    0.09758   0.10183   0.10728   0.11156   0.11587

 Mulliken charges and spin densities:
               1          2
     1  C    0.790023  -1.038343
     2  N    0.480519  -0.054845
     3  C   -1.281875   0.506796
     4  C   -0.586891   0.603249
     5  C   -0.637370   0.399302
     6  C   -0.267606   0.761200
     7  C    0.044062  -0.498890
     8  C    0.514557  -0.522773
     9  C    2.068318  -2.766348
    10  N   -0.464165   0.132292
    11  C   -0.232414  -0.294452
    12  C    0.390037   0.134033
    13  C   -0.650548  -0.060171
    14  N   -0.118320   0.024787
    15  C   -0.321931  -0.275906
    16  C    0.450702   0.164567
    17  H   -0.157949   0.308130
    18  H   -0.046334   0.204053
    19  H   -0.180353   0.322930
    20  H    0.084453   0.079783
    21  H    0.146119   0.072553
    22  H   -0.254696   0.404150
    23  H   -0.254271   0.427800
    24  H   -0.235117   0.404309
    25  H   -0.414946   0.587493
    26  H   -0.263520   0.513913
    27  H   -0.002244   0.201007
    28  H    0.016999   0.154528
    29  H    0.075179   0.068524
    30  H    0.133299   0.019551
    31  H    0.176283   0.016779
 Sum of Mulliken charges =  -1.00000   1.00000

 Dipole moment (field-independent basis, Debye):
    X=              6.4554    Y=              0.7230    Z=              0.1522  Tot=              6.4975
 Quadrupole moment (field-independent basis, Debye-Ang):
   XX=           -212.7048   YY=           -136.1056   ZZ=           -120.0300
   XY=             -2.4327   XZ=              2.8091   YZ=              1.5017

 Summary of Natural Population Analysis:

                                       Natural Population
                Natural  -----------------------------------------------
    Atom  No    Charge         Core      Valence    Rydberg      Total
 -----------------------------------------------------------------------
      C    1   -0.17429      0.99963     2.16672    0.00793     3.17429
      N    2   -0.24627      0.99962     2.73484    0.01182     3.74627
      C    3    0.08699      0.99946     1.90176    0.01179     2.91301
      C    4   -0.10674      0.99951     2.09848    0.00874     3.10674
      C    5   -0.09430      0.99951     2.08607    0.00872     3.09430
      C    6   -0.01313      0.99951     2.00288    0.01074     3.01313
      C    7   -0.09307      0.99951     2.08390    0.00965     3.09307
      C    8   -0.10661      0.99951     2.09713    0.00997     3.10661
      C    9   -0.09389      0.99960     2.08209    0.01220     3.09389
      N   10   -0.42158      0.99978     2.91105    0.01075     3.92158
      C   11    0.12046      0.99949     1.86944    0.01061     2.87954
      C   12   -0.16038      0.99953     2.15202    0.00883     3.16038
      C   13    0.03574      0.99960     1.95003    0.01463     2.96426
      N   14   -0.25338      0.99972     2.74065    0.01301     3.75338
      C   15    0.02535      0.99960     1.96060    0.01445     2.97465
      C   16   -0.14179      0.99953     2.13561    0.00666     3.14179
      H   17    0.10738      0.00000     0.39153    0.00109     0.39262
      H   18    0.09520      0.00000     0.40366    0.00114     0.40480
      H   19    0.09139      0.00000     0.40733    0.00129     0.40861
      H   20    0.10399      0.00000     0.39481    0.00120     0.39601
      H   21    0.11079      0.00000     0.38795    0.00127     0.38921
      H   22    0.10026      0.00000     0.39843    0.00130     0.39974
      H   23    0.10333      0.00000     0.39550    0.00116     0.39667
      H   24    0.09790      0.00000     0.39998    0.00212     0.40210
      H   25    0.08238      0.00000     0.41544    0.00218     0.41762
      H   26    0.17964      0.00000     0.31556    0.00480     0.32036
      H   27    0.17299      0.00000     0.32499    0.00202     0.32701
      H   28    0.10582      0.00000     0.39310    0.00109     0.39418
      H   29    0.08611      0.00000     0.41257    0.00131     0.41389
      H   30    0.08762      0.00000     0.41114    0.00124     0.41238
      H   31    0.11209      0.00000     0.38662    0.00129     0.38791
 =======================================================================
   * Total *   -0.00000     15.99310    40.81187    0.19503    57.00000

 Normal termination of Gaussian 16 at Fri Dec 11 01:50:06 2020.
