 Gaussian 16, Revision A.03,

 -----------------------------------------------------------
 # opt freq B3LYP/6-31G(d) empiricaldispersion=gd3bj scf=xqc
 -----------------------------------------------------------

 ------------------------------
 CID_61849353_JID_6316_neutraal
 ------------------------------
 Symbolic Z-matrix:
 Charge =  0 Multiplicity = 1

 SCF Done:  E(RB3LYP) =  -761.357273660     A.U. after   14 cycles
 SCF Done:  E(RB3LYP) =  -761.371110061     A.U. after   13 cycles
 SCF Done:  E(RB3LYP) =  -761.373792939     A.U. after   13 cycles
 SCF Done:  E(RB3LYP) =  -761.375073173     A.U. after   13 cycles
 SCF Done:  E(RB3LYP) =  -761.376389983     A.U. after   13 cycles
 SCF Done:  E(RB3LYP) =  -761.377129626     A.U. after   12 cycles
 SCF Done:  E(RB3LYP) =  -761.377709202     A.U. after   13 cycles
 SCF Done:  E(RB3LYP) =  -761.378668115     A.U. after   13 cycles
 SCF Done:  E(RB3LYP) =  -761.379331050     A.U. after   15 cycles
 SCF Done:  E(RB3LYP) =  -761.380524374     A.U. after   13 cycles
 SCF Done:  E(RB3LYP) =  -761.380911991     A.U. after    9 cycles
 SCF Done:  E(RB3LYP) =  -761.380914072     A.U. after    9 cycles
 SCF Done:  E(RB3LYP) =  -761.380914550     A.U. after    8 cycles
 SCF Done:  E(RB3LYP) =  -761.380914634     A.U. after    7 cycles
 SCF Done:  E(RB3LYP) =  -761.380914666     A.U. after    6 cycles
 Optimization completed.
    -- Stationary point found.
 Normal termination of Gaussian 16 at Thu Dec 10 22:15:36 2020.

 --------------------------------------------------------------------
 #N Geom=AllCheck Guess=TCheck SCRF=Check GenChk RB3LYP/6-31G(d) Freq
 --------------------------------------------------------------------

 Structure from the checkpoint file:  "JID_6316.chk"
 ------------------------------
 CID_61849353_JID_6316_neutraal
 ------------------------------
 Charge =  0 Multiplicity = 1

 SCF Done:  E(RB3LYP) =  -761.380914666     A.U. after    1 cycles

  Exact polarizability: 158.376  -3.703 131.490  12.360  -0.160 104.066
 Approx polarizability: 202.878  -5.155 191.127  25.542  -0.409 166.584

                      1                      2                      3
                      A                      A                      A
 Frequencies --     22.9746                33.5715                50.7743
 Red. masses --      5.9898                 5.3114                 4.1569
 Frc consts  --      0.0019                 0.0035                 0.0063
 IR Inten    --      0.8525                 2.7953                 0.8888

                      4                      5                      6
                      A                      A                      A
 Frequencies --     74.0277                80.5332               104.0887
 Red. masses --      3.0468                 3.8851                 5.2217
 Frc consts  --      0.0098                 0.0148                 0.0333
 IR Inten    --      1.7173                 2.1517                 2.1640

                      7                      8                      9
                      A                      A                      A
 Frequencies --    127.8665               144.7994               188.8114
 Red. masses --      6.9540                 2.7994                 4.1321
 Frc consts  --      0.0670                 0.0346                 0.0868
 IR Inten    --      4.8915                 1.7387                 2.3983

                     10                     11                     12
                      A                      A                      A
 Frequencies --    232.8843               258.7889               285.8505
 Red. masses --      3.3013                 2.5114                 3.2711
 Frc consts  --      0.1055                 0.0991                 0.1575
 IR Inten    --      5.9349                 3.6526                10.3059

                     13                     14                     15
                      A                      A                      A
 Frequencies --    312.5227               319.0408               401.7705
 Red. masses --      3.4722                 2.3205                 2.2373
 Frc consts  --      0.1998                 0.1392                 0.2128
 IR Inten    --      6.0158                 4.0546                 1.1310

                     16                     17                     18
                      A                      A                      A
 Frequencies --    438.6678               458.3629               464.5428
 Red. masses --      4.4944                 2.5258                 1.2821
 Frc consts  --      0.5096                 0.3127                 0.1630
 IR Inten    --      1.7794                 0.1453               117.1733

                     19                     20                     21
                      A                      A                      A
 Frequencies --    478.9255               488.4029               533.0832
 Red. masses --      3.0560                 2.7041                 2.2042
 Frc consts  --      0.4130                 0.3800                 0.3691
 IR Inten    --      1.9913                 5.8300                 4.8777

                     22                     23                     24
                      A                      A                      A
 Frequencies --    569.7603               583.3615               612.7622
 Red. masses --      1.2563                 2.1716                 3.1755
 Frc consts  --      0.2403                 0.4354                 0.7025
 IR Inten    --    121.3349                13.8043                35.7660

                     25                     26                     27
                      A                      A                      A
 Frequencies --    640.5840               673.9852               723.3219
 Red. masses --      3.3834                 2.9106                 1.9693
 Frc consts  --      0.8180                 0.7790                 0.6070
 IR Inten    --      5.9311                 0.7958                61.9590

                     28                     29                     30
                      A                      A                      A
 Frequencies --    748.7312               757.9563               775.2006
 Red. masses --      1.9891                 1.9940                 3.4764
 Frc consts  --      0.6570                 0.6749                 1.2309
 IR Inten    --     37.6127                43.7275               131.0592

                     31                     32                     33
                      A                      A                      A
 Frequencies --    803.5242               807.8225               821.2074
 Red. masses --      1.9096                 1.5557                 1.5795
 Frc consts  --      0.7264                 0.5981                 0.6276
 IR Inten    --     16.4381                 5.2139                 4.8167

                     34                     35                     36
                      A                      A                      A
 Frequencies --    860.7865               883.8381               909.2680
 Red. masses --      2.1746                 1.9922                 2.6452
 Frc consts  --      0.9493                 0.9169                 1.2885
 IR Inten    --     29.8158                 1.3973                 9.3249

                     37                     38                     39
                      A                      A                      A
 Frequencies --    935.0073               955.9868               973.6036
 Red. masses --      2.8971                 2.0714                 1.9697
 Frc consts  --      1.4923                 1.1154                 1.1001
 IR Inten    --     14.0923                 1.6631                12.9130

                     40                     41                     42
                      A                      A                      A
 Frequencies --    997.7467              1006.5626              1023.9241
 Red. masses --      3.4341                 2.7330                 1.5495
 Frc consts  --      2.0142                 1.6315                 0.9571
 IR Inten    --      2.6563                10.8933                 9.5157

                     43                     44                     45
                      A                      A                      A
 Frequencies --   1040.7558              1057.4909              1080.1519
 Red. masses --      1.9519                 1.6993                 1.5339
 Frc consts  --      1.2457                 1.1196                 1.0545
 IR Inten    --     19.7219                14.7054                 3.7490

                     46                     47                     48
                      A                      A                      A
 Frequencies --   1096.0137              1127.7323              1132.2203
 Red. masses --      2.9218                 2.3533                 1.6720
 Frc consts  --      2.0679                 1.7634                 1.2628
 IR Inten    --     37.6403                 1.8447                54.1073

                     49                     50                     51
                      A                      A                      A
 Frequencies --   1141.6816              1149.5925              1190.6516
 Red. masses --      1.4413                 1.3880                 3.2771
 Frc consts  --      1.1069                 1.0808                 2.7372
 IR Inten    --      7.4422                 8.4065                60.4317

                     52                     53                     54
                      A                      A                      A
 Frequencies --   1202.1531              1211.0196              1227.4452
 Red. masses --      1.8219                 1.3891                 1.5754
 Frc consts  --      1.5513                 1.2003                 1.3985
 IR Inten    --     19.1382                 0.9928                 8.0985

                     55                     56                     57
                      A                      A                      A
 Frequencies --   1247.6262              1251.5207              1274.7421
 Red. masses --      1.8506                 1.3550                 2.0912
 Frc consts  --      1.6972                 1.2504                 2.0021
 IR Inten    --      4.8631                 6.7644               345.2441

                     58                     59                     60
                      A                      A                      A
 Frequencies --   1311.0676              1320.9784              1338.5458
 Red. masses --      1.4103                 1.2673                 1.3587
 Frc consts  --      1.4283                 1.3029                 1.4343
 IR Inten    --     29.7900                 2.9465                 0.3207

                     61                     62                     63
                      A                      A                      A
 Frequencies --   1354.5212              1376.2480              1383.1101
 Red. masses --      1.3023                 1.5468                 1.2575
 Frc consts  --      1.4077                 1.7261                 1.4174
 IR Inten    --      6.0369                18.9254                14.0512

                     64                     65                     66
                      A                      A                      A
 Frequencies --   1397.5632              1415.6021              1422.0819
 Red. masses --      1.5646                 3.1828                 1.5310
 Frc consts  --      1.8006                 3.7579                 1.8242
 IR Inten    --     33.4205               215.5269                29.0960

                     67                     68                     69
                      A                      A                      A
 Frequencies --   1434.5265              1447.4016              1490.2158
 Red. masses --      1.3633                 1.6824                 1.0925
 Frc consts  --      1.6529                 2.0766                 1.4294
 IR Inten    --     19.4613                32.6453                 1.8244

                     70                     71                     72
                      A                      A                      A
 Frequencies --   1502.9485              1514.5407              1523.6571
 Red. masses --      1.1016                 1.1071                 1.1421
 Frc consts  --      1.4661                 1.4963                 1.5622
 IR Inten    --     36.1901                 4.9192                 2.4371

                     73                     74                     75
                      A                      A                      A
 Frequencies --   1532.6774              1536.6866              1545.0866
 Red. masses --      1.2369                 1.1967                 1.1948
 Frc consts  --      1.7119                 1.6649                 1.6805
 IR Inten    --     21.8701                14.6415                10.5261

                     76                     77                     78
                      A                      A                      A
 Frequencies --   1656.1611              1781.7128              1836.1519
 Red. masses --      1.2001                 8.6095                 7.2612
 Frc consts  --      1.9395                16.1029                14.4237
 IR Inten    --    168.7973               291.9365               434.6896

                     79                     80                     81
                      A                      A                      A
 Frequencies --   2969.3604              3021.2565              3026.3558
 Red. masses --      1.0732                 1.0718                 1.0792
 Frc consts  --      5.5752                 5.7644                 5.8238
 IR Inten    --     77.6892                53.6371                19.8815

                     82                     83                     84
                      A                      A                      A
 Frequencies --   3046.0944              3064.4594              3116.2225
 Red. masses --      1.0820                 1.0626                 1.0940
 Frc consts  --      5.9152                 5.8792                 6.2591
 IR Inten    --     65.2162                24.2074                28.8742

                     85                     86                     87
                      A                      A                      A
 Frequencies --   3117.7883              3120.9611              3145.5821
 Red. masses --      1.0879                 1.1029                 1.0525
 Frc consts  --      6.2306                 6.3294                 6.1356
 IR Inten    --      2.7310                44.7002                21.8035

                     88                     89                     90
                      A                      A                      A
 Frequencies --   3146.7021              3154.8168              3168.0767
 Red. masses --      1.0625                 1.0859                 1.0898
 Frc consts  --      6.1984                 6.3680                 6.4445
 IR Inten    --      9.2939                28.5636                 6.1435

                     91                     92                     93
                      A                      A                      A
 Frequencies --   3222.0500              3239.2452              3513.6023
 Red. masses --      1.1170                 1.1137                 1.0727
 Frc consts  --      6.8320                 6.8853                 7.8025
 IR Inten    --      8.4403                18.6387                 3.3125

                     94                     95                     96
                      A                      A                      A
 Frequencies --   3576.6942              3579.4326              3689.3544
 Red. masses --      1.0717                 1.0509                 1.1017
 Frc consts  --      8.0775                 7.9328                 8.8348
 IR Inten    --     58.6403                14.8201                46.5640

 - Thermochemistry -
 -------------------
 Temperature   298.150 Kelvin.  Pressure   1.00000 Atm.
 Atom     1 has atomic number  6 and mass  12.00000

 Molecular mass:   226.14298 amu.
 Principal axes and moments of inertia in atomic units:
                           1         2         3
     Eigenvalues --  1862.316566586.448057384.67858
           X            0.99993  -0.01127  -0.00206
           Y            0.01127   0.99993  -0.00207
           Z            0.00208   0.00205   1.00000
 This molecule is an asymmetric top.
 Rotational symmetry number  1.
 Warning -- assumption of classical behavior for rotation
           may cause significant error
 Rotational temperatures (Kelvin)      0.04651     0.01315     0.01173
 Rotational constants (GHZ):           0.96908     0.27401     0.24439
 Zero-point vibrational energy     771804.1 (Joules/Mol)
                                  184.46561 (Kcal/Mol)
 Warning -- explicit consideration of  24 degrees of freedom as
           vibrations may cause significant error
 Vibrational temperatures:     33.06    48.30    73.05   106.51   115.87
          (Kelvin)            149.76   183.97   208.33   271.66   335.07
                              372.34   411.28   449.65   459.03   578.06
                              631.15   659.48   668.37   689.07   702.70
                              766.99   819.76   839.33   881.63   921.66
                              969.71  1040.70  1077.26  1090.53  1115.34
                             1156.09  1162.28  1181.53  1238.48  1271.65
                             1308.23  1345.27  1375.45  1400.80  1435.53
                             1448.22  1473.20  1497.42  1521.49  1554.10
                             1576.92  1622.56  1629.01  1642.63  1654.01
                             1713.08  1729.63  1742.39  1766.02  1795.06
                             1800.66  1834.07  1886.33  1900.59  1925.87
                             1948.85  1980.11  1989.99  2010.78  2036.74
                             2046.06  2063.96  2082.49  2144.09  2162.41
                             2179.09  2192.20  2205.18  2210.95  2223.04
                             2382.85  2563.49  2641.81  4272.25  4346.91
                             4354.25  4382.65  4409.07  4483.55  4485.80
                             4490.37  4525.79  4527.40  4539.08  4558.16
                             4635.81  4660.55  5055.29  5146.07  5150.01
                             5308.16

 Zero-point correction=                           0.293965 (Hartree/Particle)
 Thermal correction to Energy=                    0.309785
 Thermal correction to Enthalpy=                  0.310729
 Thermal correction to Gibbs Free Energy=         0.249028
 Sum of electronic and zero-point Energies=           -761.086950
 Sum of electronic and thermal Energies=              -761.071130
 Sum of electronic and thermal Enthalpies=            -761.070186
 Sum of electronic and thermal Free Energies=         -761.131887

                     E (Thermal)             CV                S
                      KCal/Mol        Cal/Mol-Kelvin    Cal/Mol-Kelvin
 Total                  194.393             60.433            129.861
 Electronic               0.000              0.000              0.000
 Translational            0.889              2.981             42.150
 Rotational               0.889              2.981             32.871
 Vibrational            192.615             54.471             54.840
 Vibration     1          0.593              1.985              6.359
 Vibration     2          0.594              1.983              5.606
 Vibration     3          0.595              1.977              4.787
 Vibration     4          0.599              1.966              4.043
 Vibration     5          0.600              1.962              3.878
 Vibration     6          0.605              1.946              3.376
 Vibration     7          0.611              1.925              2.978
 Vibration     8          0.616              1.908              2.739
 Vibration     9          0.633              1.855              2.239
 Vibration    10          0.654              1.791              1.857
 Vibration    11          0.668              1.748              1.670
 Vibration    12          0.684              1.700              1.498
 Vibration    13          0.701              1.650              1.349
 Vibration    14          0.705              1.637              1.315
 Vibration    15          0.767              1.466              0.956
 Vibration    16          0.799              1.386              0.831
 Vibration    17          0.816              1.342              0.771
 Vibration    18          0.822              1.329              0.753
 Vibration    19          0.835              1.297              0.713
 Vibration    20          0.844              1.276              0.688
 Vibration    21          0.888              1.177              0.580
 Vibration    22          0.926              1.097              0.505
 Vibration    23          0.940              1.067              0.479
 Vibration    24          0.972              1.005              0.428

 Optimization completed.
    -- Stationary point found.
 Normal termination of Gaussian 16 at Thu Dec 10 22:27:25 2020.

 ----------------------------------------------------------------------
 # B3LYP/6-311++G(d,p) empiricaldispersion=gd3bj scf=xqc pop=npa geom=c
 heck
 ----------------------------------------------------------------------

 --------------------------------------
 CID_61849353_JID_6316_Energie_neutraal
 --------------------------------------
 Structure from the checkpoint file:  "JID_6316.chk"
 Charge =  0 Multiplicity = 1

 SCF Done:  E(RB3LYP) =  -761.611591728     A.U. after   14 cycles
 Normal termination of Gaussian 16 at Thu Dec 10 22:32:13 2020.

 ----------------------------------------------------------------------
 # B3LYP/6-311++G(d,p) empiricaldispersion=gd3bj scf=xqc pop=npa geom=c
 heck
 ----------------------------------------------------------------------

 ------------------------------------
 CID_61849353_JID_6316_Energie_kation
 ------------------------------------
 Structure from the checkpoint file:  "JID_6316.chk"
 Charge =  1 Multiplicity = 2

 SCF Done:  E(UB3LYP) =  -761.345967398     A.U. after   21 cycles
 Normal termination of Gaussian 16 at Thu Dec 10 22:42:51 2020.
 Gaussian 16:  ES64L-G16RevA.03 25-Dec-2016

 ----------------------------------------------------------------------
 # B3LYP/6-311++G(d,p) empiricaldispersion=gd3bj scf=xqc pop=npa geom=c
 heck
 ----------------------------------------------------------------------

 -----------------------------------
 CID_61849353_JID_6316_Energie_anion
 -----------------------------------
 Structure from the checkpoint file:  "JID_6316.chk"
 Charge = -1 Multiplicity = 2

                         Standard orientation:
 ---------------------------------------------------------------------
 Center     Atomic      Atomic             Coordinates (Angstroms)
 Number     Number       Type             X           Y           Z
 ---------------------------------------------------------------------
      1          6           0        2.700276   -1.567724    0.972129
      2          6           0        2.617117   -2.388069   -0.301855
      3          6           0        3.230518   -1.022762   -0.343571
      4          7           0        2.680420    0.073005   -1.115545
      5          6           0        3.263918    1.373550   -0.750573
      6          6           0        2.381555    1.923448    0.376283
      7          6           0        0.965588    1.494872   -0.052332
      8          6           0        1.227458    0.287415   -1.032687
      9          7           0        0.110482    1.287801    1.117688
     10          6           0       -1.277210    1.000736    0.841817
     11          6           0       -1.593919   -0.493068    0.689786
     12          8           0       -0.795807   -1.349144    1.039514
     13          7           0       -2.826098   -0.896116    0.185830
     14          6           0       -3.908236   -0.244652   -0.442944
     15          8           0       -4.658021   -0.878122   -1.162545
     16          7           0       -4.041593    1.105581   -0.210012
     17          1           0        3.410608   -1.856286    1.743000
     18          1           0        1.751229   -1.200379    1.348936
     19          1           0        3.269904   -3.247938   -0.426285
     20          1           0        1.626398   -2.525650   -0.725978
     21          1           0        4.315023   -1.019784   -0.429171
     22          1           0        3.218337    2.037467   -1.626180
     23          1           0        4.315653    1.260747   -0.473981
     24          1           0        2.639025    1.431422    1.321614
     25          1           0        2.464631    3.003864    0.526199
     26          1           0        0.498110    2.306283   -0.624827
     27          1           0        0.711600   -0.616334   -0.710911
     28          1           0        0.851733    0.541548   -2.032651
     29          1           0        0.494237    0.553953    1.709532
     30          1           0       -1.898538    1.366611    1.678241
     31          1           0       -1.598440    1.548773   -0.048277
     32          1           0       -2.881399   -1.902209    0.061679
     33          1           0       -3.749925    1.485746    0.679514
     34          1           0       -4.912436    1.475916   -0.568236
 ---------------------------------------------------------------------

 SCF Done:  E(UB3LYP) =  -761.607046426     A.U. after   33 cycles
 SCF Done:  E(UB3LYP) =  -761.607046426     a.u. after    1 cycles

 The electronic state is 2-A.
 Alpha  occ. eigenvalues --  -19.01366 -19.00151 -14.26261 -14.23305 -14.21598
 Alpha  occ. eigenvalues --  -14.20586 -10.21767 -10.19347 -10.11726 -10.10983
 Alpha  occ. eigenvalues --  -10.10789 -10.10542 -10.09394 -10.08286 -10.07881
 Alpha  occ. eigenvalues --  -10.07578  -0.97506  -0.95810  -0.85242  -0.83948
 Alpha  occ. eigenvalues --   -0.81470  -0.80248  -0.75659  -0.67268  -0.63625
 Alpha  occ. eigenvalues --   -0.60765  -0.55738  -0.53745  -0.51512  -0.50080
 Alpha  occ. eigenvalues --   -0.49848  -0.46750  -0.45194  -0.42847  -0.41828
 Alpha  occ. eigenvalues --   -0.40596  -0.39283  -0.38568  -0.37894  -0.36011
 Alpha  occ. eigenvalues --   -0.35889  -0.34440  -0.33872  -0.33262  -0.31722
 Alpha  occ. eigenvalues --   -0.30048  -0.29803  -0.28559  -0.28042  -0.27358
 Alpha  occ. eigenvalues --   -0.26659  -0.25053  -0.24534  -0.23375  -0.20807
 Alpha  occ. eigenvalues --   -0.20674  -0.19250  -0.18794  -0.17309  -0.14731
 Alpha  occ. eigenvalues --   -0.10943   0.04154
 Alpha virt. eigenvalues --    0.05680   0.06846   0.07094   0.07820   0.08414
 Alpha virt. eigenvalues --    0.08966   0.09280   0.09614   0.10320   0.10877
 Alpha virt. eigenvalues --    0.11636   0.12068   0.12682   0.12714   0.13793

  Beta  occ. eigenvalues --  -19.01329 -19.00142 -14.26248 -14.23206 -14.21598
  Beta  occ. eigenvalues --  -14.20586 -10.21762 -10.19280 -10.11722 -10.10934
  Beta  occ. eigenvalues --  -10.10782 -10.10534 -10.09385 -10.08285 -10.07878
  Beta  occ. eigenvalues --  -10.07572  -0.97453  -0.95750  -0.85236  -0.83892
  Beta  occ. eigenvalues --   -0.81456  -0.80110  -0.75653  -0.67235  -0.63588
  Beta  occ. eigenvalues --   -0.60680  -0.55672  -0.53713  -0.51504  -0.50048
  Beta  occ. eigenvalues --   -0.49744  -0.46731  -0.45105  -0.42824  -0.41748
  Beta  occ. eigenvalues --   -0.40583  -0.39234  -0.38492  -0.37796  -0.35946
  Beta  occ. eigenvalues --   -0.35835  -0.34403  -0.33849  -0.33212  -0.31689
  Beta  occ. eigenvalues --   -0.29962  -0.29763  -0.28502  -0.28022  -0.27346
  Beta  occ. eigenvalues --   -0.26643  -0.25005  -0.24518  -0.23363  -0.20799
  Beta  occ. eigenvalues --   -0.20641  -0.19151  -0.18738  -0.17252  -0.14710
  Beta  occ. eigenvalues --   -0.10931
  Beta virt. eigenvalues --    0.05767   0.06888   0.07476   0.07529   0.07991
  Beta virt. eigenvalues --    0.08699   0.09247   0.09469   0.10339   0.10434
  Beta virt. eigenvalues --    0.10947   0.11808   0.12390   0.12690   0.13006

 Mulliken charges and spin densities:
               1          2
     1  C   -0.142360  -0.154407
     2  C   -0.178911  -0.149414
     3  C   -0.403754   0.067791
     4  N    0.228327   0.033989
     5  C    0.095279  -0.185793
     6  C   -0.062005  -0.258924
     7  C    0.037303  -0.288574
     8  C   -0.405514  -0.314233
     9  N    0.105221   0.024410
    10  C    1.092473  -1.497005
    11  C   -0.412685   0.380255
    12  O   -0.283942  -0.007763
    13  N   -0.136383  -0.033062
    14  C    0.587387  -0.385712
    15  O   -0.383745   0.026471
    16  N   -0.158686  -0.242603
    17  H    0.089200   0.060538
    18  H    0.141550   0.040772
    19  H    0.075528   0.064363
    20  H    0.156875   0.013147
    21  H    0.022492   0.150899
    22  H    0.069810   0.071114
    23  H    0.012881   0.121124
    24  H    0.128725   0.006382
    25  H   -0.040809   0.225149
    26  H   -0.081798   0.250226
    27  H    0.112689  -0.070720
    28  H    0.045970   0.143276
    29  H    0.254253  -0.058098
    30  H   -1.049688   1.309258
    31  H    0.052303   0.157824
    32  H    0.230987   0.083564
    33  H   -0.456328   0.738988
    34  H   -0.342643   0.676769
 Sum of Mulliken charges =  -1.00000   1.00000

 Dipole moment (field-independent basis, Debye):
    X=              9.9870    Y=             -4.0765    Z=             -1.4575  Tot=             10.8850
 Quadrupole moment (field-independent basis, Debye-Ang):
   XX=           -187.0234   YY=           -138.1732   ZZ=           -131.9802
   XY=             13.7926   XZ=              5.9484   YZ=             -7.2070

 Summary of Natural Population Analysis:

                                       Natural Population
                Natural  -----------------------------------------------
    Atom  No    Charge         Core      Valence    Rydberg      Total
 -----------------------------------------------------------------------
      C    1   -0.21892      0.99962     2.21256    0.00674     3.21892
      C    2   -0.20413      0.99963     2.19728    0.00723     3.20413
      C    3   -0.00953      0.99956     1.99512    0.01484     3.00953
      N    4   -0.27528      0.99973     2.76282    0.01273     3.77528
      C    5   -0.08208      0.99962     2.07329    0.00917     3.08208
      C    6   -0.20082      0.99962     2.19240    0.00881     3.20082
      C    7   -0.01425      0.99959     2.00163    0.01303     3.01425
      C    8   -0.10579      0.99960     2.09433    0.01186     3.10579
      N    9   -0.33507      0.99973     2.82242    0.01292     3.83507
      C   10   -0.13892      0.99958     2.12656    0.01278     3.13892
      C   11    0.35424      0.99968     1.62351    0.02256     2.64576
      O   12   -0.31757      0.99987     3.31128    0.00642     4.31757
      N   13   -0.33467      0.99965     2.82510    0.00993     3.83467
      C   14    0.40782      0.99973     1.56978    0.02267     2.59218
      O   15   -0.32344      0.99987     3.31741    0.00616     4.32344
      N   16   -0.40948      0.99971     2.90114    0.00863     3.90948
      H   17    0.09789      0.00000     0.40097    0.00114     0.40211
      H   18    0.11118      0.00000     0.38730    0.00152     0.38882
      H   19    0.09850      0.00000     0.40062    0.00087     0.40150
      H   20    0.10651      0.00000     0.39240    0.00109     0.39349
      H   21    0.09719      0.00000     0.40158    0.00122     0.40281
      H   22    0.08987      0.00000     0.40898    0.00115     0.41013
      H   23    0.09551      0.00000     0.40350    0.00099     0.40449
      H   24    0.09801      0.00000     0.40072    0.00127     0.40199
      H   25    0.10314      0.00000     0.39594    0.00092     0.39686
      H   26    0.09291      0.00000     0.40557    0.00151     0.40709
      H   27    0.10647      0.00000     0.39174    0.00179     0.39353
      H   28    0.09433      0.00000     0.40443    0.00124     0.40567
      H   29    0.17809      0.00000     0.31842    0.00349     0.32191
      H   30    0.11433      0.00000     0.38030    0.00537     0.38567
      H   31    0.11216      0.00000     0.38562    0.00222     0.38784
      H   32    0.20386      0.00000     0.29391    0.00223     0.29614
      H   33    0.20600      0.00000     0.26796    0.02604     0.29400
      H   34    0.20194      0.00000     0.29367    0.00439     0.29806
 =======================================================================
   * Total *   -0.00000     15.99479    44.76027    0.24495    61.00000

 Normal termination of Gaussian 16 at Thu Dec 10 22:59:44 2020.
