 Gaussian 16, Revision A.03,

 -----------------------------------------------------------
 # opt freq B3LYP/6-31G(d) empiricaldispersion=gd3bj scf=xqc
 -----------------------------------------------------------

 ------------------------------
 CID_25093108_JID_1048_neutraal
 ------------------------------
 Symbolic Z-matrix:
 Charge =  0 Multiplicity = 1

 SCF Done:  E(RB3LYP) =  -869.205079199     A.U. after   19 cycles
 SCF Done:  E(RB3LYP) =  -869.217203295     A.U. after   18 cycles
 SCF Done:  E(RB3LYP) =  -869.226052752     A.U. after   18 cycles
 SCF Done:  E(RB3LYP) =  -869.226979659     A.U. after   17 cycles
 SCF Done:  E(RB3LYP) =  -869.229493495     A.U. after   16 cycles
 SCF Done:  E(RB3LYP) =  -869.230571259     A.U. after   17 cycles
 SCF Done:  E(RB3LYP) =  -869.230826974     A.U. after   15 cycles
 SCF Done:  E(RB3LYP) =  -869.230989003     A.U. after   14 cycles
 SCF Done:  E(RB3LYP) =  -869.231031501     A.U. after   12 cycles
 SCF Done:  E(RB3LYP) =  -869.231040443     A.U. after   13 cycles
 SCF Done:  E(RB3LYP) =  -869.231047162     A.U. after   13 cycles
 SCF Done:  E(RB3LYP) =  -869.231048238     A.U. after   12 cycles
 SCF Done:  E(RB3LYP) =  -869.231049227     A.U. after   12 cycles
 SCF Done:  E(RB3LYP) =  -869.231049946     A.U. after   13 cycles
 SCF Done:  E(RB3LYP) =  -869.231050110     A.U. after   11 cycles
 SCF Done:  E(RB3LYP) =  -869.231050197     A.U. after    9 cycles
 Optimization completed.
    -- Stationary point found.
 Normal termination of Gaussian 16 at Tue Dec  8 19:12:27 2020.

 --------------------------------------------------------------------
 #N Geom=AllCheck Guess=TCheck SCRF=Check GenChk RB3LYP/6-31G(d) Freq
 --------------------------------------------------------------------

 Structure from the checkpoint file:  "JID_1048.chk"
 ------------------------------
 CID_25093108_JID_1048_neutraal
 ------------------------------
 Charge =  0 Multiplicity = 1

 SCF Done:  E(RB3LYP) =  -869.231050197     A.U. after    1 cycles

  Exact polarizability: 163.583   2.239 104.923  -1.654  -0.902  41.973
 Approx polarizability: 241.367  11.359 208.609  -2.316   0.009  68.507

                      1                      2                      3
                      A                      A                      A
 Frequencies --     17.7359                64.6000               109.0149
 Red. masses --      8.4116                 6.9816                 8.7134
 Frc consts  --      0.0016                 0.0172                 0.0610
 IR Inten    --      0.3008                 0.4186                 0.2091

                      4                      5                      6
                      A                      A                      A
 Frequencies --    140.1696               195.1425               240.3011
 Red. masses --      7.9290                 6.3588                10.3642
 Frc consts  --      0.0918                 0.1427                 0.3526
 IR Inten    --      0.4308                 1.7183                 0.4644

                      7                      8                      9
                      A                      A                      A
 Frequencies --    296.8843               366.2824               410.8630
 Red. masses --      6.5664                 7.2757                 3.6979
 Frc consts  --      0.3410                 0.5751                 0.3678
 IR Inten    --      3.4932                 0.9695                 4.5879

                     10                     11                     12
                      A                      A                      A
 Frequencies --    450.9123               474.8212               488.3301
 Red. masses --      9.4914                 8.8659                 3.6614
 Frc consts  --      1.1370                 1.1777                 0.5144
 IR Inten    --      1.1910                 3.0465                 4.3920

                     13                     14                     15
                      A                      A                      A
 Frequencies --    537.2387               642.9313               738.6332
 Red. masses --      9.9865                 7.2815                 6.9136
 Frc consts  --      1.6982                 1.7734                 2.2223
 IR Inten    --     10.6114                 3.3442                28.9311

                     16                     17                     18
                      A                      A                      A
 Frequencies --    747.6087               773.1720               783.1874
 Red. masses --      4.1813                 1.6668                 3.1657
 Frc consts  --      1.3769                 0.5871                 1.1441
 IR Inten    --      0.6300                32.9230                27.0660

                     19                     20                     21
                      A                      A                      A
 Frequencies --    849.4763               897.8099               968.2567
 Red. masses --      5.9211                 1.2944                 1.1800
 Frc consts  --      2.5174                 0.6148                 0.6518
 IR Inten    --     58.2945                 0.2371                57.4263

                     22                     23                     24
                      A                      A                      A
 Frequencies --    977.5473              1008.0848              1015.0742
 Red. masses --      1.3599                 1.2974                 7.0848
 Frc consts  --      0.7657                 0.7768                 4.3010
 IR Inten    --      4.8036                 0.0056                 5.1516

                     25                     26                     27
                      A                      A                      A
 Frequencies --   1076.1649              1123.3223              1154.4654
 Red. masses --      2.6109                 1.7765                 2.8376
 Frc consts  --      1.7816                 1.3207                 2.2282
 IR Inten    --      3.4530                 5.3202                69.7612

                     28                     29                     30
                      A                      A                      A
 Frequencies --   1191.0132              1282.0006              1316.7862
 Red. masses --      1.1279                 1.3802                 8.1786
 Frc consts  --      0.9426                 1.3365                 8.3553
 IR Inten    --      4.0116               286.5210                 0.2636

                     31                     32                     33
                      A                      A                      A
 Frequencies --   1327.5633              1466.3408              1506.2448
 Red. masses --      1.4689                 2.0201                 2.0645
 Frc consts  --      1.5253                 2.5591                 2.7597
 IR Inten    --     15.0813                51.1579                54.0042

                     34                     35                     36
                      A                      A                      A
 Frequencies --   1620.0350              1642.3388              1662.1305
 Red. masses --      5.8099                 5.0822                11.5085
 Frc consts  --      8.9840                 8.0766                18.7327
 IR Inten    --     26.4269               100.6866               208.1013

                     37                     38                     39
                      A                      A                      A
 Frequencies --   1733.1203              3192.2421              3203.5696
 Red. masses --     11.6279                 1.0893                 1.0886
 Frc consts  --     20.5782                 6.5404                 6.5823
 IR Inten    --     39.5157                14.0837                 6.7436

                     40                     41                     42
                      A                      A                      A
 Frequencies --   3218.5226              3228.4526              3367.7652
 Red. masses --      1.0937                 1.0977                 1.0737
 Frc consts  --      6.6750                 6.7409                 7.1750
 IR Inten    --      6.2945                11.8434               120.1448

 - Thermochemistry -
 -------------------
 Temperature   298.150 Kelvin.  Pressure   1.00000 Atm.
 Atom     1 has atomic number  6 and mass  12.00000

 Molecular mass:   167.01533 amu.
 Principal axes and moments of inertia in atomic units:
                           1         2         3
     Eigenvalues --   607.330703459.857214025.07212
           X            1.00000   0.00020  -0.00266
           Y           -0.00023   0.99995  -0.00958
           Z            0.00266   0.00958   0.99995
 This molecule is an asymmetric top.
 Rotational symmetry number  1.
 Warning -- assumption of classical behavior for rotation
           may cause significant error
 Rotational temperatures (Kelvin)      0.14261     0.02503     0.02152
 Rotational constants (GHZ):           2.97160     0.52162     0.44837
 Zero-point vibrational energy     284149.9 (Joules/Mol)
                                   67.91346 (Kcal/Mol)
 Warning -- explicit consideration of  13 degrees of freedom as
           vibrations may cause significant error
 Vibrational temperatures:     25.52    92.95   156.85   201.67   280.77
          (Kelvin)            345.74   427.15   527.00   591.14   648.76
                              683.16   702.60   772.97   925.03  1062.73
                             1075.64  1112.42  1126.83  1222.21  1291.75
                             1393.11  1406.47  1450.41  1460.47  1548.36
                             1616.21  1661.02  1713.60  1844.51  1894.56
                             1910.07  2109.74  2167.15  2330.87  2362.96
                             2391.44  2493.57  4592.92  4609.22  4630.74
                             4645.02  4845.46

 Zero-point correction=                           0.108227 (Hartree/Particle)
 Thermal correction to Energy=                    0.118132
 Thermal correction to Enthalpy=                  0.119077
 Thermal correction to Gibbs Free Energy=         0.070785
 Sum of electronic and zero-point Energies=           -869.122823
 Sum of electronic and thermal Energies=              -869.112918
 Sum of electronic and thermal Enthalpies=            -869.111974
 Sum of electronic and thermal Free Energies=         -869.160265

                     E (Thermal)             CV                S
                      KCal/Mol        Cal/Mol-Kelvin    Cal/Mol-Kelvin
 Total                   74.129             35.379            101.639
 Electronic               0.000              0.000              0.000
 Translational            0.889              2.981             41.247
 Rotational               0.889              2.981             30.515
 Vibrational             72.352             29.418             29.877
 Vibration     1          0.593              1.986              6.873
 Vibration     2          0.597              1.971              4.311
 Vibration     3          0.606              1.942              3.286
 Vibration     4          0.615              1.913              2.802
 Vibration     5          0.636              1.847              2.178
 Vibration     6          0.657              1.779              1.801
 Vibration     7          0.691              1.680              1.434
 Vibration     8          0.739              1.542              1.095
 Vibration     9          0.775              1.447              0.924
 Vibration    10          0.810              1.359              0.793
 Vibration    11          0.832              1.306              0.724
 Vibration    12          0.844              1.276              0.688
 Vibration    13          0.892              1.168              0.571

 Optimization completed.
    -- Stationary point found.
 Normal termination of Gaussian 16 at Tue Dec  8 19:14:56 2020.

 ----------------------------------------------------------------------
 # B3LYP/6-311++G(d,p) empiricaldispersion=gd3bj scf=xqc pop=npa geom=c
 heck
 ----------------------------------------------------------------------

 --------------------------------------
 CID_25093108_JID_1048_Energie_neutraal
 --------------------------------------
 Structure from the checkpoint file:  "JID_1048.chk"
 Charge =  0 Multiplicity = 1

 SCF Done:  E(RB3LYP) =  -869.389517742     A.U. after   17 cycles
 Normal termination of Gaussian 16 at Tue Dec  8 19:15:59 2020.

 ----------------------------------------------------------------------
 # B3LYP/6-311++G(d,p) empiricaldispersion=gd3bj scf=xqc pop=npa geom=c
 heck
 ----------------------------------------------------------------------

 ------------------------------------
 CID_25093108_JID_1048_Energie_kation
 ------------------------------------
 Structure from the checkpoint file:  "JID_1048.chk"
 Charge =  1 Multiplicity = 2

 SCF Done:  E(UB3LYP) =  -869.071312034     A.U. after   30 cycles
 Normal termination of Gaussian 16 at Tue Dec  8 19:18:15 2020.
 Gaussian 16:  ES64L-G16RevA.03 25-Dec-2016

 ----------------------------------------------------------------------
 # B3LYP/6-311++G(d,p) empiricaldispersion=gd3bj scf=xqc pop=npa geom=c
 heck
 ----------------------------------------------------------------------

 -----------------------------------
 CID_25093108_JID_1048_Energie_anion
 -----------------------------------
 Structure from the checkpoint file:  "JID_1048.chk"
 Charge = -1 Multiplicity = 2

                         Standard orientation:
 ---------------------------------------------------------------------
 Center     Atomic      Atomic             Coordinates (Angstroms)
 Number     Number       Type             X           Y           Z
 ---------------------------------------------------------------------
      1          6           0        3.246477    0.734470   -0.235380
      2          6           0        3.424174   -0.646604   -0.116416
      3          6           0        2.298822   -1.436518    0.088734
      4          7           0        1.057410   -0.939351    0.191560
      5          6           0        0.897322    0.379436    0.073351
      6          6           0        1.965457    1.262848   -0.147084
      7         16           0       -0.722737    1.122353    0.233745
      8          6           0       -1.870062   -0.254464    0.046112
      9          7           0       -1.736585   -1.500800   -0.003670
     10          7           0       -3.222800    0.423701    0.020500
     11          8           0       -4.102567   -0.302521   -0.360767
     12          1           0        4.095862    1.390166   -0.402487
     13          1           0        4.407855   -1.098680   -0.183259
     14          1           0        2.382508   -2.516467    0.182132
     15          1           0        1.783635    2.327796   -0.248444
     16          1           0       -0.744835   -1.760133    0.083640
 ---------------------------------------------------------------------

 SCF Done:  E(UB3LYP) =  -869.440324133     A.U. after   27 cycles

 The electronic state is 2-A.
 Alpha  occ. eigenvalues --  -88.72661 -18.93905 -14.20362 -14.18405 -14.11923
 Alpha  occ. eigenvalues --  -10.12818 -10.11234 -10.09517 -10.08421 -10.08016
 Alpha  occ. eigenvalues --  -10.07552  -7.81240  -5.77590  -5.77173  -5.76748
 Alpha  occ. eigenvalues --   -0.93948  -0.84842  -0.74718  -0.70846  -0.68272
 Alpha  occ. eigenvalues --   -0.61275  -0.54181  -0.53741  -0.49801  -0.42123
 Alpha  occ. eigenvalues --   -0.39298  -0.36983  -0.36379  -0.33649  -0.31037
 Alpha  occ. eigenvalues --   -0.30476  -0.29256  -0.27526  -0.26500  -0.23507
 Alpha  occ. eigenvalues --   -0.21346  -0.20454  -0.19061  -0.16787  -0.16360
 Alpha  occ. eigenvalues --   -0.10908  -0.10379  -0.01844   0.02132
 Alpha virt. eigenvalues --    0.06266   0.06561   0.07858   0.08349   0.09920
 Alpha virt. eigenvalues --    0.11532   0.13601   0.14035   0.15368   0.16278
 Alpha virt. eigenvalues --    0.16465   0.16791   0.17404   0.17755   0.18011

  Beta  occ. eigenvalues --  -88.72675 -18.92921 -14.20268 -14.17765 -14.11528
  Beta  occ. eigenvalues --  -10.12763 -10.11259 -10.09488 -10.08426 -10.07942
  Beta  occ. eigenvalues --  -10.07536  -7.81252  -5.77603  -5.77186  -5.76777
  Beta  occ. eigenvalues --   -0.92289  -0.84699  -0.74126  -0.70720  -0.68131
  Beta  occ. eigenvalues --   -0.61022  -0.53725  -0.53159  -0.49151  -0.41954
  Beta  occ. eigenvalues --   -0.39206  -0.36741  -0.35693  -0.33482  -0.30752
  Beta  occ. eigenvalues --   -0.30315  -0.28942  -0.26931  -0.23729  -0.23007
  Beta  occ. eigenvalues --   -0.19957  -0.19617  -0.18571  -0.16229  -0.14915
  Beta  occ. eigenvalues --   -0.10378  -0.09697  -0.00883
  Beta virt. eigenvalues --    0.06464   0.06548   0.07871   0.08336   0.09898
  Beta virt. eigenvalues --    0.11517   0.12094   0.13704   0.14043   0.15388
  Beta virt. eigenvalues --    0.16342   0.16506   0.16799   0.17599   0.17769

 Mulliken charges and spin densities:
               1          2
     1  C   -0.487646   0.022155
     2  C   -0.031490   0.060761
     3  C   -0.136051  -0.015855
     4  N    0.073088   0.037515
     5  C   -0.147157   0.040608
     6  C    0.224604  -0.002092
     7  S   -0.541235  -0.015847
     8  C   -0.073739  -0.006431
     9  N   -0.281679   0.222772
    10  N   -0.319094   0.341039
    11  O   -0.179372   0.325970
    12  H    0.142174  -0.002020
    13  H    0.135777  -0.004620
    14  H    0.153526   0.000818
    15  H    0.173636   0.000518
    16  H    0.294658  -0.005292
 Sum of Mulliken charges =  -1.00000   1.00000

 Dipole moment (field-independent basis, Debye):
    X=             13.0570    Y=              1.5495    Z=              0.1558  Tot=             13.1496
 Quadrupole moment (field-independent basis, Debye-Ang):
   XX=           -122.9304   YY=            -79.9010   ZZ=            -77.6466
   XY=             -3.6165   XZ=             -3.1151   YZ=             -1.5585

 Summary of Natural Population Analysis:

                                       Natural Population
                Natural  -----------------------------------------------
    Atom  No    Charge         Core      Valence    Rydberg      Total
 -----------------------------------------------------------------------
      C    1   -0.08388      0.99958     2.07513    0.00917     3.08388
      C    2   -0.13060      0.99957     2.12196    0.00908     3.13060
      C    3    0.02905      0.99959     1.95769    0.01367     2.97095
      N    4   -0.24979      0.99965     2.73385    0.01630     3.74979
      C    5    0.04822      0.99947     1.93609    0.01622     2.95178
      C    6   -0.12747      0.99950     2.11868    0.00929     3.12747
      S    7    0.11050      4.99944     2.86794    0.02212     7.88950
      C    8    0.09607      0.99964     1.87890    0.02539     2.90393
      N    9   -0.26060      0.99965     2.74689    0.01406     3.76060
      N   10    0.05755      0.99979     2.40937    0.03330     3.44245
      O   11   -0.05366      0.99989     3.03950    0.01427     4.05366
      H   12    0.09598      0.00000     0.40306    0.00096     0.40402
      H   13    0.09709      0.00000     0.40179    0.00111     0.40291
      H   14    0.08754      0.00000     0.41121    0.00125     0.41246
      H   15    0.10479      0.00000     0.39390    0.00132     0.39521
      H   16    0.17922      0.00000     0.31874    0.00204     0.32078
 =======================================================================
   * Total *    0.00000     14.99576    27.81470    0.18954    43.00000

 Normal termination of Gaussian 16 at Tue Dec  8 19:20:15 2020.
