 Gaussian 16, Revision A.03,

 -----------------------------------------------------------
 # opt freq B3LYP/6-31G(d) empiricaldispersion=gd3bj scf=xqc
 -----------------------------------------------------------

 -----------------------------
 CID_9574642_JID_5521_neutraal
 -----------------------------
 Symbolic Z-matrix:
 Charge =  0 Multiplicity = 1

 SCF Done:  E(RB3LYP) =  -1022.72969365     A.U. after   15 cycles
 SCF Done:  E(RB3LYP) =  -1022.73613202     A.U. after   13 cycles
 SCF Done:  E(RB3LYP) =  -1022.73650583     A.U. after   12 cycles
 SCF Done:  E(RB3LYP) =  -1022.73660737     A.U. after   11 cycles
 SCF Done:  E(RB3LYP) =  -1022.73662466     A.U. after   10 cycles
 SCF Done:  E(RB3LYP) =  -1022.73662921     A.U. after   10 cycles
 SCF Done:  E(RB3LYP) =  -1022.73663177     A.U. after    9 cycles
 SCF Done:  E(RB3LYP) =  -1022.73663337     A.U. after    9 cycles
 SCF Done:  E(RB3LYP) =  -1022.73663493     A.U. after    8 cycles
 SCF Done:  E(RB3LYP) =  -1022.73663719     A.U. after   10 cycles
 SCF Done:  E(RB3LYP) =  -1022.73674178     A.U. after    8 cycles
 SCF Done:  E(RB3LYP) =  -1022.73674195     A.U. after    8 cycles
 SCF Done:  E(RB3LYP) =  -1022.73674207     A.U. after    8 cycles
 SCF Done:  E(RB3LYP) =  -1022.73674213     A.U. after    7 cycles
 SCF Done:  E(RB3LYP) =  -1022.73674216     A.U. after    7 cycles
 Optimization completed.
    -- Stationary point found.
 Normal termination of Gaussian 16 at Thu Dec 10 16:43:10 2020.

 --------------------------------------------------------------------
 #N Geom=AllCheck Guess=TCheck SCRF=Check GenChk RB3LYP/6-31G(d) Freq
 --------------------------------------------------------------------

 Structure from the checkpoint file:  "JID_5521.chk"
 -----------------------------
 CID_9574642_JID_5521_neutraal
 -----------------------------
 Charge =  0 Multiplicity = 1

 SCF Done:  E(RB3LYP) =  -1022.73674216     A.U. after    1 cycles

  Exact polarizability: 288.489  11.937 147.388   7.012  -1.656  74.287
 Approx polarizability: 403.159  11.156 246.506  15.789  -7.072 115.143

                      1                      2                      3
                      A                      A                      A
 Frequencies --     16.2748                33.6572                70.0895
 Red. masses --      4.2567                 4.9087                 4.8366
 Frc consts  --      0.0007                 0.0033                 0.0140
 IR Inten    --      0.7487                 4.2039                 1.6047

                      4                      5                      6
                      A                      A                      A
 Frequencies --     77.1526                93.7526                97.5082
 Red. masses --      1.3833                 3.1001                 2.4820
 Frc consts  --      0.0049                 0.0161                 0.0139
 IR Inten    --      2.4510                 5.0413                 1.6976

                      7                      8                      9
                      A                      A                      A
 Frequencies --    114.3614               176.2152               183.4836
 Red. masses --      3.4864                 1.2095                 2.4201
 Frc consts  --      0.0269                 0.0221                 0.0480
 IR Inten    --      2.2882                 0.1525                 9.3425

                     10                     11                     12
                      A                      A                      A
 Frequencies --    197.0430               218.7868               241.2397
 Red. masses --      1.3565                 4.5850                 3.6984
 Frc consts  --      0.0310                 0.1293                 0.1268
 IR Inten    --      4.1747                 1.4152                 1.1804

                     13                     14                     15
                      A                      A                      A
 Frequencies --    282.9081               337.4364               350.2392
 Red. masses --      3.4787                 3.9162                 3.0379
 Frc consts  --      0.1640                 0.2627                 0.2196
 IR Inten    --      0.8404                 2.7430                 3.4535

                     16                     17                     18
                      A                      A                      A
 Frequencies --    356.5312               412.6765               419.3891
 Red. masses --      3.6145                 5.1017                 5.3012
 Frc consts  --      0.2707                 0.5119                 0.5494
 IR Inten    --     16.3179                 4.9685                 0.5589

                     19                     20                     21
                      A                      A                      A
 Frequencies --    470.7944               493.4853               539.6120
 Red. masses --      4.3946                 2.9948                 3.0680
 Frc consts  --      0.5739                 0.4297                 0.5263
 IR Inten    --      6.2817                 3.7224                 3.2054

                     22                     23                     24
                      A                      A                      A
 Frequencies --    567.8175               590.1144               606.9875
 Red. masses --      2.0279                 2.0717                 4.0018
 Frc consts  --      0.3852                 0.4251                 0.8687
 IR Inten    --      9.3326                34.1402                17.1720

                     25                     26                     27
                      A                      A                      A
 Frequencies --    623.6366               650.8821               661.6576
 Red. masses --      4.4802                 1.5999                 7.4559
 Frc consts  --      1.0266                 0.3993                 1.9232
 IR Inten    --     56.9200                55.1934                 1.3373

                     28                     29                     30
                      A                      A                      A
 Frequencies --    739.2461               775.7663               844.2576
 Red. masses --      4.1172                 4.5918                 6.3273
 Frc consts  --      1.3257                 1.6282                 2.6572
 IR Inten    --      2.3739                 0.1514                 1.9321

                     31                     32                     33
                      A                      A                      A
 Frequencies --    862.6923               919.7117               992.5074
 Red. masses --      1.4950                 2.6898                 2.8208
 Frc consts  --      0.6556                 1.3405                 1.6372
 IR Inten    --     16.6113                20.3226                13.5665

                     34                     35                     36
                      A                      A                      A
 Frequencies --   1006.9333              1011.6768              1066.8519
 Red. masses --      1.3034                 1.5674                 4.2240
 Frc consts  --      0.7786                 0.9452                 2.8326
 IR Inten    --      0.1415                 3.2181                10.9650

                     37                     38                     39
                      A                      A                      A
 Frequencies --   1067.5478              1070.2593              1074.1749
 Red. masses --      1.5608                 5.0909                 1.5443
 Frc consts  --      1.0480                 3.4358                 1.0498
 IR Inten    --      1.2233                64.0440                 4.6200

                     40                     41                     42
                      A                      A                      A
 Frequencies --   1097.3226              1140.9321              1153.5531
 Red. masses --      2.1803                 2.2342                 1.3104
 Frc consts  --      1.5468                 1.7135                 1.0274
 IR Inten    --      1.4257                28.4859                 4.7594

                     43                     44                     45
                      A                      A                      A
 Frequencies --   1172.0150              1192.5432              1214.5482
 Red. masses --      1.8209                 2.0809                 4.1097
 Frc consts  --      1.4736                 1.7436                 3.5718
 IR Inten    --     34.1496               184.1508                 7.2478

                     46                     47                     48
                      A                      A                      A
 Frequencies --   1236.0867              1275.6346              1341.9361
 Red. masses --      2.3144                 3.3529                 3.1620
 Frc consts  --      2.0835                 3.2146                 3.3549
 IR Inten    --    395.3703                30.5096                28.9930

                     49                     50                     51
                      A                      A                      A
 Frequencies --   1386.5483              1425.4589              1434.2988
 Red. masses --      4.0059                 1.3564                 1.3158
 Frc consts  --      4.5376                 1.6238                 1.5949
 IR Inten    --     19.1892                41.4530                13.0897

                     52                     53                     54
                      A                      A                      A
 Frequencies --   1450.0689              1470.8063              1481.5133
 Red. masses --      1.6152                 2.2128                 1.3069
 Frc consts  --      2.0010                 2.8203                 1.6901
 IR Inten    --     99.7033               116.8189                87.1293

                     55                     56                     57
                      A                      A                      A
 Frequencies --   1509.8535              1510.7765              1513.1865
 Red. masses --      1.0875                 1.0949                 1.1973
 Frc consts  --      1.4607                 1.4724                 1.6153
 IR Inten    --      6.7993                 9.9184               114.9494

                     58                     59                     60
                      A                      A                      A
 Frequencies --   1514.2538              1529.4136              1533.3407
 Red. masses --      1.0446                 1.1469                 1.0488
 Frc consts  --      1.4112                 1.5806                 1.4529
 IR Inten    --      7.5337                 1.1306                13.2075

                     61                     62                     63
                      A                      A                      A
 Frequencies --   1550.9296              1594.8295              1609.7390
 Red. masses --      1.9502                 4.7713                 1.8027
 Frc consts  --      2.7639                 7.1501                 2.7522
 IR Inten    --    219.4530                 6.0394               281.3680

                     64                     65                     66
                      A                      A                      A
 Frequencies --   1640.7394              1665.4789              3036.4094
 Red. masses --      6.2830                 9.6237                 1.0433
 Frc consts  --      9.9655                15.7279                 5.6674
 IR Inten    --      9.1139                62.3882                 6.5391

                     67                     68                     69
                      A                      A                      A
 Frequencies --   3051.1117              3070.8372              3086.9888
 Red. masses --      1.0389                 1.0326                 1.0997
 Frc consts  --      5.6984                 5.7369                 6.1743
 IR Inten    --     21.7520                41.5124                11.3279

                     70                     71                     72
                      A                      A                      A
 Frequencies --   3103.4746              3136.5354              3159.5164
 Red. masses --      1.1008                 1.1054                 1.1048
 Frc consts  --      6.2467                 6.4070                 6.4979
 IR Inten    --     14.4201                34.2015                19.7549

                     73                     74                     75
                      A                      A                      A
 Frequencies --   3162.6832              3189.0891              3196.8518
 Red. masses --      1.0997                 1.0950                 1.0910
 Frc consts  --      6.4811                 6.5614                 6.5696
 IR Inten    --      5.4414                 2.6934                11.7462

                     76                     77                     78
                      A                      A                      A
 Frequencies --   3242.9134              3541.1225              3629.1222
 Red. masses --      1.0933                 1.0760                 1.0770
 Frc consts  --      6.7741                 7.9495                 8.3571
 IR Inten    --      2.5008                20.2347                61.9074

 - Thermochemistry -
 -------------------
 Temperature   298.150 Kelvin.  Pressure   1.00000 Atm.
 Atom     1 has atomic number  6 and mass  12.00000

 Molecular mass:   223.08917 amu.
 Principal axes and moments of inertia in atomic units:
                           1         2         3
     Eigenvalues --  1299.053758140.861379280.77015
           X            0.99999   0.00264  -0.00443
           Y           -0.00264   1.00000   0.00067
           Z            0.00443  -0.00066   0.99999
 This molecule is an asymmetric top.
 Rotational symmetry number  1.
 Warning -- assumption of classical behavior for rotation
           may cause significant error
 Rotational temperatures (Kelvin)      0.06667     0.01064     0.00933
 Rotational constants (GHZ):           1.38927     0.22169     0.19446
 Zero-point vibrational energy     589566.5 (Joules/Mol)
                                  140.90977 (Kcal/Mol)
 Warning -- explicit consideration of  24 degrees of freedom as
           vibrations may cause significant error
 Vibrational temperatures:     23.42    48.43   100.84   111.01   134.89
          (Kelvin)            140.29   164.54   253.53   263.99   283.50
                              314.79   347.09   407.04   485.50   503.92
                              512.97   593.75   603.41   677.37   710.02
                              776.38   816.96   849.04   873.32   897.27
                              936.47   951.98  1063.61  1116.15  1214.70
                             1241.22  1323.26  1428.00  1448.75  1455.58
                             1534.96  1535.96  1539.86  1545.50  1578.80
                             1641.55  1659.71  1686.27  1715.80  1747.46
                             1778.45  1835.35  1930.75  1994.93  2050.92
                             2063.64  2086.33  2116.16  2131.57  2172.34
                             2173.67  2177.14  2178.67  2200.49  2206.14
                             2231.44  2294.60  2316.06  2360.66  2396.25
                             4368.72  4389.87  4418.25  4441.49  4465.21
                             4512.77  4545.84  4550.40  4588.39  4599.56
                             4665.83  5094.89  5221.50

 Zero-point correction=                           0.224554 (Hartree/Particle)
 Thermal correction to Energy=                    0.240235
 Thermal correction to Enthalpy=                  0.241179
 Thermal correction to Gibbs Free Energy=         0.179341
 Sum of electronic and zero-point Energies=          -1022.512188
 Sum of electronic and thermal Energies=             -1022.496507
 Sum of electronic and thermal Enthalpies=           -1022.495563
 Sum of electronic and thermal Free Energies=        -1022.557401

                     E (Thermal)             CV                S
                      KCal/Mol        Cal/Mol-Kelvin    Cal/Mol-Kelvin
 Total                  150.750             56.412            130.149
 Electronic               0.000              0.000              0.000
 Translational            0.889              2.981             42.110
 Rotational               0.889              2.981             32.951
 Vibrational            148.972             50.450             55.089
 Vibration     1          0.593              1.986              7.044
 Vibration     2          0.594              1.983              5.601
 Vibration     3          0.598              1.968              4.151
 Vibration     4          0.599              1.964              3.962
 Vibration     5          0.603              1.954              3.580
 Vibration     6          0.603              1.951              3.504
 Vibration     7          0.607              1.938              3.194
 Vibration     8          0.628              1.872              2.368
 Vibration     9          0.631              1.862              2.293
 Vibration    10          0.636              1.844              2.161
 Vibration    11          0.647              1.812              1.969
 Vibration    12          0.658              1.777              1.794
 Vibration    13          0.682              1.705              1.516
 Vibration    14          0.718              1.601              1.224
 Vibration    15          0.727              1.575              1.165
 Vibration    16          0.732              1.562              1.137
 Vibration    17          0.776              1.443              0.917
 Vibration    18          0.782              1.428              0.894
 Vibration    19          0.828              1.315              0.735
 Vibration    20          0.849              1.264              0.675
 Vibration    21          0.895              1.162              0.566
 Vibration    22          0.924              1.101              0.508
 Vibration    23          0.947              1.053              0.467
 Vibration    24          0.966              1.017              0.438

                           ! Non-Optimized Parameters !
 Normal termination of Gaussian 16 at Thu Dec 10 16:51:43 2020.

 ----------------------------------------------------------------------
 # B3LYP/6-311++G(d,p) empiricaldispersion=gd3bj scf=xqc pop=npa geom=c
 heck
 ----------------------------------------------------------------------

 -------------------------------------
 CID_9574642_JID_5521_Energie_neutraal
 -------------------------------------
 Structure from the checkpoint file:  "JID_5521.chk"
 Charge =  0 Multiplicity = 1

 SCF Done:  E(RB3LYP) =  -1022.93203715     A.U. after   16 cycles
 Normal termination of Gaussian 16 at Thu Dec 10 16:55:29 2020.

 ----------------------------------------------------------------------
 # B3LYP/6-311++G(d,p) empiricaldispersion=gd3bj scf=xqc pop=npa geom=c
 heck
 ----------------------------------------------------------------------

 -----------------------------------
 CID_9574642_JID_5521_Energie_kation
 -----------------------------------
 Structure from the checkpoint file:  "JID_5521.chk"
 Charge =  1 Multiplicity = 2

 SCF Done:  E(UB3LYP) =  -1022.64971693     A.U. after   33 cycles
 SCF Done:  E(UB3LYP) =  -1022.64971693     a.u. after    1 cycles
 Normal termination of Gaussian 16 at Thu Dec 10 17:05:09 2020.
 Gaussian 16:  ES64L-G16RevA.03 25-Dec-2016

 ----------------------------------------------------------------------
 # B3LYP/6-311++G(d,p) empiricaldispersion=gd3bj scf=xqc pop=npa geom=c
 heck
 ----------------------------------------------------------------------

 ----------------------------------
 CID_9574642_JID_5521_Energie_anion
 ----------------------------------
 Structure from the checkpoint file:  "JID_5521.chk"
 Charge = -1 Multiplicity = 2

                         Standard orientation:
 ---------------------------------------------------------------------
 Center     Atomic      Atomic             Coordinates (Angstroms)
 Number     Number       Type             X           Y           Z
 ---------------------------------------------------------------------
      1          6           0        5.521651    0.687654   -0.204960
      2          6           0        4.059940    0.345627   -0.131319
      3          7           0        3.759678   -0.940312    0.083891
      4          7           0        2.487786   -1.328054    0.163119
      5          6           0        1.492577   -0.441753    0.030331
      6          6           0        1.744325    0.925434   -0.201645
      7          6           0        3.057658    1.323113   -0.282480
      8          6           0        0.117037   -0.975969    0.138425
      9          7           0       -0.835600   -0.104434    0.055409
     10          7           0       -2.109923   -0.561531    0.145250
     11          6           0       -3.219510    0.224212   -0.070384
     12         16           0       -4.681119   -0.534026   -0.421996
     13          7           0       -3.107606    1.566024    0.024254
     14          6           0       -2.055412    2.374777    0.631473
     15          6           0       -0.095231   -2.453676    0.332952
     16          1           0        6.115560   -0.217446   -0.064084
     17          1           0        5.774894    1.130912   -1.175587
     18          1           0        5.796063    1.416073    0.567640
     19          1           0        0.918077    1.617003   -0.312185
     20          1           0        3.325807    2.360768   -0.460892
     21          1           0       -2.304281   -1.556973    0.082506
     22          1           0       -3.985467    2.027049   -0.168582
     23          1           0       -2.509922    3.316103    0.951554
     24          1           0       -1.629104    1.874842    1.503075
     25          1           0       -1.247379    2.590777   -0.072806
     26          1           0        0.866675   -2.956347    0.420736
     27          1           0       -0.683116   -2.647088    1.239504
     28          1           0       -0.638446   -2.889632   -0.516752
 ---------------------------------------------------------------------

 SCF Done:  E(UB3LYP) =  -1022.95782311     A.U. after   29 cycles

 The electronic state is 2-A.
 Alpha  occ. eigenvalues --  -88.66305 -14.25191 -14.23216 -14.20141 -14.18724
 Alpha  occ. eigenvalues --  -14.18581 -10.15261 -10.10384 -10.06944 -10.06284
 Alpha  occ. eigenvalues --  -10.06172 -10.06069 -10.05917 -10.05522 -10.04422
 Alpha  occ. eigenvalues --   -7.75090  -5.71515  -5.70877  -5.70672  -0.90278
 Alpha  occ. eigenvalues --   -0.87042  -0.83290  -0.73446  -0.70026  -0.67957
 Alpha  occ. eigenvalues --   -0.63458  -0.60781  -0.59039  -0.56505  -0.52698
 Alpha  occ. eigenvalues --   -0.50243  -0.49688  -0.46303  -0.40145  -0.38990
 Alpha  occ. eigenvalues --   -0.38004  -0.36684  -0.35095  -0.34482  -0.32586
 Alpha  occ. eigenvalues --   -0.31816  -0.31607  -0.30535  -0.29277  -0.28986
 Alpha  occ. eigenvalues --   -0.28234  -0.27393  -0.26479  -0.25363  -0.24200
 Alpha  occ. eigenvalues --   -0.21925  -0.17882  -0.17264  -0.16369  -0.14973
 Alpha  occ. eigenvalues --   -0.11655  -0.09769  -0.09497  -0.08601   0.02827
 Alpha virt. eigenvalues --    0.07176   0.07697   0.08243   0.09462   0.09611
 Alpha virt. eigenvalues --    0.10215   0.10764   0.11333   0.11799   0.12233
 Alpha virt. eigenvalues --    0.12939   0.13236   0.13452   0.14249   0.14821

  Beta  occ. eigenvalues --  -88.66285 -14.25278 -14.23159 -14.20263 -14.18445
  Beta  occ. eigenvalues --  -14.18062 -10.15034 -10.10384 -10.06597 -10.06099
  Beta  occ. eigenvalues --  -10.06095 -10.05973 -10.05945 -10.05434 -10.04443
  Beta  occ. eigenvalues --   -7.75072  -5.71512  -5.70807  -5.70658  -0.89906
  Beta  occ. eigenvalues --   -0.86735  -0.83015  -0.73017  -0.69534  -0.67697
  Beta  occ. eigenvalues --   -0.63275  -0.60586  -0.58933  -0.56389  -0.52404
  Beta  occ. eigenvalues --   -0.50078  -0.49374  -0.46039  -0.40036  -0.38839
  Beta  occ. eigenvalues --   -0.37920  -0.36502  -0.34795  -0.34090  -0.31989
  Beta  occ. eigenvalues --   -0.31380  -0.31287  -0.30440  -0.29187  -0.28913
  Beta  occ. eigenvalues --   -0.27756  -0.26752  -0.26393  -0.25174  -0.23985
  Beta  occ. eigenvalues --   -0.20731  -0.17750  -0.16643  -0.15136  -0.14401
  Beta  occ. eigenvalues --   -0.10708  -0.09628  -0.09296  -0.07743
  Beta virt. eigenvalues --    0.07136   0.07659   0.08446   0.08589   0.09412
  Beta virt. eigenvalues --    0.09600   0.10574   0.10885   0.11748   0.12077
  Beta virt. eigenvalues --    0.12459   0.12952   0.13213   0.13495   0.14240

 Mulliken charges and spin densities:
               1          2
     1  C   -0.618202  -0.021790
     2  C   -0.184448   0.204015
     3  N    0.043964  -0.071263
     4  N   -0.160087   0.124396
     5  C   -0.136677   0.112779
     6  C    0.019317   0.105683
     7  C   -0.159381   0.003202
     8  C    0.064331   0.108176
     9  N   -0.006480   0.250705
    10  N    0.082319  -0.058516
    11  C    0.155369   0.118530
    12  S   -0.822299   0.056597
    13  N   -0.201141   0.031909
    14  C   -0.312300  -0.010313
    15  C   -0.807455  -0.018996
    16  H    0.142548   0.000448
    17  H    0.112160   0.020171
    18  H    0.111434   0.021199
    19  H    0.118466  -0.005218
    20  H    0.162121  -0.000534
    21  H    0.224477  -0.003117
    22  H    0.277414   0.001396
    23  H    0.101728  -0.002364
    24  H    0.186868   0.001634
    25  H    0.164983   0.004576
    26  H    0.182179   0.000060
    27  H    0.131951   0.011120
    28  H    0.126842   0.015513
 Sum of Mulliken charges =  -1.00000   1.00000

 Dipole moment (field-independent basis, Debye):
    X=              1.8397    Y=              5.0936    Z=              1.0294  Tot=              5.5127
 Quadrupole moment (field-independent basis, Debye-Ang):
   XX=           -183.6644   YY=           -104.4305   ZZ=           -106.5557
   XY=              0.3269   XZ=             -6.6061   YZ=              0.7768

 Summary of Natural Population Analysis:

                                       Natural Population
                Natural  -----------------------------------------------
    Atom  No    Charge         Core      Valence    Rydberg      Total
 -----------------------------------------------------------------------
      C    1   -0.30063      0.99965     2.29633    0.00465     3.30063
      C    2    0.13942      0.99957     1.84777    0.01324     2.86058
      N    3   -0.16370      0.99969     2.64801    0.01601     3.66370
      N    4   -0.09713      0.99968     2.58203    0.01542     3.59713
      C    5    0.09885      0.99951     1.88879    0.01285     2.90115
      C    6   -0.06664      0.99953     2.05872    0.00840     3.06664
      C    7   -0.12162      0.99952     2.11412    0.00798     3.12162
      C    8    0.12743      0.99960     1.85904    0.01393     2.87257
      N    9   -0.08839      0.99961     2.57403    0.01476     3.58839
      N   10   -0.22563      0.99963     2.71271    0.01329     3.72563
      C   11    0.18801      0.99968     1.79231    0.02001     2.81199
      S   12   -0.18091      4.99961     3.16670    0.01460     8.18091
      N   13   -0.30364      0.99963     2.79247    0.01154     3.80364
      C   14   -0.17522      0.99965     2.16814    0.00743     3.17522
      C   15   -0.32451      0.99960     2.31995    0.00496     3.32451
      H   16    0.10644      0.00000     0.39187    0.00168     0.39356
      H   17    0.09811      0.00000     0.40088    0.00101     0.40189
      H   18    0.09798      0.00000     0.40101    0.00101     0.40202
      H   19    0.10456      0.00000     0.39372    0.00172     0.39544
      H   20    0.09321      0.00000     0.40559    0.00120     0.40679
      H   21    0.19079      0.00000     0.30677    0.00244     0.30921
      H   22    0.19422      0.00000     0.30403    0.00175     0.30578
      H   23    0.08546      0.00000     0.41362    0.00092     0.41454
      H   24    0.10376      0.00000     0.39512    0.00112     0.39624
      H   25    0.09757      0.00000     0.40127    0.00116     0.40243
      H   26    0.12365      0.00000     0.37465    0.00170     0.37635
      H   27    0.09896      0.00000     0.39981    0.00123     0.40104
      H   28    0.09962      0.00000     0.39913    0.00125     0.40038
 =======================================================================
   * Total *    0.00001     18.99414    39.80858    0.19727    58.99999

 Normal termination of Gaussian 16 at Thu Dec 10 17:13:05 2020.
