 Gaussian 16, Revision A.03,

 -----------------------------------------------------------
 # opt freq B3LYP/6-31G(d) empiricaldispersion=gd3bj scf=xqc
 -----------------------------------------------------------

 ------------------------------
 CID_67706128_JID_1981_neutraal
 ------------------------------
 Symbolic Z-matrix:
 Charge =  0 Multiplicity = 1

 SCF Done:  E(RB3LYP) =  -460.918297726     A.U. after   16 cycles
 SCF Done:  E(RB3LYP) =  -460.928029463     A.U. after   15 cycles
 SCF Done:  E(RB3LYP) =  -460.928978424     A.U. after   13 cycles
 SCF Done:  E(RB3LYP) =  -460.929104281     A.U. after   13 cycles
 SCF Done:  E(RB3LYP) =  -460.929174151     A.U. after   12 cycles
 SCF Done:  E(RB3LYP) =  -460.929185449     A.U. after   10 cycles
 SCF Done:  E(RB3LYP) =  -460.929188791     A.U. after    9 cycles
 SCF Done:  E(RB3LYP) =  -460.929189429     A.U. after    8 cycles
 Optimization completed.
    -- Stationary point found.

 1\1\GINC-NODE200\FOpt\RB3LYP\6-31G(d)\C10H8O1\VSC10255\08-Dec-2020\0\\
 # opt freq B3LYP/6-31G(d) empiricaldispersion=gd3bj scf=xqc\\CID_67706
 128_JID_1981_neutraal\\0,1\C,1.0030898472,-0.0746611044,-0.0115639477\
 C,1.0289293869,1.3317229768,0.6538159452\C,2.1844083072,1.3627823106,1
 .4227474869\C,2.4555936404,-0.0327823716,1.7614963792\C,3.4432494294,-
 0.6750940548,2.3966568249\O,3.3564969156,-1.996739629,2.7643394863\C,2
 .2843101375,-2.7208581016,2.2794093946\C,1.2538752864,-2.223464947,1.5
 899071425\C,1.1257136532,-0.7514219472,1.3682717481\C,-0.0918454067,-0

 Normal termination of Gaussian 16 at Tue Dec  8 21:49:36 2020.

 --------------------------------------------------------------------
 #N Geom=AllCheck Guess=TCheck SCRF=Check GenChk RB3LYP/6-31G(d) Freq
 --------------------------------------------------------------------

 Structure from the checkpoint file:  "JID_1981.chk"
 ------------------------------
 CID_67706128_JID_1981_neutraal
 ------------------------------
 Charge =  0 Multiplicity = 1

 SCF Done:  E(RB3LYP) =  -460.929189429     A.U. after    1 cycles

  Exact polarizability: 133.539  -5.441  93.667   3.142  -1.702  64.471
 Approx polarizability: 273.609 -32.438 158.556  26.910  -6.830 102.838

                      1                      2                      3
                      A                      A                      A
 Frequencies --    110.9921               223.2603               320.4446
 Red. masses --      4.8832                 3.2274                 3.3274
 Frc consts  --      0.0354                 0.0948                 0.2013
 IR Inten    --      0.8244                 1.8835                17.5188

                      4                      5                      6
                      A                      A                      A
 Frequencies --    342.7427               400.1171               444.0963
 Red. masses --      3.9259                 2.5772                 3.7527
 Frc consts  --      0.2717                 0.2431                 0.4361
 IR Inten    --      1.5329                11.2161                 0.8799

                      7                      8                      9
                      A                      A                      A
 Frequencies --    507.3857               528.3774               545.5381
 Red. masses --      3.6502                 3.3109                 2.9856
 Frc consts  --      0.5537                 0.5446                 0.5235
 IR Inten    --      2.5554                 0.7651                 5.1048

                     10                     11                     12
                      A                      A                      A
 Frequencies --    581.5960               596.9539               622.4925
 Red. masses --      4.3017                 3.9621                 1.7113
 Frc consts  --      0.8573                 0.8319                 0.3907
 IR Inten    --      3.8585                18.1742                37.7396

                     13                     14                     15
                      A                      A                      A
 Frequencies --    687.8496               728.2980               751.4335
 Red. masses --      3.9961                 3.7632                 2.6883
 Frc consts  --      1.1140                 1.1760                 0.8944
 IR Inten    --     49.6693               102.3984                21.1174

                     16                     17                     18
                      A                      A                      A
 Frequencies --    771.9294               814.9391               823.0947
 Red. masses --      1.4999                 2.3428                 4.2353
 Frc consts  --      0.5266                 0.9167                 1.6906
 IR Inten    --     21.6562                25.6048                 6.1176

                     19                     20                     21
                      A                      A                      A
 Frequencies --    872.0009               881.9815               912.9333
 Red. masses --      1.7885                 1.5447                 2.0510
 Frc consts  --      0.8013                 0.7080                 1.0071
 IR Inten    --      9.4295                19.1996                35.9150

                     22                     23                     24
                      A                      A                      A
 Frequencies --    925.6842               945.2381               976.0491
 Red. masses --      3.0751                 1.2688                 3.1816
 Frc consts  --      1.5525                 0.6679                 1.7858
 IR Inten    --     14.9137                 0.3423                19.3984

                     25                     26                     27
                      A                      A                      A
 Frequencies --   1016.7396              1060.0431              1085.4590
 Red. masses --      2.5039                 2.7660                 1.7108
 Frc consts  --      1.5250                 1.8313                 1.1876
 IR Inten    --      9.3401                17.8313                11.6704

                     28                     29                     30
                      A                      A                      A
 Frequencies --   1093.3345              1138.2504              1148.1975
 Red. masses --      1.8154                 2.2397                 2.4005
 Frc consts  --      1.2786                 1.7096                 1.8646
 IR Inten    --     16.9233                76.8230                18.6227

                     31                     32                     33
                      A                      A                      A
 Frequencies --   1168.5232              1217.9333              1256.2079
 Red. masses --      2.1770                 1.4496                 1.4068
 Frc consts  --      1.7514                 1.2669                 1.3080
 IR Inten    --      0.0286                11.4625                 8.9794

                     34                     35                     36
                      A                      A                      A
 Frequencies --   1270.3561              1286.8812              1314.5930
 Red. masses --      1.9031                 1.9716                 1.8604
 Frc consts  --      1.8095                 1.9237                 1.8943
 IR Inten    --     12.9543                40.9387                63.0388

                     37                     38                     39
                      A                      A                      A
 Frequencies --   1359.6026              1432.1056              1448.7465
 Red. masses --      1.3784                 1.7881                 3.0600
 Frc consts  --      1.5013                 2.1607                 3.7841
 IR Inten    --      2.9895                 1.9631                11.3143

                     40                     41                     42
                      A                      A                      A
 Frequencies --   1525.1085              1569.3224              1682.1751
 Red. masses --      1.1353                 5.6626                 7.5831
 Frc consts  --      1.5559                 8.2166                12.6426
 IR Inten    --      0.5826                16.8987                47.2348

                     43                     44                     45
                      A                      A                      A
 Frequencies --   1744.6203              3071.9942              3129.8397
 Red. masses --      7.0203                 1.0572                 1.1090
 Frc consts  --     12.5895                 5.8781                 6.4005
 IR Inten    --     73.4813                42.0681                21.1157

                     46                     47                     48
                      A                      A                      A
 Frequencies --   3172.3970              3198.8825              3210.3959
 Red. masses --      1.0903                 1.0879                 1.0859
 Frc consts  --      6.4648                 6.5591                 6.5944
 IR Inten    --     22.8765                 5.6176                 3.7544

                     49                     50                     51
                      A                      A                      A
 Frequencies --   3234.0507              3236.1746              3243.1578
 Red. masses --      1.1046                 1.0935                 1.0978
 Frc consts  --      6.8067                 6.7474                 6.8033
 IR Inten    --     32.8866                13.3305                16.2629

 - Thermochemistry -
 -------------------
 Temperature   298.150 Kelvin.  Pressure   1.00000 Atm.
 Atom     1 has atomic number  6 and mass  12.00000

 Molecular mass:   144.05751 amu.
 Principal axes and moments of inertia in atomic units:
                           1         2         3
     Eigenvalues --   717.708771625.874221936.70784
           X            0.99996   0.00410  -0.00827
           Y           -0.00425   0.99982  -0.01844
           Z            0.00820   0.01847   0.99980
 This molecule is an asymmetric top.
 Rotational symmetry number  1.
 Warning -- assumption of classical behavior for rotation
           may cause significant error
 Rotational temperatures (Kelvin)      0.12068     0.05327     0.04472
 Rotational constants (GHZ):           2.51459     1.11001     0.93186
 Zero-point vibrational energy     392557.7 (Joules/Mol)
                                   93.82354 (Kcal/Mol)
 Warning -- explicit consideration of  11 degrees of freedom as
           vibrations may cause significant error
 Vibrational temperatures:    159.69   321.22   461.05   493.13   575.68
          (Kelvin)            638.96   730.01   760.22   784.91   836.79
                              858.88   895.63   989.66  1047.86  1081.15
                             1110.63  1172.52  1184.25  1254.61  1268.97
                             1313.51  1331.85  1359.99  1404.32  1462.86
                             1525.17  1561.73  1573.06  1637.69  1652.00
                             1681.24  1752.33  1807.40  1827.76  1851.53
                             1891.41  1956.16  2060.48  2084.42  2194.29
                             2257.90  2420.27  2510.12  4419.91  4503.14
                             4564.37  4602.48  4619.04  4653.08  4656.13
                             4666.18

 Zero-point correction=                           0.149517 (Hartree/Particle)
 Thermal correction to Energy=                    0.157151
 Thermal correction to Enthalpy=                  0.158095
 Thermal correction to Gibbs Free Energy=         0.117454
 Sum of electronic and zero-point Energies=           -460.779672
 Sum of electronic and thermal Energies=              -460.772038
 Sum of electronic and thermal Enthalpies=            -460.771094
 Sum of electronic and thermal Free Energies=         -460.811736

                     E (Thermal)             CV                S
                      KCal/Mol        Cal/Mol-Kelvin    Cal/Mol-Kelvin
 Total                   98.614             32.896             85.537
 Electronic               0.000              0.000              0.000
 Translational            0.889              2.981             40.806
 Rotational               0.889              2.981             29.204
 Vibrational             96.836             26.935             15.527
 Vibration     1          0.607              1.940              3.251
 Vibration     2          0.649              1.806              1.932
 Vibration     3          0.706              1.634              1.308
 Vibration     4          0.722              1.590              1.199
 Vibration     5          0.766              1.470              0.962
 Vibration     6          0.804              1.374              0.814
 Vibration     7          0.863              1.234              0.640
 Vibration     8          0.883              1.187              0.591
 Vibration     9          0.901              1.149              0.553
 Vibration    10          0.938              1.071              0.482
 Vibration    11          0.955              1.038              0.455

 Optimization completed.
    -- Stationary point found.

 1\1\GINC-NODE200\Freq\RB3LYP\6-31G(d)\C10H8O1\VSC10255\08-Dec-2020\0\\
 #N Geom=AllCheck Guess=TCheck SCRF=Check GenChk RB3LYP/6-31G(d) Freq\\
 CID_67706128_JID_1981_neutraal\\0,1\C,1.0030898472,-0.0746611044,-0.01
 15639477\C,1.0289293869,1.3317229768,0.6538159452\C,2.1844083072,1.362
 7823106,1.4227474869\C,2.4555936404,-0.0327823716,1.7614963792\C,3.443
 2494294,-0.6750940548,2.3966568249\O,3.3564969156,-1.996739629,2.76433
 94863\C,2.2843101375,-2.7208581016,2.2794093946\C,1.2538752864,-2.2234
 64947,1.5899071425\C,1.1257136532,-0.7514219472,1.3682717481\C,-0.0918

 Normal termination of Gaussian 16 at Tue Dec  8 21:53:31 2020.

 ----------------------------------------------------------------------
 # B3LYP/6-311++G(d,p) empiricaldispersion=gd3bj scf=xqc pop=npa geom=c
 heck
 ----------------------------------------------------------------------

 --------------------------------------
 CID_67706128_JID_1981_Energie_neutraal
 --------------------------------------
 Structure from the checkpoint file:  "JID_1981.chk"
 Charge =  0 Multiplicity = 1

 SCF Done:  E(RB3LYP) =  -461.051055196     A.U. after   17 cycles
 Normal termination of Gaussian 16 at Tue Dec  8 21:55:00 2020.

 ----------------------------------------------------------------------
 # B3LYP/6-311++G(d,p) empiricaldispersion=gd3bj scf=xqc pop=npa geom=c
 heck
 ----------------------------------------------------------------------

 ------------------------------------
 CID_67706128_JID_1981_Energie_kation
 ------------------------------------
 Structure from the checkpoint file:  "JID_1981.chk"
 Charge =  1 Multiplicity = 2

 SCF Done:  E(UB3LYP) =  -460.791540376     A.U. after   22 cycles
 Normal termination of Gaussian 16 at Tue Dec  8 21:58:00 2020.
 Gaussian 16:  ES64L-G16RevA.03 25-Dec-2016

 -----------------------------------
 CID_67706128_JID_1981_Energie_anion
 -----------------------------------
 Structure from the checkpoint file:  "JID_1981.chk"
 Charge = -1 Multiplicity = 2

                         Standard orientation:
 ---------------------------------------------------------------------
 Center     Atomic      Atomic             Coordinates (Angstroms)
 Number     Number       Type             X           Y           Z
 ---------------------------------------------------------------------
      1          6           0        1.168602   -0.472922    1.299203
      2          6           0        2.020562    0.515203    0.451213
      3          6           0        1.153040    1.531035    0.073266
      4          6           0       -0.173526    0.917792    0.066372
      5          6           0       -1.419761    1.366480   -0.126070
      6          8           0       -2.497742    0.527677   -0.280441
      7          6           0       -2.296570   -0.816189   -0.030155
      8          6           0       -1.120055   -1.395612    0.224190
      9          6           0        0.147791   -0.608351    0.151774
     10          6           0        1.180763   -0.992177   -0.978431
     11          6           0        2.337028   -0.326820   -0.782659
     12          1           0        1.701316   -1.398340    1.537421
     13          1           0        0.756737   -0.021748    2.207734
     14          1           0        1.423751    2.312121   -0.633682
     15          1           0       -1.722171    2.406341   -0.172219
     16          1           0       -3.245412   -1.339028   -0.053583
     17          1           0       -1.101927   -2.461733    0.429971
     18          1           0        0.957021   -1.710245   -1.760331
     19          1           0        3.225376   -0.319416   -1.404002
 ---------------------------------------------------------------------

 SCF Done:  E(UB3LYP) =  -461.073988032     A.U. after   27 cycles

 The electronic state is 2-A.
 Alpha  occ. eigenvalues --  -19.01966 -10.08830 -10.04827 -10.03980 -10.02718
 Alpha  occ. eigenvalues --  -10.01681 -10.01036 -10.00916 -10.00236  -9.97557
 Alpha  occ. eigenvalues --   -9.97041  -0.93403  -0.72948  -0.64043  -0.60940
 Alpha  occ. eigenvalues --   -0.56178  -0.53948  -0.48357  -0.45674  -0.40819
 Alpha  occ. eigenvalues --   -0.37410  -0.36018  -0.34446  -0.31469  -0.30976
 Alpha  occ. eigenvalues --   -0.29386  -0.28571  -0.25331  -0.24004  -0.21469
 Alpha  occ. eigenvalues --   -0.20222  -0.19011  -0.17905  -0.16691  -0.13134
 Alpha  occ. eigenvalues --   -0.10154  -0.07549  -0.02131   0.04119
 Alpha virt. eigenvalues --    0.09176   0.10403   0.11104   0.11750   0.12244
 Alpha virt. eigenvalues --    0.12895   0.13752   0.13826   0.14310   0.15707
 Alpha virt. eigenvalues --    0.16455   0.16736   0.17356   0.19388   0.19763

  Beta  occ. eigenvalues --  -19.01964 -10.08779 -10.04538 -10.03928 -10.02682
  Beta  occ. eigenvalues --  -10.01523 -10.01052 -10.00935 -10.00273  -9.96900
  Beta  occ. eigenvalues --   -9.96575  -0.93301  -0.72532  -0.63809  -0.60596
  Beta  occ. eigenvalues --   -0.55660  -0.53642  -0.47986  -0.45406  -0.40553
  Beta  occ. eigenvalues --   -0.37041  -0.35885  -0.34081  -0.31257  -0.30329
  Beta  occ. eigenvalues --   -0.29068  -0.28284  -0.25126  -0.23770  -0.21241
  Beta  occ. eigenvalues --   -0.19992  -0.18561  -0.17375  -0.16330  -0.12463
  Beta  occ. eigenvalues --   -0.09622  -0.06995   0.00797
  Beta virt. eigenvalues --    0.09095   0.10341   0.11010   0.11259   0.11741
  Beta virt. eigenvalues --    0.12591   0.13182   0.13708   0.14039   0.14514
  Beta virt. eigenvalues --    0.15914   0.16652   0.16878   0.17481   0.19394

 Mulliken charges and spin densities:
               1          2
     1  C   -0.937569   0.038608
     2  C    0.506389   0.241673
     3  C   -0.539821   0.521597
     4  C   -0.235685  -0.182869
     5  C   -0.469612   0.311628
     6  O   -0.128178  -0.008815
     7  C   -0.322332  -0.021784
     8  C    0.193970   0.030605
     9  C    1.122701   0.082738
    10  C   -0.436384  -0.104972
    11  C   -0.582316   0.024426
    12  H    0.105683   0.009086
    13  H    0.107341  -0.005587
    14  H    0.089435  -0.023766
    15  H    0.110820   0.015457
    16  H    0.120302   0.000595
    17  H    0.134299   0.011254
    18  H    0.083477   0.035922
    19  H    0.077481   0.024203
 Sum of Mulliken charges =  -1.00000   1.00000

 Dipole moment (field-independent basis, Debye):
    X=             -3.2318    Y=             -2.8348    Z=             -1.0858  Tot=              4.4339
 Quadrupole moment (field-independent basis, Debye-Ang):
   XX=            -91.5330   YY=            -77.5647   ZZ=            -75.5711
   XY=             -1.7285   XZ=             -4.9160   YZ=             -3.0363

 Summary of Natural Population Analysis:

                                       Natural Population
                Natural  -----------------------------------------------
    Atom  No    Charge         Core      Valence    Rydberg      Total
 -----------------------------------------------------------------------
      C    1   -0.19428      0.99961     2.18562    0.00905     3.19428
      C    2    0.08390      0.99915     1.88876    0.02818     2.91610
      C    3   -0.03220      0.99934     2.01839    0.01448     3.03220
      C    4   -0.06130      0.99949     2.04970    0.01211     3.06130
      C    5    0.10640      0.99933     1.88062    0.01366     2.89360
      O    6   -0.27491      0.99987     3.26497    0.01008     4.27491
      C    7    0.08660      0.99943     1.90120    0.01276     2.91340
      C    8   -0.13385      0.99950     2.12355    0.01080     3.13385
      C    9   -0.06826      0.99951     2.05209    0.01667     3.06826
      C   10   -0.12885      0.99952     2.11830    0.01102     3.12885
      C   11   -0.08663      0.99947     2.07483    0.01233     3.08663
      H   12    0.09187      0.00000     0.40692    0.00121     0.40813
      H   13    0.09363      0.00000     0.40528    0.00108     0.40637
      H   14    0.08293      0.00000     0.41581    0.00126     0.41707
      H   15    0.07872      0.00000     0.41941    0.00186     0.42128
      H   16    0.07889      0.00000     0.41991    0.00120     0.42111
      H   17    0.09635      0.00000     0.40265    0.00099     0.40365
      H   18    0.09182      0.00000     0.40692    0.00126     0.40818
      H   19    0.08916      0.00000     0.40899    0.00185     0.41084
 =======================================================================
   * Total *    0.00000     10.99422    26.84393    0.16185    38.00000

 Normal termination of Gaussian 16 at Tue Dec  8 22:01:30 2020.
