 Gaussian 16, Revision A.03,

 -----------------------------------------------------------
 # opt freq B3LYP/6-31G(d) empiricaldispersion=gd3bj scf=xqc
 -----------------------------------------------------------

 -------------------------------
 CID_152519068_JID_3165_neutraal
 -------------------------------
 Symbolic Z-matrix:
 Charge =  0 Multiplicity = 1

 SCF Done:  E(RB3LYP) =  -570.304856378     A.U. after   15 cycles
 SCF Done:  E(RB3LYP) =  -570.309858196     A.U. after   15 cycles
 SCF Done:  E(RB3LYP) =  -570.312337301     A.U. after   13 cycles
 SCF Done:  E(RB3LYP) =  -570.315000425     A.U. after   14 cycles
 SCF Done:  E(RB3LYP) =  -570.317072517     A.U. after   14 cycles
 SCF Done:  E(RB3LYP) =  -570.318472751     A.U. after   13 cycles
 SCF Done:  E(RB3LYP) =  -570.319991441     A.U. after   16 cycles
 SCF Done:  E(RB3LYP) =  -570.321071266     A.U. after   16 cycles
 SCF Done:  E(RB3LYP) =  -570.321602268     A.U. after   14 cycles
 SCF Done:  E(RB3LYP) =  -570.321986254     A.U. after   16 cycles
 SCF Done:  E(RB3LYP) =  -570.322341145     A.U. after   13 cycles
 SCF Done:  E(RB3LYP) =  -570.322375753     A.U. after   11 cycles
 SCF Done:  E(RB3LYP) =  -570.322378514     A.U. after   10 cycles
 SCF Done:  E(RB3LYP) =  -570.322378838     A.U. after    9 cycles
 SCF Done:  E(RB3LYP) =  -570.322378927     A.U. after    8 cycles
 SCF Done:  E(RB3LYP) =  -570.322378928     A.U. after    7 cycles
 Optimization completed.
    -- Stationary point found.

 1\1\GINC-NODE124\FOpt\RB3LYP\6-31G(d)\C9H14N4\VSC10255\09-Dec-2020\0\\
 # opt freq B3LYP/6-31G(d) empiricaldispersion=gd3bj scf=xqc\\CID_15251
 9068_JID_3165_neutraal\\0,1\C,1.8349525276,-1.1323212292,0.5094492063\
 C,2.8679584231,-0.066027188,0.123691368\C,2.2478481851,1.0404384815,-0
 .6897503548\C,0.9299754934,1.2324700465,-0.7952768262\C,-0.1116555777,
 0.3853760352,-0.1077312564\C,0.5411930645,-0.4746937791,0.9965916621\C
 ,-0.8985262509,-0.5131428118,-1.1291691582\C,-2.3888817488,-0.35469521
 13,-0.7677100931\N,-2.3583407178,0.285335097,0.561607848\C,-1.24592219

 Normal termination of Gaussian 16 at Wed Dec  9 22:35:47 2020.

 --------------------------------------------------------------------
 #N Geom=AllCheck Guess=TCheck SCRF=Check GenChk RB3LYP/6-31G(d) Freq
 --------------------------------------------------------------------

 Structure from the checkpoint file:  "JID_3165.chk"
 -------------------------------
 CID_152519068_JID_3165_neutraal
 -------------------------------
 Charge =  0 Multiplicity = 1

 SCF Done:  E(RB3LYP) =  -570.322378928     A.U. after    1 cycles

  Exact polarizability: 161.161  -9.988 106.492   3.623  -2.580  89.773
 Approx polarizability: 218.205 -31.185 181.016   6.423  -6.542 133.878

                      1                      2                      3
                      A                      A                      A
 Frequencies --     24.6005                51.3137                71.1960
 Red. masses --      6.8877                 2.8176                 3.5105
 Frc consts  --      0.0025                 0.0044                 0.0105
 IR Inten    --      0.0360                 0.2169                 0.3132

                      4                      5                      6
                      A                      A                      A
 Frequencies --     96.9135               187.5217               218.9121
 Red. masses --      2.9716                 5.2501                 2.5814
 Frc consts  --      0.0164                 0.1088                 0.0729
 IR Inten    --      0.1312                 0.7418                 0.2783

                      7                      8                      9
                      A                      A                      A
 Frequencies --    256.4119               294.9933               346.1073
 Red. masses --      2.1369                 5.8692                 2.4348
 Frc consts  --      0.0828                 0.3009                 0.1718
 IR Inten    --      0.3883                 0.7579                 0.3871

                     10                     11                     12
                      A                      A                      A
 Frequencies --    369.3019               409.3673               414.7468
 Red. masses --      3.5007                 3.2045                 2.1866
 Frc consts  --      0.2813                 0.3164                 0.2216
 IR Inten    --      2.2403                 1.6029                 3.3542

                     13                     14                     15
                      A                      A                      A
 Frequencies --    468.8115               487.3684               540.4759
 Red. masses --      2.1845                 4.4195                 3.1560
 Frc consts  --      0.2829                 0.6185                 0.5432
 IR Inten    --      1.6992                 2.2558                 0.9458

                     16                     17                     18
                      A                      A                      A
 Frequencies --    563.2006               594.3368               703.5708
 Red. masses --     12.8540                 4.5704                 3.0557
 Frc consts  --      2.4022                 0.9512                 0.8912
 IR Inten    --      8.1366                 0.7044                15.6899

                     19                     20                     21
                      A                      A                      A
 Frequencies --    722.4239               752.2584               766.5421
 Red. masses --      2.5658                 1.5217                 3.8148
 Frc consts  --      0.7890                 0.5073                 1.3207
 IR Inten    --      4.0009                14.2533                 1.7570

                     22                     23                     24
                      A                      A                      A
 Frequencies --    830.3008               860.5933               888.8993
 Red. masses --      1.4222                 2.5411                 2.0228
 Frc consts  --      0.5777                 1.1089                 0.9417
 IR Inten    --      0.8181                 1.0555                 0.7029

                     25                     26                     27
                      A                      A                      A
 Frequencies --    909.4854               925.4445               978.1328
 Red. masses --      3.0429                 2.1413                 2.3457
 Frc consts  --      1.4830                 1.0805                 1.3223
 IR Inten    --      6.7823                 3.6746                 3.8209

                     28                     29                     30
                      A                      A                      A
 Frequencies --    991.3105              1001.8309              1005.7828
 Red. masses --      2.4354                 2.2824                 1.5453
 Frc consts  --      1.4101                 1.3497                 0.9210
 IR Inten    --      4.6763                 3.0824                 1.5994

                     31                     32                     33
                      A                      A                      A
 Frequencies --   1012.7932              1035.1142              1048.2435
 Red. masses --      2.1120                 1.9696                 1.7527
 Frc consts  --      1.2764                 1.2434                 1.1347
 IR Inten    --      7.0454                 2.8347                 0.5898

                     34                     35                     36
                      A                      A                      A
 Frequencies --   1084.2492              1103.7072              1140.3671
 Red. masses --      1.8553                 3.3255                 1.8111
 Frc consts  --      1.2850                 2.3868                 1.3877
 IR Inten    --      2.4207                 5.1048                 0.1913

                     37                     38                     39
                      A                      A                      A
 Frequencies --   1151.3629              1165.9545              1202.6337
 Red. masses --      1.5503                 3.6380                 1.1071
 Frc consts  --      1.2108                 2.9139                 0.9434
 IR Inten    --      1.1114                 7.5152                 1.9904

                     40                     41                     42
                      A                      A                      A
 Frequencies --   1221.0656              1236.2744              1254.9622
 Red. masses --      1.6171                 3.6592                 1.4375
 Frc consts  --      1.4206                 3.2951                 1.3339
 IR Inten    --      3.2328                79.9135                14.4173

                     43                     44                     45
                      A                      A                      A
 Frequencies --   1273.4180              1275.5878              1300.6369
 Red. masses --      1.2619                 1.4712                 1.2398
 Frc consts  --      1.2056                 1.4104                 1.2357
 IR Inten    --      0.1970                 5.7791                 3.3586

                     46                     47                     48
                      A                      A                      A
 Frequencies --   1317.3704              1336.4500              1362.4314
 Red. masses --      1.4452                 1.4628                 1.3986
 Frc consts  --      1.4778                 1.5394                 1.5295
 IR Inten    --      6.2260                 1.5246                 1.4007

                     49                     50                     51
                      A                      A                      A
 Frequencies --   1374.6072              1392.5646              1397.7927
 Red. masses --      1.4872                 1.5808                 1.5446
 Frc consts  --      1.6557                 1.8061                 1.7781
 IR Inten    --      1.1186                 0.4488                 3.6392

                     52                     53                     54
                      A                      A                      A
 Frequencies --   1402.8694              1441.6912              1505.2417
 Red. masses --      1.4193                 1.5508                 1.0887
 Frc consts  --      1.6458                 1.8991                 1.4533
 IR Inten    --      2.1087                 1.4653                 1.6660

                     55                     56                     57
                      A                      A                      A
 Frequencies --   1518.9140              1525.5027              1530.8445
 Red. masses --      1.0834                 1.0919                 1.0904
 Frc consts  --      1.4727                 1.4971                 1.5056
 IR Inten    --      5.2254                 1.3468                 1.8582

                     58                     59                     60
                      A                      A                      A
 Frequencies --   1536.5489              1557.0809              1736.4618
 Red. masses --      1.0854                 1.0989                 6.7999
 Frc consts  --      1.5099                 1.5698                12.0805
 IR Inten    --      2.1991                 5.1482                 1.4587

                     61                     62                     63
                      A                      A                      A
 Frequencies --   2230.6619              2982.3339              3008.7576
 Red. masses --     13.9868                 1.0712                 1.0698
 Frc consts  --     41.0049                 5.6134                 5.7057
 IR Inten    --    567.8699                45.5432                34.6228

                     64                     65                     66
                      A                      A                      A
 Frequencies --   3012.3359              3035.4977              3041.8072
 Red. masses --      1.0709                 1.0693                 1.0657
 Frc consts  --      5.7255                 5.8052                 5.8097
 IR Inten    --     45.4906                10.8455                21.4256

                     67                     68                     69
                      A                      A                      A
 Frequencies --   3057.2880              3082.2220              3087.0662
 Red. masses --      1.0866                 1.0634                 1.0988
 Frc consts  --      5.9839                 5.9519                 6.1699
 IR Inten    --     53.7825                22.4290                55.8744

                     70                     71                     72
                      A                      A                      A
 Frequencies --   3098.9221              3103.5441              3114.8221
 Red. masses --      1.0968                 1.0941                 1.0926
 Frc consts  --      6.2056                 6.2091                 6.2454
 IR Inten    --     24.8416                24.3202                24.0286

                     73                     74                     75
                      A                      A                      A
 Frequencies --   3126.1508              3140.7995              3169.0330
 Red. masses --      1.1059                 1.0849                 1.0953
 Frc consts  --      6.3677                 6.3058                 6.4808
 IR Inten    --     27.6820                12.0186                42.8570

 - Thermochemistry -
 -------------------
 Temperature   298.150 Kelvin.  Pressure   1.00000 Atm.
 Atom     1 has atomic number  6 and mass  12.00000

 Molecular mass:   178.12185 amu.
 Principal axes and moments of inertia in atomic units:
                           1         2         3
     Eigenvalues --   893.824074417.497444584.12110
           X            0.99988   0.01508   0.00197
           Y           -0.01505   0.99983  -0.01023
           Z           -0.00212   0.01019   0.99995
 This molecule is an asymmetric top.
 Rotational symmetry number  1.
 Warning -- assumption of classical behavior for rotation
           may cause significant error
 Rotational temperatures (Kelvin)      0.09690     0.01961     0.01889
 Rotational constants (GHZ):           2.01912     0.40854     0.39369
 Zero-point vibrational energy     606902.3 (Joules/Mol)
                                  145.05313 (Kcal/Mol)
 Warning -- explicit consideration of  17 degrees of freedom as
           vibrations may cause significant error
 Vibrational temperatures:     35.39    73.83   102.44   139.44   269.80
          (Kelvin)            314.97   368.92   424.43   497.97   531.34
                              588.99   596.73   674.52   701.21   777.62
                              810.32   855.12  1012.28  1039.41  1082.33
                             1102.88  1194.62  1238.20  1278.93  1308.55
                             1331.51  1407.31  1426.27  1441.41  1447.10
                             1457.18  1489.30  1508.19  1559.99  1587.99
                             1640.73  1656.55  1677.55  1730.32  1756.84
                             1778.72  1805.61  1832.16  1835.29  1871.33
                             1895.40  1922.85  1960.23  1977.75  2003.59
                             2011.11  2018.42  2074.27  2165.71  2185.38
                             2194.86  2202.54  2210.75  2240.29  2498.38
                             3209.42  4290.91  4328.93  4334.08  4367.40
                             4376.48  4398.76  4434.63  4441.60  4458.66
                             4465.31  4481.53  4497.83  4518.91  4559.53

 Zero-point correction=                           0.231157 (Hartree/Particle)
 Thermal correction to Energy=                    0.242820
 Thermal correction to Enthalpy=                  0.243765
 Thermal correction to Gibbs Free Energy=         0.191995
 Sum of electronic and zero-point Energies=           -570.091222
 Sum of electronic and thermal Energies=              -570.079559
 Sum of electronic and thermal Enthalpies=            -570.078614
 Sum of electronic and thermal Free Energies=         -570.130384

                     E (Thermal)             CV                S
                      KCal/Mol        Cal/Mol-Kelvin    Cal/Mol-Kelvin
 Total                  152.372             44.975            108.958
 Electronic               0.000              0.000              0.000
 Translational            0.889              2.981             41.439
 Rotational               0.889              2.981             31.271
 Vibrational            150.595             39.014             36.248
 Vibration     1          0.593              1.985              6.223
 Vibration     2          0.596              1.977              4.766
 Vibration     3          0.598              1.968              4.120
 Vibration     4          0.603              1.951              3.515
 Vibration     5          0.632              1.857              2.252
 Vibration     6          0.647              1.812              1.968
 Vibration     7          0.666              1.752              1.686
 Vibration     8          0.689              1.683              1.445
 Vibration     9          0.724              1.583              1.184
 Vibration    10          0.742              1.535              1.083
 Vibration    11          0.774              1.450              0.929
 Vibration    12          0.778              1.438              0.910
 Vibration    13          0.826              1.319              0.741
 Vibration    14          0.843              1.278              0.690
 Vibration    15          0.896              1.161              0.564
 Vibration    16          0.919              1.111              0.517
 Vibration    17          0.952              1.044              0.459

 Optimization completed.
    -- Stationary point found.

 1\1\GINC-NODE124\Freq\RB3LYP\6-31G(d)\C9H14N4\VSC10255\09-Dec-2020\0\\
 #N Geom=AllCheck Guess=TCheck SCRF=Check GenChk RB3LYP/6-31G(d) Freq\\
 CID_152519068_JID_3165_neutraal\\0,1\C,1.8349525276,-1.1323212292,0.50
 94492063\C,2.8679584231,-0.066027188,0.123691368\C,2.2478481851,1.0404
 384815,-0.6897503548\C,0.9299754934,1.2324700465,-0.7952768262\C,-0.11
 16555777,0.3853760352,-0.1077312564\C,0.5411930645,-0.4746937791,0.996
 5916621\C,-0.8985262509,-0.5131428118,-1.1291691582\C,-2.3888817488,-0
 .3546952113,-0.7677100931\N,-2.3583407178,0.285335097,0.561607848\C,-1

 Normal termination of Gaussian 16 at Wed Dec  9 22:43:15 2020.

 ----------------------------------------------------------------------
 # B3LYP/6-311++G(d,p) empiricaldispersion=gd3bj scf=xqc pop=npa geom=c
 heck
 ----------------------------------------------------------------------

 ---------------------------------------
 CID_152519068_JID_3165_Energie_neutraal
 ---------------------------------------
 Structure from the checkpoint file:  "JID_3165.chk"
 Charge =  0 Multiplicity = 1

 SCF Done:  E(RB3LYP) =  -570.475415893     A.U. after   15 cycles
 Normal termination of Gaussian 16 at Wed Dec  9 22:46:52 2020.

 ----------------------------------------------------------------------
 # B3LYP/6-311++G(d,p) empiricaldispersion=gd3bj scf=xqc pop=npa geom=c
 heck
 ----------------------------------------------------------------------

 -------------------------------------
 CID_152519068_JID_3165_Energie_kation
 -------------------------------------
 Structure from the checkpoint file:  "JID_3165.chk"
 Charge =  1 Multiplicity = 2

 SCF Done:  E(UB3LYP) =  -570.164673164     A.U. after   31 cycles
 Normal termination of Gaussian 16 at Wed Dec  9 22:57:00 2020.
 Gaussian 16:  ES64L-G16RevA.03 25-Dec-2016

 ------------------------------------
 CID_152519068_JID_3165_Energie_anion
 ------------------------------------
 Structure from the checkpoint file:  "JID_3165.chk"
 Charge = -1 Multiplicity = 2

                         Standard orientation:
 ---------------------------------------------------------------------
 Center     Atomic      Atomic             Coordinates (Angstroms)
 Number     Number       Type             X           Y           Z
 ---------------------------------------------------------------------
      1          6           0       -2.584410   -1.175694    0.896061
      2          6           0       -3.601029   -0.745898   -0.169140
      3          6           0       -3.135064    0.472760   -0.922956
      4          6           0       -1.879954    0.929215   -0.889052
      5          6           0       -0.760182    0.284445   -0.110808
      6          6           0       -1.163656   -1.140684    0.327003
      7          6           0       -0.335316    1.154215    1.127265
      8          6           0        1.205196    1.206661    1.095776
      9          7           0        1.569677    0.149757    0.132571
     10          6           0        0.548983    0.244122   -0.921638
     11          7           0        2.879925    0.442833   -0.424585
     12          7           0        3.654419   -0.523170   -0.269062
     13          7           0        4.474449   -1.312811   -0.206773
     14          1           0       -2.653666   -0.496019    1.756014
     15          1           0       -2.822457   -2.178745    1.268166
     16          1           0       -3.771573   -1.570064   -0.879741
     17          1           0       -4.578302   -0.546626    0.290463
     18          1           0       -3.876623    1.000459   -1.520963
     19          1           0       -1.620838    1.833546   -1.440070
     20          1           0       -0.434276   -1.519919    1.050122
     21          1           0       -1.117200   -1.803578   -0.547735
     22          1           0       -0.756239    2.161269    1.062908
     23          1           0       -0.713779    0.706322    2.050400
     24          1           0        1.676104    1.006243    2.062345
     25          1           0        1.560340    2.185258    0.738922
     26          1           0        0.615577   -0.614592   -1.595117
     27          1           0        0.676232    1.165322   -1.515840
 ---------------------------------------------------------------------

 SCF Done:  E(UB3LYP) =  -570.471087017     A.U. after   32 cycles

 The electronic state is 2-A.
 Alpha  occ. eigenvalues --  -14.31308 -14.23365 -14.22636 -14.22037 -10.08329
 Alpha  occ. eigenvalues --  -10.08240 -10.08167 -10.06906 -10.06574 -10.06560
 Alpha  occ. eigenvalues --  -10.06527 -10.06284 -10.06059  -0.99292  -0.87187
 Alpha  occ. eigenvalues --   -0.78382  -0.73196  -0.66235  -0.64221  -0.62745
 Alpha  occ. eigenvalues --   -0.56643  -0.50686  -0.49790  -0.47601  -0.43872
 Alpha  occ. eigenvalues --   -0.40027  -0.38710  -0.38287  -0.36184  -0.36075
 Alpha  occ. eigenvalues --   -0.33934  -0.33041  -0.31709  -0.31243  -0.30305
 Alpha  occ. eigenvalues --   -0.29527  -0.27920  -0.27364  -0.26585  -0.25463
 Alpha  occ. eigenvalues --   -0.24480  -0.22409  -0.21714  -0.20836  -0.20022
 Alpha  occ. eigenvalues --   -0.14504  -0.11939  -0.11398   0.04488
 Alpha virt. eigenvalues --    0.06171   0.07696   0.08007   0.08630   0.09772
 Alpha virt. eigenvalues --    0.10084   0.10514   0.10881   0.11412   0.11836
 Alpha virt. eigenvalues --    0.12714   0.13253   0.13430   0.14453   0.14888

  Beta  occ. eigenvalues --  -14.30951 -14.23420 -14.22122 -14.21903 -10.08316
  Beta  occ. eigenvalues --  -10.08241 -10.08157 -10.06884 -10.06561 -10.06547
  Beta  occ. eigenvalues --  -10.06512 -10.06276 -10.06050  -0.98593  -0.86886
  Beta  occ. eigenvalues --   -0.78160  -0.73114  -0.66122  -0.64187  -0.62691
  Beta  occ. eigenvalues --   -0.56548  -0.50616  -0.49619  -0.47550  -0.43711
  Beta  occ. eigenvalues --   -0.39982  -0.38538  -0.37884  -0.35898  -0.35134
  Beta  occ. eigenvalues --   -0.33701  -0.32941  -0.31306  -0.30689  -0.30008
  Beta  occ. eigenvalues --   -0.29463  -0.27776  -0.27279  -0.26527  -0.25428
  Beta  occ. eigenvalues --   -0.24410  -0.22362  -0.21543  -0.20162  -0.19851
  Beta  occ. eigenvalues --   -0.14476  -0.11794  -0.11241
  Beta virt. eigenvalues --    0.06754   0.08107   0.08267   0.08913   0.10022
  Beta virt. eigenvalues --    0.10122   0.10610   0.10705   0.11060   0.11711
  Beta virt. eigenvalues --    0.11918   0.12938   0.13366   0.13571   0.14533

 Mulliken charges and spin densities:
               1          2
     1  C   -0.632498   0.381871
     2  C    1.579722  -2.323294
     3  C    0.907301  -1.012591
     4  C   -1.320148   0.908017
     5  C   -0.187162   1.051439
     6  C   -0.408130   0.192983
     7  C   -0.020337  -0.572741
     8  C    0.403691  -0.740653
     9  N    0.258741   0.033050
    10  C   -0.120689  -0.639092
    11  N   -0.417769   0.170014
    12  N    0.330997   0.052754
    13  N   -0.266974   0.214397
    14  H   -0.003912   0.130904
    15  H   -0.194955   0.356924
    16  H    0.039524   0.097823
    17  H   -0.361856   0.518368
    18  H   -0.680268   0.855473
    19  H   -0.145554   0.328150
    20  H    0.177972  -0.001187
    21  H    0.033340   0.112282
    22  H   -0.096697   0.299130
    23  H    0.066879   0.036720
    24  H    0.092831   0.084609
    25  H   -0.059371   0.191034
    26  H    0.123027   0.049386
    27  H   -0.097707   0.224229
 Sum of Mulliken charges =  -1.00000   1.00000

 Dipole moment (field-independent basis, Debye):
    X=             -0.4211    Y=             -0.2810    Z=              1.4586  Tot=              1.5440
 Quadrupole moment (field-independent basis, Debye-Ang):
   XX=           -170.1622   YY=           -107.5801   ZZ=            -99.3024
   XY=              8.0228   XZ=             -0.0779   YZ=              3.2670

 Summary of Natural Population Analysis:

                                       Natural Population
                Natural  -----------------------------------------------
    Atom  No    Charge         Core      Valence    Rydberg      Total
 -----------------------------------------------------------------------
      C    1   -0.19046      0.99963     2.18164    0.00918     3.19046
      C    2   -0.20681      0.99962     2.19798    0.00921     3.20681
      C    3   -0.08813      0.99952     2.07804    0.01056     3.08813
      C    4   -0.09257      0.99949     2.08074    0.01234     3.09257
      C    5   -0.06129      0.99953     2.04732    0.01443     3.06129
      C    6   -0.18396      0.99959     2.17593    0.00844     3.18396
      C    7   -0.18903      0.99959     2.18056    0.00888     3.18903
      C    8   -0.08455      0.99962     2.07492    0.01001     3.08455
      N    9   -0.18802      0.99970     2.67521    0.01311     3.68802
      C   10   -0.07795      0.99957     2.06461    0.01377     3.07795
      N   11   -0.15220      0.99972     2.63743    0.01505     3.65220
      N   12    0.14281      0.99971     2.34239    0.01510     3.35719
      N   13    0.01240      0.99982     2.47351    0.01427     3.48760
      H   14    0.09451      0.00000     0.40420    0.00129     0.40549
      H   15    0.09758      0.00000     0.40151    0.00091     0.40242
      H   16    0.09905      0.00000     0.39975    0.00120     0.40095
      H   17    0.10335      0.00000     0.39484    0.00181     0.39665
      H   18    0.09732      0.00000     0.40107    0.00161     0.40268
      H   19    0.09848      0.00000     0.40022    0.00131     0.40152
      H   20    0.10560      0.00000     0.39296    0.00143     0.39440
      H   21    0.09552      0.00000     0.40329    0.00119     0.40448
      H   22    0.10279      0.00000     0.39604    0.00117     0.39721
      H   23    0.09919      0.00000     0.39966    0.00115     0.40081
      H   24    0.09351      0.00000     0.40514    0.00135     0.40649
      H   25    0.08729      0.00000     0.41023    0.00248     0.41271
      H   26    0.09821      0.00000     0.40058    0.00121     0.40179
      H   27    0.08736      0.00000     0.41044    0.00220     0.41264
 =======================================================================
   * Total *   -0.00000     12.99513    34.83021    0.17466    48.00000

 Normal termination of Gaussian 16 at Wed Dec  9 23:07:12 2020.
