 Gaussian 16, Revision A.03,

 -----------------------------------------------------------
 # opt freq B3LYP/6-31G(d) empiricaldispersion=gd3bj scf=xqc
 -----------------------------------------------------------

 ------------------------------
 CID_50987529_JID_8211_neutraal
 ------------------------------
 Symbolic Z-matrix:
 Charge =  0 Multiplicity = 1

 SCF Done:  E(RB3LYP) =  -860.140394702     A.U. after   15 cycles
 SCF Done:  E(RB3LYP) =  -860.146194264     A.U. after   13 cycles
 SCF Done:  E(RB3LYP) =  -860.147462047     A.U. after   13 cycles
 SCF Done:  E(RB3LYP) =  -860.151830489     A.U. after   14 cycles
 SCF Done:  E(RB3LYP) =  -860.151203978     A.U. after   15 cycles
 SCF Done:  E(RB3LYP) =  -860.156039272     A.U. after   13 cycles
 SCF Done:  E(RB3LYP) =  -860.157841043     A.U. after   13 cycles
 SCF Done:  E(RB3LYP) =  -860.158028754     A.U. after   13 cycles
 SCF Done:  E(RB3LYP) =  -860.158881396     A.U. after   13 cycles
 SCF Done:  E(RB3LYP) =  -860.159012599     A.U. after   12 cycles
 SCF Done:  E(RB3LYP) =  -860.159401059     A.U. after    8 cycles
 SCF Done:  E(RB3LYP) =  -860.159401356     A.U. after    8 cycles
 SCF Done:  E(RB3LYP) =  -860.159401671     A.U. after    9 cycles
 SCF Done:  E(RB3LYP) =  -860.159401900     A.U. after    8 cycles
 SCF Done:  E(RB3LYP) =  -860.159402053     A.U. after    8 cycles
 Optimization completed.
    -- Stationary point found.
 Normal termination of Gaussian 16 at Fri Dec 11 19:40:23 2020.

 --------------------------------------------------------------------
 #N Geom=AllCheck Guess=TCheck SCRF=Check GenChk RB3LYP/6-31G(d) Freq
 --------------------------------------------------------------------

 Structure from the checkpoint file:  "JID_8211.chk"
 ------------------------------
 CID_50987529_JID_8211_neutraal
 ------------------------------
 Charge =  0 Multiplicity = 1

 SCF Done:  E(RB3LYP) =  -860.159402053     A.U. after    1 cycles

  Exact polarizability: 191.948  15.280 158.117   2.933   6.666  94.093
 Approx polarizability: 267.275  25.447 265.997   9.410  20.027 146.583

                      1                      2                      3
                      A                      A                      A
 Frequencies --     26.0012                31.6731                44.1412
 Red. masses --      4.3313                 6.8441                 5.1024
 Frc consts  --      0.0017                 0.0040                 0.0059
 IR Inten    --      1.4207                 1.0536                 0.2653

                      4                      5                      6
                      A                      A                      A
 Frequencies --     48.3161                58.9384                69.6167
 Red. masses --      4.7568                 6.9206                 5.6570
 Frc consts  --      0.0065                 0.0142                 0.0162
 IR Inten    --      0.1278                 0.3938                 0.9638

                      7                      8                      9
                      A                      A                      A
 Frequencies --    111.9628               137.4297               157.3553
 Red. masses --      5.6457                 4.4515                 4.3922
 Frc consts  --      0.0417                 0.0495                 0.0641
 IR Inten    --      3.8899                 1.4140                 0.9340

                     10                     11                     12
                      A                      A                      A
 Frequencies --    175.3541               213.4212               240.5795
 Red. masses --      4.2032                 2.9204                 1.2587
 Frc consts  --      0.0761                 0.0784                 0.0429
 IR Inten    --      1.2794                 0.1321                 0.4994

                     13                     14                     15
                      A                      A                      A
 Frequencies --    252.5289               263.8645               293.5165
 Red. masses --      3.3601                 3.6943                 4.8040
 Frc consts  --      0.1262                 0.1515                 0.2438
 IR Inten    --      3.2916                 5.0457                 1.6685

                     16                     17                     18
                      A                      A                      A
 Frequencies --    349.3865               399.1872               415.9186
 Red. masses --      4.2564                 3.6778                 2.9744
 Frc consts  --      0.3061                 0.3453                 0.3032
 IR Inten    --     14.7797                 6.4927                 0.1444

                     19                     20                     21
                      A                      A                      A
 Frequencies --    433.0742               464.9894               466.7866
 Red. masses --      5.3133                 3.9381                 5.8952
 Frc consts  --      0.5871                 0.5017                 0.7568
 IR Inten    --      3.5035                 1.4429                 0.3574

                     22                     23                     24
                      A                      A                      A
 Frequencies --    489.0021               513.0608               591.3319
 Red. masses --      1.9938                 2.3805                 4.2999
 Frc consts  --      0.2809                 0.3692                 0.8859
 IR Inten    --      4.3246                33.1476                29.5547

                     25                     26                     27
                      A                      A                      A
 Frequencies --    624.8443               632.4858               641.7647
 Red. masses --      3.2681                 6.2452                 1.4166
 Frc consts  --      0.7518                 1.4720                 0.3438
 IR Inten    --     49.2585                 0.5195                64.5895

                     28                     29                     30
                      A                      A                      A
 Frequencies --    673.6448               686.6786               700.6492
 Red. masses --      3.2528                 1.5948                 3.4515
 Frc consts  --      0.8697                 0.4431                 0.9983
 IR Inten    --     37.1810                81.5132                 3.4826

                     31                     32                     33
                      A                      A                      A
 Frequencies --    720.7515               728.0624               780.2677
 Red. masses --      1.6865                 3.7477                 3.5512
 Frc consts  --      0.5162                 1.1704                 1.2738
 IR Inten    --     41.9606                26.0147                 1.2603

                     34                     35                     36
                      A                      A                      A
 Frequencies --    809.5304               824.9061               835.6261
 Red. masses --      2.4035                 2.5095                 3.4180
 Frc consts  --      0.9280                 1.0061                 1.4062
 IR Inten    --     13.3786                22.7191                 7.0766

                     37                     38                     39
                      A                      A                      A
 Frequencies --    871.9748               936.5938               962.1789
 Red. masses --      1.2464                 2.0752                 1.3952
 Frc consts  --      0.5584                 1.0726                 0.7610
 IR Inten    --      0.3325                17.6499                 4.5078

                     40                     41                     42
                      A                      A                      A
 Frequencies --    990.4023               991.2714               994.0317
 Red. masses --      1.8433                 1.6205                 3.0684
 Frc consts  --      1.0653                 0.9382                 1.7863
 IR Inten    --      7.1604                 8.2609                79.6994

                     43                     44                     45
                      A                      A                      A
 Frequencies --   1001.7167              1013.0935              1021.6406
 Red. masses --      2.3703                 1.2887                 5.9416
 Frc consts  --      1.4014                 0.7793                 3.6539
 IR Inten    --     14.1040                 0.6232                 0.2651

                     46                     47                     48
                      A                      A                      A
 Frequencies --   1061.0021              1064.1649              1090.7642
 Red. masses --      2.1128                 3.4361                 2.3266
 Frc consts  --      1.4013                 2.2926                 1.6309
 IR Inten    --      1.2114                 9.9023                 3.6687

                     49                     50                     51
                      A                      A                      A
 Frequencies --   1101.7804              1122.9835              1173.3578
 Red. masses --      1.7773                 1.6281                 1.9660
 Frc consts  --      1.2712                 1.2097                 1.5948
 IR Inten    --     19.1170                10.1308               196.5984

                     52                     53                     54
                      A                      A                      A
 Frequencies --   1195.5654              1200.2062              1219.6127
 Red. masses --      1.1909                 2.1656                 1.3132
 Frc consts  --      1.0029                 1.8380                 1.1509
 IR Inten    --     12.9132                35.3880               109.3922

                     55                     56                     57
                      A                      A                      A
 Frequencies --   1225.1297              1244.9458              1269.2264
 Red. masses --      1.2949                 1.1754                 2.7923
 Frc consts  --      1.1451                 1.0733                 2.6503
 IR Inten    --     18.1187                15.1093                95.8713

                     58                     59                     60
                      A                      A                      A
 Frequencies --   1327.0876              1336.1932              1355.6878
 Red. masses --      1.4436                 1.5947                 1.6868
 Frc consts  --      1.4980                 1.6775                 1.8266
 IR Inten    --      3.7778                55.6008                11.4923

                     61                     62                     63
                      A                      A                      A
 Frequencies --   1358.6028              1375.1526              1390.0436
 Red. masses --      1.5564                 2.4447                 1.4416
 Frc consts  --      1.6926                 2.7239                 1.6411
 IR Inten    --      4.8461                 3.9952                11.5942

                     64                     65                     66
                      A                      A                      A
 Frequencies --   1405.8602              1433.5559              1434.6267
 Red. masses --      2.6825                 1.3922                 1.8159
 Frc consts  --      3.1238                 1.6857                 2.2021
 IR Inten    --    189.1650                15.7050                45.2601

                     67                     68                     69
                      A                      A                      A
 Frequencies --   1486.8191              1496.5581              1506.8375
 Red. masses --      1.0849                 2.2062                 1.3552
 Frc consts  --      1.4131                 2.9113                 1.8129
 IR Inten    --     22.2387                37.9072                35.4989

                     70                     71                     72
                      A                      A                      A
 Frequencies --   1521.5541              1522.7550              1536.9339
 Red. masses --      1.0559                 1.1004                 1.3448
 Frc consts  --      1.4403                 1.5034                 1.8716
 IR Inten    --     14.9830                19.1369                13.2058

                     73                     74                     75
                      A                      A                      A
 Frequencies --   1550.4659              1640.3303              1661.2050
 Red. masses --      1.8442                 5.2615                 5.3145
 Frc consts  --      2.6121                 8.3411                 8.6410
 IR Inten    --      7.2317                12.0467                27.3263

                     76                     77                     78
                      A                      A                      A
 Frequencies --   1771.2994              1787.3343              1827.2325
 Red. masses --     11.4581                 8.2584                 9.2777
 Frc consts  --     21.1810                15.5439                18.2506
 IR Inten    --    188.8454               437.1309               286.4439

                     79                     80                     81
                      A                      A                      A
 Frequencies --   3063.1241              3064.5533              3086.8694
 Red. masses --      1.0659                 1.0350                 1.0665
 Frc consts  --      5.8923                 5.7271                 5.9878
 IR Inten    --      6.7365                15.9553                 4.7313

                     82                     83                     84
                      A                      A                      A
 Frequencies --   3108.0098              3135.8625              3146.7867
 Red. masses --      1.0950                 1.1020                 1.1027
 Frc consts  --      6.2318                 6.3848                 6.4334
 IR Inten    --      3.7735                14.0275                31.5451

                     85                     86                     87
                      A                      A                      A
 Frequencies --   3152.2100              3175.0519              3189.1907
 Red. masses --      1.0988                 1.0851                 1.0858
 Frc consts  --      6.4329                 6.4453                 6.5066
 IR Inten    --      7.0960                10.0686                 0.5439

                     88                     89                     90
                      A                      A                      A
 Frequencies --   3200.6032              3210.2808              3220.3095
 Red. masses --      1.0894                 1.0934                 1.0942
 Frc consts  --      6.5752                 6.6395                 6.6855
 IR Inten    --     16.3875                17.5981                 6.0929

                     91                     92                     93
                      A                      A                      A
 Frequencies --   3228.2890              3566.5133              3683.8161
 Red. masses --      1.0933                 1.0747                 1.0641
 Frc consts  --      6.7131                 8.0540                 8.5077
 IR Inten    --      7.2147                49.3418                46.5466

 - Thermochemistry -
 -------------------
 Temperature   298.150 Kelvin.  Pressure   1.00000 Atm.
 Atom     1 has atomic number  6 and mass  12.00000

 Molecular mass:   249.10011 amu.
 Principal axes and moments of inertia in atomic units:
                           1         2         3
     Eigenvalues --  2872.129156845.855888693.90203
           X            1.00000   0.00012   0.00108
           Y           -0.00012   0.99999   0.00338
           Z           -0.00108  -0.00338   0.99999
 This molecule is an asymmetric top.
 Rotational symmetry number  1.
 Warning -- assumption of classical behavior for rotation
           may cause significant error
 Rotational temperatures (Kelvin)      0.03016     0.01265     0.00996
 Rotational constants (GHZ):           0.62836     0.26363     0.20759
 Zero-point vibrational energy     703499.3 (Joules/Mol)
                                  168.14037 (Kcal/Mol)
 Warning -- explicit consideration of  24 degrees of freedom as
           vibrations may cause significant error
 Vibrational temperatures:     37.41    45.57    63.51    69.52    84.80
          (Kelvin)            100.16   161.09   197.73   226.40   252.30
                              307.07   346.14   363.33   379.64   422.30
                              502.69   574.34   598.41   623.10   669.02
                              671.60   703.57   738.18   850.79   899.01
                              910.01   923.36   969.22   987.98  1008.08
                             1037.00  1047.52  1122.63  1164.73  1186.86
                             1202.28  1254.58  1347.55  1384.36  1424.97
                             1426.22  1430.19  1441.25  1457.62  1469.91
                             1526.55  1531.10  1569.37  1585.22  1615.72
                             1688.20  1720.15  1726.83  1754.75  1762.69
                             1791.20  1826.13  1909.38  1922.48  1950.53
                             1954.73  1978.54  1999.96  2022.72  2062.57
                             2064.11  2139.20  2153.21  2168.00  2189.18
                             2190.90  2211.31  2230.77  2360.07  2390.10
                             2548.50  2571.58  2628.98  4407.15  4409.21
                             4441.32  4471.73  4511.81  4527.52  4535.33
                             4568.19  4588.53  4604.95  4618.88  4633.31
                             4644.79  5131.42  5300.19

 Zero-point correction=                           0.267949 (Hartree/Particle)
 Thermal correction to Energy=                    0.285237
 Thermal correction to Enthalpy=                  0.286181
 Thermal correction to Gibbs Free Energy=         0.220367
 Sum of electronic and zero-point Energies=           -859.891453
 Sum of electronic and thermal Energies=              -859.874165
 Sum of electronic and thermal Enthalpies=            -859.873221
 Sum of electronic and thermal Free Energies=         -859.939035

                     E (Thermal)             CV                S
                      KCal/Mol        Cal/Mol-Kelvin    Cal/Mol-Kelvin
 Total                  178.989             64.020            138.518
 Electronic               0.000              0.000              0.000
 Translational            0.889              2.981             42.439
 Rotational               0.889              2.981             33.502
 Vibrational            177.211             58.058             62.577
 Vibration     1          0.593              1.985              6.113
 Vibration     2          0.594              1.983              5.722
 Vibration     3          0.595              1.980              5.064
 Vibration     4          0.595              1.978              4.885
 Vibration     5          0.596              1.974              4.492
 Vibration     6          0.598              1.969              4.164
 Vibration     7          0.607              1.940              3.235
 Vibration     8          0.614              1.916              2.839
 Vibration     9          0.621              1.894              2.581
 Vibration    10          0.627              1.873              2.377
 Vibration    11          0.644              1.820              2.014
 Vibration    12          0.658              1.778              1.799
 Vibration    13          0.664              1.759              1.713
 Vibration    14          0.670              1.739              1.636
 Vibration    15          0.688              1.686              1.454
 Vibration    16          0.727              1.577              1.169
 Vibration    17          0.765              1.472              0.966
 Vibration    18          0.779              1.436              0.906
 Vibration    19          0.794              1.398              0.849
 Vibration    20          0.822              1.328              0.752
 Vibration    21          0.824              1.324              0.747
 Vibration    22          0.845              1.274              0.686
 Vibration    23          0.868              1.221              0.626
 Vibration    24          0.949              1.050              0.465

 Optimization completed.
    -- Stationary point found.
 Normal termination of Gaussian 16 at Fri Dec 11 19:52:24 2020.

 ----------------------------------------------------------------------
 # B3LYP/6-311++G(d,p) empiricaldispersion=gd3bj scf=xqc pop=npa geom=c
 heck
 ----------------------------------------------------------------------

 --------------------------------------
 CID_50987529_JID_8211_Energie_neutraal
 --------------------------------------
 Structure from the checkpoint file:  "JID_8211.chk"
 Charge =  0 Multiplicity = 1

 SCF Done:  E(RB3LYP) =  -860.415501812     A.U. after   15 cycles
 Normal termination of Gaussian 16 at Fri Dec 11 19:57:12 2020.

 ----------------------------------------------------------------------
 # B3LYP/6-311++G(d,p) empiricaldispersion=gd3bj scf=xqc pop=npa geom=c
 heck
 ----------------------------------------------------------------------

 ------------------------------------
 CID_50987529_JID_8211_Energie_kation
 ------------------------------------
 Structure from the checkpoint file:  "JID_8211.chk"
 Charge =  1 Multiplicity = 2

 SCF Done:  E(UB3LYP) =  -860.095046817     A.U. after   33 cycles
 SCF Done:  E(UB3LYP) =  -860.095046817     a.u. after    2 cycles
 Normal termination of Gaussian 16 at Fri Dec 11 20:24:56 2020.
 Gaussian 16:  ES64L-G16RevA.03 25-Dec-2016

 ----------------------------------------------------------------------
 # B3LYP/6-311++G(d,p) empiricaldispersion=gd3bj scf=xqc pop=npa geom=c
 heck
 ----------------------------------------------------------------------

 -----------------------------------
 CID_50987529_JID_8211_Energie_anion
 -----------------------------------
 Structure from the checkpoint file:  "JID_8211.chk"
 Charge = -1 Multiplicity = 2

                         Standard orientation:
 ---------------------------------------------------------------------
 Center     Atomic      Atomic             Coordinates (Angstroms)
 Number     Number       Type             X           Y           Z
 ---------------------------------------------------------------------
      1          6           0        0.407249   -0.023718    1.886823
      2          6           0        0.309720    0.624369    0.489135
      3          6           0       -1.085112    1.248980    0.346664
      4          8           0       -1.230396    2.446076    0.548617
      5          6           0       -2.240205    0.361808    0.030258
      6          6           0       -3.526107    0.924083    0.067236
      7          6           0       -4.642326    0.148268   -0.222521
      8          6           0       -4.486420   -1.200629   -0.555182
      9          6           0       -3.211930   -1.767493   -0.597441
     10          6           0       -2.089914   -0.993168   -0.306520
     11          7           0        1.313449    1.650822    0.300566
     12          6           0        2.381768    1.651356   -0.557300
     13          8           0        3.045452    2.664476   -0.737360
     14          6           0        2.757831    0.340190   -1.252783
     15          6           0        3.348087   -0.726440   -0.308989
     16          6           0        2.432344   -1.896294   -0.023010
     17          8           0        1.400639   -2.168644   -0.603466
     18          8           0        2.916329   -2.662020    0.980654
     19          1           0        0.258890    0.736448    2.660629
     20          1           0        1.395547   -0.468423    2.031534
     21          1           0       -0.349828   -0.803222    2.015787
     22          1           0        0.444068   -0.143985   -0.268494
     23          1           0       -3.619362    1.973481    0.325368
     24          1           0       -5.633883    0.590365   -0.190976
     25          1           0       -5.357923   -1.807896   -0.783259
     26          1           0       -3.089185   -2.813752   -0.861279
     27          1           0       -1.108264   -1.453269   -0.353216
     28          1           0        1.050253    2.572215    0.636264
     29          1           0        1.907252   -0.088465   -1.792886
     30          1           0        3.504942    0.629818   -1.992340
     31          1           0        4.254537   -1.161334   -0.748854
     32          1           0        3.669492   -0.298932    0.646448
     33          1           0        2.293233   -3.405784    1.085522
 ---------------------------------------------------------------------

 SCF Done:  E(UB3LYP) =  -860.435918317     A.U. after   31 cycles

 The electronic state is 2-A.
 Alpha  occ. eigenvalues --  -19.09779 -19.03993 -18.97934 -18.93669 -14.21714
 Alpha  occ. eigenvalues --  -10.23244 -10.16695 -10.11405 -10.09040 -10.08775
 Alpha  occ. eigenvalues --  -10.07782 -10.05331 -10.04008 -10.04001 -10.03379
 Alpha  occ. eigenvalues --  -10.03175 -10.02833 -10.02729  -1.03772  -0.94610
 Alpha  occ. eigenvalues --   -0.93094  -0.88139  -0.80614  -0.71822  -0.71599
 Alpha  occ. eigenvalues --   -0.65283  -0.61755  -0.61165  -0.61063  -0.53810
 Alpha  occ. eigenvalues --   -0.52390  -0.49111  -0.47187  -0.46491  -0.43051
 Alpha  occ. eigenvalues --   -0.42410  -0.41440  -0.40021  -0.38591  -0.37692
 Alpha  occ. eigenvalues --   -0.35469  -0.34047  -0.33824  -0.32627  -0.32153
 Alpha  occ. eigenvalues --   -0.31388  -0.30664  -0.29963  -0.29632  -0.28828
 Alpha  occ. eigenvalues --   -0.28133  -0.27493  -0.27075  -0.26143  -0.25789
 Alpha  occ. eigenvalues --   -0.24528  -0.23793  -0.22011  -0.21506  -0.20928
 Alpha  occ. eigenvalues --   -0.20508  -0.15301  -0.14436  -0.12659  -0.12214
 Alpha  occ. eigenvalues --   -0.10140   0.03424
 Alpha virt. eigenvalues --    0.05272   0.06462   0.07773   0.08615   0.09444
 Alpha virt. eigenvalues --    0.10067   0.10402   0.11373   0.11654   0.11785
 Alpha virt. eigenvalues --    0.12015   0.12284   0.12849   0.13858   0.14031

  Beta  occ. eigenvalues --  -19.09757 -19.03984 -18.97934 -18.93145 -14.21707
  Beta  occ. eigenvalues --  -10.23234 -10.16695 -10.11395 -10.09039 -10.08804
  Beta  occ. eigenvalues --  -10.07416 -10.05293 -10.04075 -10.04067 -10.03225
  Beta  occ. eigenvalues --  -10.02872 -10.02746 -10.02555  -1.03737  -0.94583
  Beta  occ. eigenvalues --   -0.93089  -0.87225  -0.80540  -0.71585  -0.71507
  Beta  occ. eigenvalues --   -0.65073  -0.61594  -0.60864  -0.60812  -0.53612
  Beta  occ. eigenvalues --   -0.52313  -0.48494  -0.47071  -0.46404  -0.43017
  Beta  occ. eigenvalues --   -0.42110  -0.41419  -0.39961  -0.38456  -0.37606
  Beta  occ. eigenvalues --   -0.35242  -0.33922  -0.33777  -0.32536  -0.31980
  Beta  occ. eigenvalues --   -0.31222  -0.30408  -0.29797  -0.29531  -0.28765
  Beta  occ. eigenvalues --   -0.27920  -0.27378  -0.26889  -0.25973  -0.25677
  Beta  occ. eigenvalues --   -0.24018  -0.23172  -0.21767  -0.20966  -0.20464
  Beta  occ. eigenvalues --   -0.19310  -0.15275  -0.14365  -0.11873  -0.10643
  Beta  occ. eigenvalues --   -0.09690
  Beta virt. eigenvalues --    0.05555   0.06592   0.07863   0.08563   0.09351
  Beta virt. eigenvalues --    0.09646   0.09966   0.10329   0.11329   0.11599
  Beta virt. eigenvalues --    0.11924   0.12107   0.12267   0.12822   0.13779

 Mulliken charges and spin densities:
               1          2
     1  C   -0.629665  -0.035136
     2  C    0.195923   0.009740
     3  C   -0.551043   0.212339
     4  O   -0.380077   0.188992
     5  C    0.889106   0.024356
     6  C    0.483222   0.191444
     7  C   -0.540124  -0.052133
     8  C   -0.281223   0.242125
     9  C   -0.209043  -0.043390
    10  C   -1.057724   0.115726
    11  N   -0.017195  -0.001793
    12  C   -0.076897  -0.028491
    13  O   -0.366886   0.000463
    14  C   -0.180473   0.086224
    15  C   -0.090666  -0.232326
    16  C   -0.105696  -0.100877
    17  O   -0.223484   0.012753
    18  O   -0.111759   0.011830
    19  H    0.165517   0.004375
    20  H    0.060812   0.068345
    21  H    0.161993  -0.002414
    22  H    0.087774  -0.018618
    23  H    0.178335  -0.011039
    24  H    0.112901   0.003289
    25  H    0.098931  -0.018763
    26  H    0.126775   0.010401
    27  H    0.119332  -0.008715
    28  H    0.318301  -0.001857
    29  H    0.220773   0.004287
    30  H    0.204589   0.015806
    31  H    0.047532   0.144613
    32  H    0.246910   0.011074
    33  H    0.103230   0.197369
 Sum of Mulliken charges =  -1.00000   1.00000

 Dipole moment (field-independent basis, Debye):
    X=              4.0514    Y=             -5.3373    Z=              0.5527  Tot=              6.7236
 Quadrupole moment (field-independent basis, Debye-Ang):
   XX=           -156.5406   YY=           -143.2229   ZZ=           -118.6268
   XY=             -8.0133   XZ=             -0.2623   YZ=              1.0602

 Summary of Natural Population Analysis:

                                       Natural Population
                Natural  -----------------------------------------------
    Atom  No    Charge         Core      Valence    Rydberg      Total
 -----------------------------------------------------------------------
      C    1   -0.28191      0.99964     2.27585    0.00642     3.28191
      C    2   -0.06371      0.99956     2.05197    0.01218     3.06371
      C    3    0.32177      0.99960     1.65788    0.02075     2.67823
      O    4   -0.25981      0.99988     3.25400    0.00593     4.25981
      C    5   -0.05681      0.99947     2.04832    0.00902     3.05681
      C    6   -0.04611      0.99954     2.03741    0.00917     3.04611
      C    7   -0.13058      0.99957     2.12172    0.00929     3.13058
      C    8   -0.04830      0.99958     2.03907    0.00965     3.04830
      C    9   -0.12767      0.99958     2.11876    0.00933     3.12767
      C   10   -0.06614      0.99954     2.05946    0.00714     3.06614
      N   11   -0.31397      0.99965     2.80238    0.01194     3.81397
      C   12    0.34296      0.99968     1.63590    0.02146     2.65704
      O   13   -0.33319      0.99988     3.32690    0.00640     4.33319
      C   14   -0.23754      0.99958     2.22988    0.00808     3.23754
      C   15   -0.24466      0.99957     2.23551    0.00958     3.24466
      C   16    0.40754      0.99972     1.56659    0.02615     2.59246
      O   17   -0.30510      0.99987     3.29888    0.00635     4.30510
      O   18   -0.34505      0.99987     3.33916    0.00602     4.34505
      H   19    0.10024      0.00000     0.39893    0.00083     0.39976
      H   20    0.09070      0.00000     0.40784    0.00146     0.40930
      H   21    0.10500      0.00000     0.39418    0.00081     0.39500
      H   22    0.11024      0.00000     0.38691    0.00286     0.38976
      H   23    0.10436      0.00000     0.39404    0.00160     0.39564
      H   24    0.09063      0.00000     0.40832    0.00105     0.40937
      H   25    0.08596      0.00000     0.41300    0.00104     0.41404
      H   26    0.09147      0.00000     0.40754    0.00099     0.40853
      H   27    0.09840      0.00000     0.39968    0.00192     0.40160
      H   28    0.20616      0.00000     0.29195    0.00189     0.29384
      H   29    0.11791      0.00000     0.38095    0.00114     0.38209
      H   30    0.11078      0.00000     0.38793    0.00129     0.38922
      H   31    0.11649      0.00000     0.38255    0.00096     0.38351
      H   32    0.11840      0.00000     0.38052    0.00108     0.38160
      H   33    0.24152      0.00000     0.25458    0.00390     0.25848
 =======================================================================
   * Total *   -0.00000     17.99378    47.78854    0.21768    66.00000

 Normal termination of Gaussian 16 at Fri Dec 11 20:38:42 2020.
