 Gaussian 16, Revision A.03,

 -----------------------------------------------------------
 # opt freq B3LYP/6-31G(d) empiricaldispersion=gd3bj scf=xqc
 -----------------------------------------------------------

 ------------------------------
 CID_63656057_JID_2188_neutraal
 ------------------------------
 Symbolic Z-matrix:
 Charge =  0 Multiplicity = 1

 SCF Done:  E(RB3LYP) =  -521.210464081     A.U. after   14 cycles
 SCF Done:  E(RB3LYP) =  -521.229310560     A.U. after   12 cycles
 SCF Done:  E(RB3LYP) =  -521.229692738     A.U. after   12 cycles
 SCF Done:  E(RB3LYP) =  -521.225128236     A.U. after   14 cycles
 SCF Done:  E(RB3LYP) =  -521.230554588     A.U. after   12 cycles
 SCF Done:  E(RB3LYP) =  -521.230671971     A.U. after   12 cycles
 SCF Done:  E(RB3LYP) =  -521.229519286     A.U. after   14 cycles
 SCF Done:  E(RB3LYP) =  -521.231360719     A.U. after   11 cycles
 SCF Done:  E(RB3LYP) =  -521.231449964     A.U. after   11 cycles
 SCF Done:  E(RB3LYP) =  -521.231443621     A.U. after   10 cycles
 SCF Done:  E(RB3LYP) =  -521.231464593     A.U. after    7 cycles
 SCF Done:  E(RB3LYP) =  -521.231464986     A.U. after    7 cycles
 SCF Done:  E(RB3LYP) =  -521.231465378     A.U. after    7 cycles
 SCF Done:  E(RB3LYP) =  -521.231466146     A.U. after    9 cycles
 SCF Done:  E(RB3LYP) =  -521.231466157     A.U. after    6 cycles
 Optimization completed.
    -- Stationary point found.
 Normal termination of Gaussian 16 at Wed Dec  9 16:56:07 2020.

 --------------------------------------------------------------------
 #N Geom=AllCheck Guess=TCheck SCRF=Check GenChk RB3LYP/6-31G(d) Freq
 --------------------------------------------------------------------

 Structure from the checkpoint file:  "JID_2188.chk"
 ------------------------------
 CID_63656057_JID_2188_neutraal
 ------------------------------
 Charge =  0 Multiplicity = 1

 SCF Done:  E(RB3LYP) =  -521.231466157     A.U. after    1 cycles

  Exact polarizability: 114.697  -2.501 116.782   2.152  -7.613  91.967
 Approx polarizability: 137.240  -6.190 171.631   5.921 -19.432 146.775

                      1                      2                      3
                      A                      A                      A
 Frequencies --     32.4781                50.7361                69.4770
 Red. masses --      4.5378                 3.7648                 3.1026
 Frc consts  --      0.0028                 0.0057                 0.0088
 IR Inten    --      0.3948                 0.1722                 0.4631

                      4                      5                      6
                      A                      A                      A
 Frequencies --    125.4229               149.3793               194.8304
 Red. masses --      3.9529                 2.5120                 3.1028
 Frc consts  --      0.0366                 0.0330                 0.0694
 IR Inten    --      0.6183                 0.4596                 2.3714

                      7                      8                      9
                      A                      A                      A
 Frequencies --    208.3791               254.2637               286.3653
 Red. masses --      2.5156                 1.9867                 2.9278
 Frc consts  --      0.0644                 0.0757                 0.1415
 IR Inten    --      1.1217                 3.2997                 2.4411

                     10                     11                     12
                      A                      A                      A
 Frequencies --    292.9130               352.1638               360.1779
 Red. masses --      3.4484                 2.1378                 2.8339
 Frc consts  --      0.1743                 0.1562                 0.2166
 IR Inten    --      3.3413                 4.3407                 3.5796

                     13                     14                     15
                      A                      A                      A
 Frequencies --    426.9435               446.1178               467.8838
 Red. masses --      2.9747                 2.0827                 3.3614
 Frc consts  --      0.3195                 0.2442                 0.4336
 IR Inten    --      2.7985                 0.0771                 1.4414

                     16                     17                     18
                      A                      A                      A
 Frequencies --    495.3051               586.8073               597.1261
 Red. masses --      3.2482                 2.3452                 2.0750
 Frc consts  --      0.4695                 0.4758                 0.4359
 IR Inten    --      4.9089                 1.1481                 5.0457

                     19                     20                     21
                      A                      A                      A
 Frequencies --    605.5901               622.9100               746.9258
 Red. masses --      1.2915                 1.2137                 1.6086
 Frc consts  --      0.2791                 0.2775                 0.5287
 IR Inten    --     40.5629                57.0218                93.4906

                     22                     23                     24
                      A                      A                      A
 Frequencies --    805.3411               849.9099               875.1380
 Red. masses --      2.3657                 1.9513                 2.0702
 Frc consts  --      0.9040                 0.8305                 0.9341
 IR Inten    --      3.5495                 0.0653                16.3877

                     25                     26                     27
                      A                      A                      A
 Frequencies --    881.0283               883.4806               909.0730
 Red. masses --      2.5238                 1.4835                 1.8074
 Frc consts  --      1.1542                 0.6822                 0.8800
 IR Inten    --     12.1183                 3.5153                 5.1835

                     28                     29                     30
                      A                      A                      A
 Frequencies --    964.0557               974.8322              1005.0838
 Red. masses --      2.2785                 2.6088                 1.4435
 Frc consts  --      1.2477                 1.4607                 0.8592
 IR Inten    --     25.4719                 3.5338                 3.9849

                     31                     32                     33
                      A                      A                      A
 Frequencies --   1030.5397              1053.6429              1076.4194
 Red. masses --      2.2820                 1.9607                 2.0150
 Frc consts  --      1.4279                 1.2825                 1.3756
 IR Inten    --      5.4748                 9.2650                 2.2234

                     34                     35                     36
                      A                      A                      A
 Frequencies --   1097.0668              1112.8931              1133.7084
 Red. masses --      2.0608                 2.5749                 4.6082
 Frc consts  --      1.4614                 1.8790                 3.4897
 IR Inten    --      2.3478                 2.4209                71.1979

                     37                     38                     39
                      A                      A                      A
 Frequencies --   1151.7580              1171.2319              1198.7734
 Red. masses --      2.7877                 2.9537                 2.1346
 Frc consts  --      2.1788                 2.3872                 1.8074
 IR Inten    --     28.8149                43.4375                 7.5372

                     40                     41                     42
                      A                      A                      A
 Frequencies --   1218.3099              1237.9982              1245.5317
 Red. masses --      1.4214                 1.1688                 1.2189
 Frc consts  --      1.2430                 1.0554                 1.1141
 IR Inten    --     11.6990                 0.6417                10.7237

                     43                     44                     45
                      A                      A                      A
 Frequencies --   1269.0956              1314.1319              1322.6548
 Red. masses --      1.3438                 1.2184                 1.3032
 Frc consts  --      1.2752                 1.2397                 1.3433
 IR Inten    --      6.4869                11.8193                 1.3320

                     46                     47                     48
                      A                      A                      A
 Frequencies --   1339.8349              1344.8662              1366.3217
 Red. masses --      1.2532                 1.1549                 1.2996
 Frc consts  --      1.3255                 1.2307                 1.4295
 IR Inten    --      1.9262                 2.1827                 1.0082

                     49                     50                     51
                      A                      A                      A
 Frequencies --   1369.4775              1390.3694              1396.8363
 Red. masses --      1.3514                 1.2516                 1.4053
 Frc consts  --      1.4933                 1.4256                 1.6155
 IR Inten    --      3.6435                11.1481                 1.0592

                     52                     53                     54
                      A                      A                      A
 Frequencies --   1409.1680              1425.2749              1426.7788
 Red. masses --      1.2927                 1.4098                 1.4058
 Frc consts  --      1.5124                 1.6874                 1.6862
 IR Inten    --      9.1321                 9.5394                 2.2562

                     55                     56                     57
                      A                      A                      A
 Frequencies --   1443.7538              1494.7512              1508.6481
 Red. masses --      1.3601                 1.0954                 1.0904
 Frc consts  --      1.6704                 1.4420                 1.4622
 IR Inten    --      9.2458                 5.4040                 3.1892

                     58                     59                     60
                      A                      A                      A
 Frequencies --   1519.3421              1521.4246              1527.7690
 Red. masses --      1.0844                 1.0992                 1.1021
 Frc consts  --      1.4749                 1.4991                 1.5156
 IR Inten    --      0.2402                 2.8395                21.1542

                     61                     62                     63
                      A                      A                      A
 Frequencies --   1532.3985              1537.7042              1554.2729
 Red. masses --      1.1801                 1.1182                 1.0835
 Frc consts  --      1.6327                 1.5579                 1.5422
 IR Inten    --     25.9240                 8.2974                 5.2367

                     64                     65                     66
                      A                      A                      A
 Frequencies --   2236.0014              2955.9299              2969.5410
 Red. masses --      5.9839                 1.0715                 1.0722
 Frc consts  --     17.6271                 5.5161                 5.5708
 IR Inten    --      1.6097                29.4410                80.1758

                     67                     68                     69
                      A                      A                      A
 Frequencies --   2982.2485              3005.3379              3014.6671
 Red. masses --      1.0697                 1.0805                 1.0647
 Frc consts  --      5.6054                 5.7498                 5.7010
 IR Inten    --     49.3556                13.2437                52.4796

                     70                     71                     72
                      A                      A                      A
 Frequencies --   3021.0916              3044.0488              3046.4828
 Red. masses --      1.0712                 1.0602                 1.0635
 Frc consts  --      5.7606                 5.7880                 5.8157
 IR Inten    --     41.1653                28.8318                 6.5468

                     73                     74                     75
                      A                      A                      A
 Frequencies --   3058.2517              3062.8389              3085.0597
 Red. masses --      1.0962                 1.0883                 1.1004
 Frc consts  --      6.0405                 6.0150                 6.1706
 IR Inten    --     22.8431                77.1468                35.5012

                     76                     77                     78
                      A                      A                      A
 Frequencies --   3087.4675              3092.8914              3098.4849
 Red. masses --      1.1035                 1.0977                 1.0917
 Frc consts  --      6.1976                 6.1865                 6.1753
 IR Inten    --     19.7195                33.4164                48.8961

                     79                     80                     81
                      A                      A                      A
 Frequencies --   3107.6380              3490.5113              3495.2460
 Red. masses --      1.0929                 1.0739                 1.1589
 Frc consts  --      6.2185                 7.7091                 8.3417
 IR Inten    --     49.1337                 1.6985                54.3993

 - Thermochemistry -
 -------------------
 Temperature   298.150 Kelvin.  Pressure   1.00000 Atm.
 Atom     1 has atomic number  6 and mass  12.00000

 Molecular mass:   167.13101 amu.
 Principal axes and moments of inertia in atomic units:
                           1         2         3
     Eigenvalues --  1065.163773901.803474576.26614
           X            0.99994  -0.01114  -0.00055
           Y            0.01113   0.99992  -0.00678
           Z            0.00062   0.00678   0.99998
 This molecule is an asymmetric top.
 Rotational symmetry number  1.
 Warning -- assumption of classical behavior for rotation
           may cause significant error
 Rotational temperatures (Kelvin)      0.08132     0.02220     0.01893
 Rotational constants (GHZ):           1.69433     0.46254     0.39437
 Zero-point vibrational energy     682569.0 (Joules/Mol)
                                  163.13791 (Kcal/Mol)
 Warning -- explicit consideration of  19 degrees of freedom as
           vibrations may cause significant error
 Vibrational temperatures:     46.73    73.00    99.96   180.46   214.92
          (Kelvin)            280.32   299.81   365.83   412.02   421.44
                              506.69   518.22   614.28   641.86   673.18
                              712.63   844.28   859.13   871.31   896.23
                             1074.66  1158.71  1222.83  1259.13  1267.60
                             1271.13  1307.95  1387.06  1402.57  1446.09
                             1482.72  1515.96  1548.73  1578.43  1601.20
                             1631.15  1657.12  1685.14  1724.77  1752.88
                             1781.20  1792.04  1825.95  1890.74  1903.01
                             1927.72  1934.96  1965.83  1970.37  2000.43
                             2009.74  2027.48  2050.65  2052.82  2077.24
                             2150.61  2170.61  2185.99  2188.99  2198.12
                             2204.78  2212.41  2236.25  3217.11  4252.92
                             4272.51  4290.79  4324.01  4337.43  4346.68
                             4379.71  4383.21  4400.14  4406.74  4438.71
                             4442.18  4449.98  4458.03  4471.20  5022.07
                             5028.88

 Zero-point correction=                           0.259977 (Hartree/Particle)
 Thermal correction to Energy=                    0.272466
 Thermal correction to Enthalpy=                  0.273410
 Thermal correction to Gibbs Free Energy=         0.220453
 Sum of electronic and zero-point Energies=           -520.971489
 Sum of electronic and thermal Energies=              -520.959000
 Sum of electronic and thermal Enthalpies=            -520.958056
 Sum of electronic and thermal Free Energies=         -521.011013

                     E (Thermal)             CV                S
                      KCal/Mol        Cal/Mol-Kelvin    Cal/Mol-Kelvin
 Total                  170.975             47.441            111.458
 Electronic               0.000              0.000              0.000
 Translational            0.889              2.981             41.249
 Rotational               0.889              2.981             31.320
 Vibrational            169.198             41.479             38.889
 Vibration     1          0.594              1.983              5.672
 Vibration     2          0.595              1.977              4.788
 Vibration     3          0.598              1.969              4.168
 Vibration     4          0.610              1.928              3.015
 Vibration     5          0.618              1.903              2.680
 Vibration     6          0.635              1.847              2.181
 Vibration     7          0.642              1.828              2.058
 Vibration     8          0.665              1.756              1.701
 Vibration     9          0.684              1.699              1.495
 Vibration    10          0.688              1.687              1.457
 Vibration    11          0.729              1.571              1.156
 Vibration    12          0.735              1.554              1.121
 Vibration    13          0.789              1.412              0.869
 Vibration    14          0.805              1.369              0.808
 Vibration    15          0.825              1.321              0.744
 Vibration    16          0.851              1.260              0.670
 Vibration    17          0.944              1.060              0.473
 Vibration    18          0.955              1.038              0.455
 Vibration    19          0.964              1.020              0.440

 Optimization completed.
    -- Stationary point found.
 Normal termination of Gaussian 16 at Wed Dec  9 17:03:01 2020.

 ----------------------------------------------------------------------
 # B3LYP/6-311++G(d,p) empiricaldispersion=gd3bj scf=xqc pop=npa geom=c
 heck
 ----------------------------------------------------------------------

 --------------------------------------
 CID_63656057_JID_2188_Energie_neutraal
 --------------------------------------
 Structure from the checkpoint file:  "JID_2188.chk"
 Charge =  0 Multiplicity = 1

 SCF Done:  E(RB3LYP) =  -521.384951812     A.U. after   14 cycles
 Normal termination of Gaussian 16 at Wed Dec  9 17:06:30 2020.

 ----------------------------------------------------------------------
 # B3LYP/6-311++G(d,p) empiricaldispersion=gd3bj scf=xqc pop=npa geom=c
 heck
 ----------------------------------------------------------------------

 ------------------------------------
 CID_63656057_JID_2188_Energie_kation
 ------------------------------------
 Structure from the checkpoint file:  "JID_2188.chk"
 Charge =  1 Multiplicity = 2

 SCF Done:  E(UB3LYP) =  -521.087072178     A.U. after   21 cycles
 Normal termination of Gaussian 16 at Wed Dec  9 17:13:39 2020.
 Gaussian 16:  ES64L-G16RevA.03 25-Dec-2016

 ----------------------------------------------------------------------
 # B3LYP/6-311++G(d,p) empiricaldispersion=gd3bj scf=xqc pop=npa geom=c
 heck
 ----------------------------------------------------------------------

 -----------------------------------
 CID_63656057_JID_2188_Energie_anion
 -----------------------------------
 Structure from the checkpoint file:  "JID_2188.chk"
 Charge = -1 Multiplicity = 2

                         Standard orientation:
 ---------------------------------------------------------------------
 Center     Atomic      Atomic             Coordinates (Angstroms)
 Number     Number       Type             X           Y           Z
 ---------------------------------------------------------------------
      1          6           0        3.142917    2.058571   -0.787163
      2          6           0        3.351891    1.009357   -0.225539
      3          6           0        3.538544   -0.277785    0.446623
      4          6           0        2.194025   -0.940383    0.790025
      5          7           0        1.469973   -1.262046   -0.433171
      6          6           0        0.075773   -1.672506   -0.247286
      7          6           0       -0.966179   -0.557698   -0.434735
      8          6           0       -0.775344    0.646879    0.500540
      9          6           0       -1.917221    1.654947    0.314095
     10          6           0       -3.269056    0.953197    0.439602
     11          8           0       -3.384120   -0.126355   -0.478273
     12          6           0       -2.385678   -1.112021   -0.261941
     13          1           0        2.987297    2.991734   -1.278700
     14          1           0        4.111047   -0.953001   -0.201836
     15          1           0        4.120559   -0.136847    1.365903
     16          1           0        2.393744   -1.872096    1.334379
     17          1           0        1.644061   -0.275316    1.477157
     18          1           0        1.510467   -0.462141   -1.062546
     19          1           0       -0.155282   -2.482140   -0.955060
     20          1           0       -0.023596   -2.106125    0.757075
     21          1           0       -0.890171   -0.195704   -1.472147
     22          1           0       -0.769944    0.293089    1.542761
     23          1           0        0.192867    1.127154    0.321290
     24          1           0       -1.847521    2.464802    1.051283
     25          1           0       -1.849176    2.111438   -0.681785
     26          1           0       -3.403143    0.581515    1.471458
     27          1           0       -4.097556    1.630985    0.213438
     28          1           0       -2.586829   -1.910657   -0.983179
     29          1           0       -2.491713   -1.536878    0.753564
 ---------------------------------------------------------------------

 SCF Done:  E(UB3LYP) =  -521.368249285     A.U. after   33 cycles
 SCF Done:  E(UB3LYP) =  -521.368249285     a.u. after    1 cycles

 The electronic state is 2-A.
 Alpha  occ. eigenvalues --  -19.03164 -14.19990 -10.12334 -10.11960 -10.09985
 Alpha  occ. eigenvalues --  -10.09959 -10.09745 -10.08071 -10.08009 -10.07039
 Alpha  occ. eigenvalues --  -10.06954 -10.06708  -0.94617  -0.81437  -0.71683
 Alpha  occ. eigenvalues --   -0.69380  -0.67553  -0.63134  -0.58348  -0.55133
 Alpha  occ. eigenvalues --   -0.53159  -0.51214  -0.47205  -0.43538  -0.40976
 Alpha  occ. eigenvalues --   -0.39193  -0.38558  -0.37662  -0.37112  -0.35563
 Alpha  occ. eigenvalues --   -0.34987  -0.33093  -0.30944  -0.30421  -0.29267
 Alpha  occ. eigenvalues --   -0.28049  -0.27950  -0.26673  -0.25500  -0.23912
 Alpha  occ. eigenvalues --   -0.23087  -0.21323  -0.18153  -0.17875  -0.16533
 Alpha  occ. eigenvalues --   -0.12750   0.04550
 Alpha virt. eigenvalues --    0.06428   0.06640   0.07553   0.08174   0.09181
 Alpha virt. eigenvalues --    0.09361   0.09591   0.10338   0.10852   0.11562
 Alpha virt. eigenvalues --    0.11824   0.12497   0.12716   0.13059   0.13352

  Beta  occ. eigenvalues --  -19.03159 -14.19984 -10.12325 -10.11942 -10.09960
  Beta  occ. eigenvalues --  -10.09949 -10.09715 -10.08074 -10.08007 -10.07020
  Beta  occ. eigenvalues --  -10.06939 -10.06675  -0.94606  -0.81419  -0.71659
  Beta  occ. eigenvalues --   -0.69346  -0.67525  -0.63100  -0.58310  -0.55097
  Beta  occ. eigenvalues --   -0.53095  -0.51171  -0.47160  -0.43467  -0.40944
  Beta  occ. eigenvalues --   -0.39162  -0.38529  -0.37635  -0.37074  -0.35534
  Beta  occ. eigenvalues --   -0.34959  -0.33063  -0.30900  -0.30394  -0.29242
  Beta  occ. eigenvalues --   -0.28009  -0.27912  -0.26646  -0.25467  -0.23875
  Beta  occ. eigenvalues --   -0.23063  -0.21300  -0.18109  -0.17845  -0.16502
  Beta  occ. eigenvalues --   -0.12734
  Beta virt. eigenvalues --    0.06762   0.07401   0.07482   0.07848   0.08841
  Beta virt. eigenvalues --    0.09565   0.09856   0.10089   0.10581   0.11032
  Beta virt. eigenvalues --    0.11864   0.12254   0.12601   0.12875   0.13313

 Mulliken charges and spin densities:
               1          2
     1  C   -6.127926   4.879303
     2  C    5.030050  -3.661858
     3  C    2.749948  -3.689468
     4  C   -0.103427   0.048141
     5  N    0.033570  -0.004258
     6  C   -0.299124  -0.392958
     7  C   -0.325830   0.887061
     8  C   -0.416839   0.201211
     9  C    0.921422  -1.331115
    10  C   -0.027854  -0.321718
    11  O   -0.154958   0.040771
    12  C    0.102654  -0.746554
    13  H   -1.356249   1.512390
    14  H    0.117776   0.072702
    15  H   -0.447006   0.646545
    16  H   -0.731043   0.898044
    17  H   -0.140882   0.235500
    18  H    0.259876  -0.088783
    19  H   -0.046443   0.205618
    20  H    0.040678   0.104720
    21  H   -0.005230   0.200569
    22  H   -0.309287   0.502462
    23  H    0.743812  -0.624426
    24  H   -0.554649   0.719098
    25  H    0.145942   0.000104
    26  H    0.062298   0.047464
    27  H   -0.255272   0.445751
    28  H    0.174445  -0.019165
    29  H   -0.080450   0.232848
 Sum of Mulliken charges =  -1.00000   1.00000

 Dipole moment (field-independent basis, Debye):
    X=             -4.0534    Y=             -3.5401    Z=             -2.7493  Tot=              6.0433
 Quadrupole moment (field-independent basis, Debye-Ang):
   XX=           -153.0575   YY=           -126.6764   ZZ=           -113.1830
   XY=             -0.0638   XZ=             -2.9209   YZ=              3.9958

 Summary of Natural Population Analysis:

                                       Natural Population
                Natural  -----------------------------------------------
    Atom  No    Charge         Core      Valence    Rydberg      Total
 -----------------------------------------------------------------------
      C    1   -0.12287      0.99926     2.11948    0.00412     3.12287
      C    2   -0.00438      0.99938     1.99632    0.00869     3.00438
      C    3   -0.23501      0.99956     2.22456    0.01089     3.23501
      C    4   -0.07636      0.99962     2.06494    0.01180     3.07636
      N    5   -0.34547      0.99975     2.83484    0.01088     3.84547
      C    6   -0.08208      0.99960     2.07051    0.01197     3.08208
      C    7   -0.12833      0.99958     2.12030    0.00844     3.12833
      C    8   -0.19665      0.99961     2.18672    0.01032     3.19665
      C    9   -0.20273      0.99963     2.19418    0.00892     3.20273
      C   10   -0.00962      0.99958     1.99638    0.01366     3.00962
      O   11   -0.30096      0.99989     3.29177    0.00930     4.30096
      C   12   -0.00461      0.99954     1.99391    0.01116     3.00461
      H   13    0.11352      0.00000     0.38414    0.00235     0.38648
      H   14    0.11342      0.00000     0.38500    0.00159     0.38658
      H   15    0.11825      0.00000     0.37947    0.00228     0.38175
      H   16    0.09422      0.00000     0.40346    0.00232     0.40578
      H   17    0.08395      0.00000     0.41370    0.00235     0.41605
      H   18    0.17514      0.00000     0.32104    0.00382     0.32486
      H   19    0.08929      0.00000     0.40958    0.00113     0.41071
      H   20    0.09247      0.00000     0.40616    0.00137     0.40753
      H   21    0.09376      0.00000     0.40434    0.00189     0.40624
      H   22    0.09551      0.00000     0.40249    0.00201     0.40449
      H   23    0.10679      0.00000     0.39076    0.00245     0.39321
      H   24    0.10406      0.00000     0.39440    0.00155     0.39594
      H   25    0.09590      0.00000     0.40273    0.00137     0.40410
      H   26    0.07609      0.00000     0.42245    0.00147     0.42391
      H   27    0.09081      0.00000     0.40788    0.00131     0.40919
      H   28    0.08940      0.00000     0.40927    0.00134     0.41060
      H   29    0.07650      0.00000     0.42198    0.00152     0.42350
 =======================================================================
   * Total *   -0.00000     11.99500    33.85273    0.15227    46.00000

 Normal termination of Gaussian 16 at Wed Dec  9 17:24:03 2020.
