 Gaussian 16, Revision A.03,

 -----------------------------------------------------------
 # opt freq B3LYP/6-31G(d) empiricaldispersion=gd3bj scf=xqc
 -----------------------------------------------------------

 -------------------------------
 CID_141357462_JID_5989_neutraal
 -------------------------------
 Symbolic Z-matrix:
 Charge =  0 Multiplicity = 1

 SCF Done:  E(RB3LYP) =  -705.027934423     A.U. after   15 cycles
 SCF Done:  E(RB3LYP) =  -705.033389261     A.U. after   13 cycles
 SCF Done:  E(RB3LYP) =  -705.033793778     A.U. after   12 cycles
 SCF Done:  E(RB3LYP) =  -705.033408088     A.U. after   12 cycles
 SCF Done:  E(RB3LYP) =  -705.034247959     A.U. after   11 cycles
 SCF Done:  E(RB3LYP) =  -705.034397862     A.U. after   12 cycles
 SCF Done:  E(RB3LYP) =  -705.034491141     A.U. after   12 cycles
 SCF Done:  E(RB3LYP) =  -705.034543591     A.U. after   11 cycles
 SCF Done:  E(RB3LYP) =  -705.034582830     A.U. after   11 cycles
 SCF Done:  E(RB3LYP) =  -705.034596890     A.U. after   10 cycles
 SCF Done:  E(RB3LYP) =  -705.034599561     A.U. after    9 cycles
 SCF Done:  E(RB3LYP) =  -705.034600912     A.U. after    9 cycles
 SCF Done:  E(RB3LYP) =  -705.034601381     A.U. after    9 cycles
 SCF Done:  E(RB3LYP) =  -705.034601507     A.U. after    8 cycles
 Optimization completed.
    -- Stationary point found.
 Normal termination of Gaussian 16 at Thu Dec 10 17:40:07 2020.

 --------------------------------------------------------------------
 #N Geom=AllCheck Guess=TCheck SCRF=Check GenChk RB3LYP/6-31G(d) Freq
 --------------------------------------------------------------------

 Structure from the checkpoint file:  "JID_5989.chk"
 -------------------------------
 CID_141357462_JID_5989_neutraal
 -------------------------------
 Charge =  0 Multiplicity = 1

 SCF Done:  E(RB3LYP) =  -705.034601507     A.U. after    1 cycles

  Exact polarizability: 172.973   6.247 110.919  -9.155   4.833  86.698
 Approx polarizability: 257.228  14.557 188.930 -30.699  12.420 148.956

                      1                      2                      3
                      A                      A                      A
 Frequencies --     39.3721                54.7314                91.0583
 Red. masses --      5.4548                 5.4096                 7.8529
 Frc consts  --      0.0050                 0.0095                 0.0384
 IR Inten    --      0.3596                 2.4766                 0.7066

                      4                      5                      6
                      A                      A                      A
 Frequencies --    120.2622               132.9952               170.5972
 Red. masses --      2.2644                 7.6452                 4.5738
 Frc consts  --      0.0193                 0.0797                 0.0784
 IR Inten    --      1.2110                 0.2768                 1.3526

                      7                      8                      9
                      A                      A                      A
 Frequencies --    218.3449               295.7453               308.2294
 Red. masses --      6.0092                 5.0957                 5.6060
 Frc consts  --      0.1688                 0.2626                 0.3138
 IR Inten    --      3.0220                 3.1073                 0.8365

                     10                     11                     12
                      A                      A                      A
 Frequencies --    335.3994               366.3332               430.1002
 Red. masses --      6.4498                 4.3007                 2.2562
 Frc consts  --      0.4275                 0.3401                 0.2459
 IR Inten    --      0.5146                 9.3158                 3.1471

                     13                     14                     15
                      A                      A                      A
 Frequencies --    445.3117               465.4079               502.1705
 Red. masses --      4.3830                 4.9119                 3.0602
 Frc consts  --      0.5121                 0.6269                 0.4547
 IR Inten    --      3.8189                 4.9418                28.7903

                     16                     17                     18
                      A                      A                      A
 Frequencies --    552.1139               564.3183               567.8197
 Red. masses --      3.0750                 4.1924                 3.6120
 Frc consts  --      0.5523                 0.7866                 0.6861
 IR Inten    --     11.2797                 3.9317                 4.4631

                     19                     20                     21
                      A                      A                      A
 Frequencies --    587.3347               629.3792               648.7184
 Red. masses --      2.8381                 2.7676                 5.8697
 Frc consts  --      0.5768                 0.6459                 1.4554
 IR Inten    --     36.5726                53.8321                 6.3663

                     22                     23                     24
                      A                      A                      A
 Frequencies --    698.5480               730.2581               762.0211
 Red. masses --      6.1967                 4.6711                 1.2510
 Frc consts  --      1.7816                 1.4676                 0.4280
 IR Inten    --     12.7937                 1.7083                56.1486

                     25                     26                     27
                      A                      A                      A
 Frequencies --    783.0549               828.3172               841.1907
 Red. masses --      3.7915                 5.0915                 2.8923
 Frc consts  --      1.3698                 2.0582                 1.2058
 IR Inten    --      9.5771                 6.9722                17.9165

                     28                     29                     30
                      A                      A                      A
 Frequencies --    861.6440               916.6412               927.7134
 Red. masses --      1.4502                 4.8154                 1.3603
 Frc consts  --      0.6344                 2.3839                 0.6898
 IR Inten    --      0.1978                14.4056                 3.9002

                     31                     32                     33
                      A                      A                      A
 Frequencies --    959.4783               967.6000               987.6423
 Red. masses --      3.9821                 1.2342                 1.3586
 Frc consts  --      2.1599                 0.6808                 0.7808
 IR Inten    --     16.0500                 0.0228                20.5137

                     34                     35                     36
                      A                      A                      A
 Frequencies --   1037.2806              1055.4739              1059.4990
 Red. masses --      1.1287                 1.6241                 2.4491
 Frc consts  --      0.7155                 1.0660                 1.6198
 IR Inten    --      8.8216                 7.4876                 3.6713

                     37                     38                     39
                      A                      A                      A
 Frequencies --   1077.2354              1142.8424              1190.6869
 Red. masses --      4.0881                 1.5768                 1.0995
 Frc consts  --      2.7951                 1.2134                 0.9184
 IR Inten    --     52.6061                11.4437                 0.2385

                     40                     41                     42
                      A                      A                      A
 Frequencies --   1242.3881              1268.4167              1290.2153
 Red. masses --      2.8160                 1.8349                 1.5977
 Frc consts  --      2.5609                 1.7394                 1.5670
 IR Inten    --     20.7401                18.0137               134.1089

                     43                     44                     45
                      A                      A                      A
 Frequencies --   1302.9230              1311.1959              1325.8580
 Red. masses --      2.3817                 2.7543                 1.3489
 Frc consts  --      2.3822                 2.7899                 1.3971
 IR Inten    --     25.0467                25.8233                 5.3061

                     46                     47                     48
                      A                      A                      A
 Frequencies --   1347.5455              1363.1482              1374.8326
 Red. masses --      1.8437                 3.2777                 2.7971
 Frc consts  --      1.9725                 3.5885                 3.1150
 IR Inten    --     79.6191                51.5019               136.0312

                     49                     50                     51
                      A                      A                      A
 Frequencies --   1457.1755              1471.3012              1531.2166
 Red. masses --      2.0748                 1.2531                 2.7058
 Frc consts  --      2.5957                 1.5982                 3.7378
 IR Inten    --     68.8078                21.9528                24.3141

                     52                     53                     54
                      A                      A                      A
 Frequencies --   1553.1316              1659.2874              1669.7435
 Red. masses --      3.1008                 6.3948                 6.6498
 Frc consts  --      4.4069                10.3734                10.9235
 IR Inten    --    164.0564                 4.4587                11.8090

                     55                     56                     57
                      A                      A                      A
 Frequencies --   1705.2444              1788.3985              1815.2191
 Red. masses --      4.1623                11.2306                 9.9962
 Frc consts  --      7.1312                21.1632                19.4062
 IR Inten    --      3.2833               144.1136               524.0278

                     58                     59                     60
                      A                      A                      A
 Frequencies --   3047.8009              3182.2582              3187.8025
 Red. masses --      1.0836                 1.0610                 1.0882
 Frc consts  --      5.9307                 6.3302                 6.5156
 IR Inten    --     14.7198                 5.0156                 6.4860

                     61                     62                     63
                      A                      A                      A
 Frequencies --   3198.4654              3202.7836              3216.0750
 Red. masses --      1.0923                 1.0884                 1.0932
 Frc consts  --      6.5840                 6.5781                 6.6617
 IR Inten    --      6.9790                 6.3792                16.4611

                     64                     65                     66
                      A                      A                      A
 Frequencies --   3225.9805              3271.3084              3595.5184
 Red. masses --      1.0962                 1.1146                 1.0769
 Frc consts  --      6.7214                 7.0278                 8.2025
 IR Inten    --      8.0585                 8.4379                35.0255

 - Thermochemistry -
 -------------------
 Temperature   298.150 Kelvin.  Pressure   1.00000 Atm.
 Atom     1 has atomic number  6 and mass  12.00000

 Molecular mass:   203.05824 amu.
 Principal axes and moments of inertia in atomic units:
                           1         2         3
     Eigenvalues --  1408.675724307.748324858.97461
           X            0.99991  -0.00532   0.01196
           Y            0.00543   0.99994  -0.00905
           Z           -0.01191   0.00912   0.99989
 This molecule is an asymmetric top.
 Rotational symmetry number  1.
 Warning -- assumption of classical behavior for rotation
           may cause significant error
 Rotational temperatures (Kelvin)      0.06149     0.02011     0.01783
 Rotational constants (GHZ):           1.28116     0.41895     0.37142
 Zero-point vibrational energy     478255.7 (Joules/Mol)
                                  114.30585 (Kcal/Mol)
 Warning -- explicit consideration of  19 degrees of freedom as
           vibrations may cause significant error
 Vibrational temperatures:     56.65    78.75   131.01   173.03   191.35
          (Kelvin)            245.45   314.15   425.51   443.47   482.56
                              527.07   618.82   640.70   669.62   722.51
                              794.37   811.93   816.97   845.04   905.54
                              933.36  1005.05  1050.68  1096.38  1126.64
                             1191.76  1210.29  1239.71  1318.84  1334.77
                             1380.48  1392.16  1421.00  1492.42  1518.59
                             1524.38  1549.90  1644.30  1713.13  1787.52
                             1824.97  1856.33  1874.62  1886.52  1907.61
                             1938.82  1961.27  1978.08  2096.55  2116.87
                             2203.08  2234.61  2387.34  2402.39  2453.47
                             2573.11  2611.70  4385.11  4578.56  4586.54
                             4601.88  4608.09  4627.21  4641.47  4706.68
                             5173.15

 Zero-point correction=                           0.182158 (Hartree/Particle)
 Thermal correction to Energy=                    0.194602
 Thermal correction to Enthalpy=                  0.195546
 Thermal correction to Gibbs Free Energy=         0.142612
 Sum of electronic and zero-point Energies=           -704.852444
 Sum of electronic and thermal Energies=              -704.839999
 Sum of electronic and thermal Enthalpies=            -704.839055
 Sum of electronic and thermal Free Energies=         -704.891990

                     E (Thermal)             CV                S
                      KCal/Mol        Cal/Mol-Kelvin    Cal/Mol-Kelvin
 Total                  122.115             47.953            111.410
 Electronic               0.000              0.000              0.000
 Translational            0.889              2.981             41.829
 Rotational               0.889              2.981             31.756
 Vibrational            120.337             41.992             37.825
 Vibration     1          0.594              1.981              5.290
 Vibration     2          0.596              1.976              4.639
 Vibration     3          0.602              1.956              3.637
 Vibration     4          0.609              1.932              3.096
 Vibration     5          0.613              1.920              2.902
 Vibration     6          0.626              1.879              2.429
 Vibration     7          0.646              1.813              1.973
 Vibration     8          0.690              1.682              1.441
 Vibration     9          0.698              1.658              1.372
 Vibration    10          0.717              1.605              1.234
 Vibration    11          0.739              1.542              1.095
 Vibration    12          0.791              1.405              0.858
 Vibration    13          0.805              1.371              0.810
 Vibration    14          0.823              1.327              0.751
 Vibration    15          0.858              1.245              0.653
 Vibration    16          0.907              1.135              0.540
 Vibration    17          0.920              1.108              0.515
 Vibration    18          0.924              1.101              0.508
 Vibration    19          0.944              1.059              0.472

 Optimization completed.
    -- Stationary point found.
 Normal termination of Gaussian 16 at Thu Dec 10 17:47:52 2020.

 ----------------------------------------------------------------------
 # B3LYP/6-311++G(d,p) empiricaldispersion=gd3bj scf=xqc pop=npa geom=c
 heck
 ----------------------------------------------------------------------

 ---------------------------------------
 CID_141357462_JID_5989_Energie_neutraal
 ---------------------------------------
 Structure from the checkpoint file:  "JID_5989.chk"
 Charge =  0 Multiplicity = 1

 SCF Done:  E(RB3LYP) =  -705.233380499     A.U. after   16 cycles
 Normal termination of Gaussian 16 at Thu Dec 10 17:50:48 2020.

 ----------------------------------------------------------------------
 # B3LYP/6-311++G(d,p) empiricaldispersion=gd3bj scf=xqc pop=npa geom=c
 heck
 ----------------------------------------------------------------------

 -------------------------------------
 CID_141357462_JID_5989_Energie_kation
 -------------------------------------
 Structure from the checkpoint file:  "JID_5989.chk"
 Charge =  1 Multiplicity = 2

 SCF Done:  E(UB3LYP) =  -704.925798242     A.U. after   27 cycles
 Normal termination of Gaussian 16 at Thu Dec 10 17:57:32 2020.
 Gaussian 16:  ES64L-G16RevA.03 25-Dec-2016

 ----------------------------------------------------------------------
 # B3LYP/6-311++G(d,p) empiricaldispersion=gd3bj scf=xqc pop=npa geom=c
 heck
 ----------------------------------------------------------------------

 ------------------------------------
 CID_141357462_JID_5989_Energie_anion
 ------------------------------------
 Structure from the checkpoint file:  "JID_5989.chk"
 Charge = -1 Multiplicity = 2

                         Standard orientation:
 ---------------------------------------------------------------------
 Center     Atomic      Atomic             Coordinates (Angstroms)
 Number     Number       Type             X           Y           Z
 ---------------------------------------------------------------------
      1          6           0        2.286549   -0.704311    1.978030
      2          6           0        2.991208   -0.814957    0.846798
      3          6           0        2.493031   -0.531613   -0.515675
      4          8           0        3.213637   -0.652895   -1.489331
      5          6           0        1.042301   -0.058489   -0.725473
      6          6           0        0.849673    1.360181   -0.176350
      7          8           0        1.755739    2.172164   -0.117850
      8          7           0       -0.440163    1.633550    0.199759
      9          6           0       -1.497204    0.716410    0.077699
     10          6           0       -2.836570    1.095993    0.159146
     11          6           0       -3.837714    0.127338    0.079752
     12          6           0       -3.502899   -1.216820   -0.089786
     13          6           0       -2.163371   -1.599081   -0.186959
     14          6           0       -1.167052   -0.634375   -0.101573
     15          8           0        0.153620   -1.013643   -0.131173
     16          1           0        1.241909   -0.414751    1.986996
     17          1           0        2.742650   -0.911761    2.941692
     18          1           0        4.034342   -1.120865    0.863297
     19          1           0        0.880512   -0.026572   -1.811433
     20          1           0       -0.628607    2.585744    0.489869
     21          1           0       -3.088445    2.144866    0.292076
     22          1           0       -4.878435    0.427524    0.148592
     23          1           0       -4.281618   -1.970024   -0.155020
     24          1           0       -1.872842   -2.635669   -0.321200
 ---------------------------------------------------------------------

 SCF Done:  E(UB3LYP) =  -705.246880265     A.U. after   33 cycles
 SCF Done:  E(UB3LYP) =  -705.246880265     a.u. after    1 cycles

 The electronic state is 2-A.
 Alpha  occ. eigenvalues --  -19.04538 -18.98698 -18.92985 -14.25325 -10.16899
 Alpha  occ. eigenvalues --  -10.13644 -10.12735 -10.11427 -10.08785 -10.08480
 Alpha  occ. eigenvalues --  -10.08428 -10.08320 -10.07671 -10.01641 -10.01124
 Alpha  occ. eigenvalues --   -0.97007  -0.93469  -0.87324  -0.84560  -0.76104
 Alpha  occ. eigenvalues --   -0.66865  -0.65888  -0.62936  -0.60518  -0.54677
 Alpha  occ. eigenvalues --   -0.53518  -0.48127  -0.46077  -0.45977  -0.42145
 Alpha  occ. eigenvalues --   -0.40322  -0.38502  -0.37297  -0.36238  -0.34758
 Alpha  occ. eigenvalues --   -0.32674  -0.32398  -0.30736  -0.30335  -0.29328
 Alpha  occ. eigenvalues --   -0.28723  -0.28026  -0.25532  -0.24449  -0.23789
 Alpha  occ. eigenvalues --   -0.22657  -0.21483  -0.20683  -0.15904  -0.14515
 Alpha  occ. eigenvalues --   -0.13193  -0.11805  -0.09480   0.04128
 Alpha virt. eigenvalues --    0.05865   0.07199   0.07398   0.08147   0.08721
 Alpha virt. eigenvalues --    0.10279   0.10595   0.11085   0.12083   0.12666
 Alpha virt. eigenvalues --    0.12911   0.13591   0.15005   0.15593   0.15994

  Beta  occ. eigenvalues --  -19.04495 -18.98676 -18.92390 -14.25311 -10.16860
  Beta  occ. eigenvalues --  -10.13621 -10.12712 -10.11434 -10.08771 -10.08468
  Beta  occ. eigenvalues --  -10.08414 -10.08323 -10.07362 -10.01628 -10.00751
  Beta  occ. eigenvalues --   -0.96922  -0.93412  -0.86290  -0.84501  -0.76064
  Beta  occ. eigenvalues --   -0.66727  -0.65837  -0.62467  -0.60310  -0.54577
  Beta  occ. eigenvalues --   -0.53462  -0.47487  -0.45998  -0.45473  -0.42058
  Beta  occ. eigenvalues --   -0.40137  -0.38418  -0.37200  -0.36028  -0.34711
  Beta  occ. eigenvalues --   -0.32510  -0.32335  -0.30601  -0.30010  -0.29196
  Beta  occ. eigenvalues --   -0.28611  -0.27955  -0.25289  -0.24052  -0.23118
  Beta  occ. eigenvalues --   -0.21525  -0.20746  -0.20253  -0.15830  -0.14473
  Beta  occ. eigenvalues --   -0.11969  -0.10856  -0.08975
  Beta virt. eigenvalues --    0.06232   0.07374   0.07670   0.08226   0.08899
  Beta virt. eigenvalues --    0.10244   0.10521   0.10932   0.11329   0.12091
  Beta virt. eigenvalues --    0.12719   0.13025   0.13521   0.14967   0.15520

 Mulliken charges and spin densities:
               1          2
     1  C   -0.551936   0.362858
     2  C    0.137700  -0.050653
     3  C   -0.340861   0.236226
     4  O   -0.364328   0.194096
     5  C    0.441103  -0.096767
     6  C   -0.074832   0.000432
     7  O   -0.295846   0.013616
     8  N   -0.206910   0.012473
     9  C    1.153870  -0.476612
    10  C   -0.606048  -0.053977
    11  C    0.030086  -0.302702
    12  C   -0.193488  -0.109470
    13  C   -0.547067   0.221673
    14  C   -0.088404   0.080423
    15  O    0.022818  -0.013378
    16  H    0.105358  -0.016288
    17  H    0.105712  -0.012533
    18  H    0.129267  -0.003222
    19  H    0.221518  -0.000872
    20  H    0.101492   0.228142
    21  H   -0.459816   0.613242
    22  H   -0.019820   0.165756
    23  H    0.136246  -0.001141
    24  H    0.164187   0.008680
 Sum of Mulliken charges =  -1.00000   1.00000

 Dipole moment (field-independent basis, Debye):
    X=             -7.6625    Y=             -1.4754    Z=              0.4002  Tot=              7.8135
 Quadrupole moment (field-independent basis, Debye-Ang):
   XX=           -138.9492   YY=           -108.8260   ZZ=           -105.5553
   XY=              5.6949   XZ=              8.0853   YZ=             -1.6827

 Summary of Natural Population Analysis:

                                       Natural Population
                Natural  -----------------------------------------------
    Atom  No    Charge         Core      Valence    Rydberg      Total
 -----------------------------------------------------------------------
      C    1   -0.09626      0.99960     2.09005    0.00661     3.09626
      C    2   -0.14268      0.99954     2.13297    0.01017     3.14268
      C    3    0.28908      0.99963     1.68847    0.02282     2.71092
      O    4   -0.23218      0.99988     3.22565    0.00665     4.23218
      C    5   -0.00721      0.99947     1.99330    0.01444     3.00721
      C    6    0.34314      0.99966     1.63300    0.02420     2.65686
      O    7   -0.29771      0.99987     3.29218    0.00566     4.29771
      N    8   -0.30640      0.99963     2.79712    0.00964     3.80640
      C    9    0.05819      0.99943     1.93145    0.01093     2.94181
      C   10   -0.11339      0.99954     2.10421    0.00964     3.11339
      C   11   -0.11235      0.99958     2.10196    0.01081     3.11235
      C   12   -0.10896      0.99958     2.10041    0.00897     3.10896
      C   13   -0.11775      0.99953     2.10977    0.00845     3.11775
      C   14    0.15045      0.99934     1.83551    0.01471     2.84955
      O   15   -0.26834      0.99986     3.25917    0.00931     4.26834
      H   16    0.08315      0.00000     0.41515    0.00171     0.41685
      H   17    0.07923      0.00000     0.41962    0.00114     0.42077
      H   18    0.09192      0.00000     0.40629    0.00179     0.40808
      H   19    0.10185      0.00000     0.39631    0.00184     0.39815
      H   20    0.19871      0.00000     0.29695    0.00434     0.30129
      H   21    0.10323      0.00000     0.39530    0.00147     0.39677
      H   22    0.09939      0.00000     0.39984    0.00076     0.40061
      H   23    0.09778      0.00000     0.40149    0.00073     0.40222
      H   24    0.10710      0.00000     0.39205    0.00085     0.39290
 =======================================================================
   * Total *    0.00000     14.99414    37.81821    0.18765    53.00000

 Normal termination of Gaussian 16 at Thu Dec 10 18:05:22 2020.
