 Gaussian 16, Revision A.03,

 -----------------------------------------------------------
 # opt freq B3LYP/6-31G(d) empiricaldispersion=gd3bj scf=xqc
 -----------------------------------------------------------

 -------------------------------
 CID_147553732_JID_6772_neutraal
 -------------------------------
 Symbolic Z-matrix:
 Charge =  0 Multiplicity = 1

 SCF Done:  E(RB3LYP) =  -659.844505231     A.U. after   13 cycles
 SCF Done:  E(RB3LYP) =  -659.848421714     A.U. after   12 cycles
 SCF Done:  E(RB3LYP) =  -659.845925626     A.U. after   12 cycles
 SCF Done:  E(RB3LYP) =  -659.848997206     A.U. after   11 cycles
 SCF Done:  E(RB3LYP) =  -659.852545545     A.U. after   11 cycles
 SCF Done:  E(RB3LYP) =  -659.852029525     A.U. after   11 cycles
 SCF Done:  E(RB3LYP) =  -659.854152399     A.U. after   11 cycles
 SCF Done:  E(RB3LYP) =  -659.854134979     A.U. after   11 cycles
 SCF Done:  E(RB3LYP) =  -659.854314186     A.U. after   10 cycles
 SCF Done:  E(RB3LYP) =  -659.854347221     A.U. after   10 cycles
 SCF Done:  E(RB3LYP) =  -659.854383771     A.U. after    9 cycles
 SCF Done:  E(RB3LYP) =  -659.854384133     A.U. after    8 cycles
 SCF Done:  E(RB3LYP) =  -659.854384190     A.U. after    8 cycles
 SCF Done:  E(RB3LYP) =  -659.854384207     A.U. after    7 cycles
 SCF Done:  E(RB3LYP) =  -659.854384287     A.U. after    6 cycles
 Optimization completed.
    -- Stationary point found.
 Normal termination of Gaussian 16 at Fri Dec 11 00:39:43 2020.

 --------------------------------------------------------------------
 #N Geom=AllCheck Guess=TCheck SCRF=Check GenChk RB3LYP/6-31G(d) Freq
 --------------------------------------------------------------------

 Structure from the checkpoint file:  "JID_6772.chk"
 -------------------------------
 CID_147553732_JID_6772_neutraal
 -------------------------------
 Charge =  0 Multiplicity = 1

 SCF Done:  E(RB3LYP) =  -659.854384287     A.U. after    1 cycles

  Exact polarizability: 158.209  -1.959 161.882   3.716  -3.021 151.954
 Approx polarizability: 207.684  -6.036 215.023   6.674  -4.995 235.635

                      1                      2                      3
                      A                      A                      A
 Frequencies --     27.9613                48.8417                54.0874
 Red. masses --      3.4684                 2.9638                 3.2589
 Frc consts  --      0.0016                 0.0042                 0.0056
 IR Inten    --      0.0505                 0.1351                 0.5099

                      4                      5                      6
                      A                      A                      A
 Frequencies --     63.1753                81.4605               108.6733
 Red. masses --      2.7021                 2.3892                 2.3045
 Frc consts  --      0.0064                 0.0093                 0.0160
 IR Inten    --      0.0695                 0.2735                 2.2258

                      7                      8                      9
                      A                      A                      A
 Frequencies --    119.7970               128.3977               134.5791
 Red. masses --      2.6726                 2.2201                 2.5261
 Frc consts  --      0.0226                 0.0216                 0.0270
 IR Inten    --      1.2030                 0.2437                 1.7853

                     10                     11                     12
                      A                      A                      A
 Frequencies --    171.5834               190.5476               196.0996
 Red. masses --      2.4107                 1.8451                 3.2035
 Frc consts  --      0.0418                 0.0395                 0.0726
 IR Inten    --      0.7054                 0.3239                 1.8333

                     13                     14                     15
                      A                      A                      A
 Frequencies --    215.4665               237.4998               251.7325
 Red. masses --      1.3605                 1.8258                 2.0570
 Frc consts  --      0.0372                 0.0607                 0.0768
 IR Inten    --      0.4575                 0.1446                 0.3293

                     16                     17                     18
                      A                      A                      A
 Frequencies --    268.2599               295.0314               300.0609
 Red. masses --      2.5614                 2.5980                 2.2382
 Frc consts  --      0.1086                 0.1332                 0.1187
 IR Inten    --      0.9789                 0.1820                 2.4128

                     19                     20                     21
                      A                      A                      A
 Frequencies --    333.3294               341.9561               382.5587
 Red. masses --      2.3169                 2.6515                 1.4919
 Frc consts  --      0.1517                 0.1827                 0.1286
 IR Inten    --      0.1424                 2.9553                42.5694

                     22                     23                     24
                      A                      A                      A
 Frequencies --    390.4555               417.2739               431.6285
 Red. masses --      2.4875                 2.3770                 1.8252
 Frc consts  --      0.2234                 0.2438                 0.2003
 IR Inten    --      6.9558                 0.1462                45.8778

                     25                     26                     27
                      A                      A                      A
 Frequencies --    510.5820               524.4970               582.0836
 Red. masses --      2.5287                 2.1913                 2.3527
 Frc consts  --      0.3884                 0.3552                 0.4697
 IR Inten    --      0.6127                 4.8465                 2.3214

                     28                     29                     30
                      A                      A                      A
 Frequencies --    636.0501               669.0976               703.9458
 Red. masses --      2.1970                 1.9970                 2.2362
 Frc consts  --      0.5237                 0.5267                 0.6529
 IR Inten    --      2.3256                 7.8761                 3.7488

                     31                     32                     33
                      A                      A                      A
 Frequencies --    750.9615               775.1288               777.2197
 Red. masses --      1.7384                 1.6852                 1.3384
 Frc consts  --      0.5776                 0.5965                 0.4763
 IR Inten    --     48.1583                36.0324                 5.7316

                     34                     35                     36
                      A                      A                      A
 Frequencies --    816.0556               826.4948               882.0594
 Red. masses --      1.3248                 1.7697                 2.6957
 Frc consts  --      0.5198                 0.7123                 1.2357
 IR Inten    --      3.1281                 1.1337                 5.7070

                     37                     38                     39
                      A                      A                      A
 Frequencies --    909.4893               913.8784               923.4838
 Red. masses --      1.7035                 1.9230                 1.8876
 Frc consts  --      0.8302                 0.9462                 0.9484
 IR Inten    --      1.7863                17.3851                62.0027

                     40                     41                     42
                      A                      A                      A
 Frequencies --    934.4798               935.0620               947.2936
 Red. masses --      1.9029                 1.6799                 1.6363
 Frc consts  --      0.9790                 0.8654                 0.8651
 IR Inten    --     23.2542                17.7779                65.5541

                     43                     44                     45
                      A                      A                      A
 Frequencies --    967.7427               974.7560               979.3039
 Red. masses --      1.4841                 2.1286                 1.9359
 Frc consts  --      0.8189                 1.1916                 1.0939
 IR Inten    --      7.3115                19.5823                 2.0673

                     46                     47                     48
                      A                      A                      A
 Frequencies --    984.3539              1015.8024              1030.7508
 Red. masses --      1.5838                 1.9556                 1.9373
 Frc consts  --      0.9042                 1.1889                 1.2127
 IR Inten    --      2.3578                 4.9790                 2.8407

                     49                     50                     51
                      A                      A                      A
 Frequencies --   1050.6019              1056.9038              1061.4075
 Red. masses --      1.1869                 2.0463                 2.1912
 Frc consts  --      0.7719                 1.3467                 1.4544
 IR Inten    --     12.7780                 8.5887                 2.3016

                     52                     53                     54
                      A                      A                      A
 Frequencies --   1073.3050              1082.5754              1112.4190
 Red. masses --      1.6043                 2.1691                 1.8128
 Frc consts  --      1.0889                 1.4978                 1.3217
 IR Inten    --      0.5346                 1.7267                 3.4382

                     55                     56                     57
                      A                      A                      A
 Frequencies --   1128.1083              1142.5213              1158.1480
 Red. masses --      2.2043                 2.0184                 2.7164
 Frc consts  --      1.6528                 1.5523                 2.1467
 IR Inten    --      0.0456                21.0824                29.1251

                     58                     59                     60
                      A                      A                      A
 Frequencies --   1170.4785              1173.0002              1178.6295
 Red. masses --      1.8107                 1.6057                 2.1693
 Frc consts  --      1.4616                 1.3017                 1.7755
 IR Inten    --      1.8577                 9.3384                 2.2514

                     61                     62                     63
                      A                      A                      A
 Frequencies --   1198.3903              1207.6325              1236.2194
 Red. masses --      1.3826                 1.6531                 1.2795
 Frc consts  --      1.1699                 1.4205                 1.1521
 IR Inten    --      1.0870                 0.7077                 7.5851

                     64                     65                     66
                      A                      A                      A
 Frequencies --   1254.5337              1262.8691              1267.7138
 Red. masses --      1.3444                 1.2304                 1.3229
 Frc consts  --      1.2466                 1.1561                 1.2526
 IR Inten    --      0.2644                 1.5840                 0.1600

                     67                     68                     69
                      A                      A                      A
 Frequencies --   1271.6422              1279.6564              1293.8098
 Red. masses --      1.3001                 1.3477                 1.4734
 Frc consts  --      1.2387                 1.3003                 1.4531
 IR Inten    --      0.0166                 2.4455                 1.5361

                     70                     71                     72
                      A                      A                      A
 Frequencies --   1295.8652              1311.2973              1321.1891
 Red. masses --      1.3707                 1.2450                 1.4287
 Frc consts  --      1.3562                 1.2613                 1.4693
 IR Inten    --      0.3610                 3.9077                 5.2634

                     73                     74                     75
                      A                      A                      A
 Frequencies --   1336.3801              1355.2329              1372.4680
 Red. masses --      1.2821                 1.1863                 1.3554
 Frc consts  --      1.3491                 1.2837                 1.5043
 IR Inten    --      2.1704                 0.9372                 0.8449

                     76                     77                     78
                      A                      A                      A
 Frequencies --   1377.2135              1386.8465              1393.6618
 Red. masses --      1.2714                 1.3358                 1.3498
 Frc consts  --      1.4208                 1.5138                 1.5447
 IR Inten    --      7.9410                 0.9670                 8.9248

                     79                     80                     81
                      A                      A                      A
 Frequencies --   1405.2300              1418.4645              1438.0389
 Red. masses --      1.4116                 1.3730                 1.3249
 Frc consts  --      1.6423                 1.6277                 1.6143
 IR Inten    --      3.2608                 2.0336                10.5740

                     82                     83                     84
                      A                      A                      A
 Frequencies --   1444.9286              1457.6439              1466.3327
 Red. masses --      1.2615                 1.3471                 1.1949
 Frc consts  --      1.5518                 1.6863                 1.5137
 IR Inten    --      3.8910                 7.4814                 5.3612

                     85                     86                     87
                      A                      A                      A
 Frequencies --   1477.8991              1504.8154              1510.2654
 Red. masses --      1.1731                 1.1622                 1.1294
 Frc consts  --      1.5097                 1.5506                 1.5178
 IR Inten    --      1.6414                 9.5554                 5.6392

                     88                     89                     90
                      A                      A                      A
 Frequencies --   1516.5882              1517.3564              1518.6361
 Red. masses --      1.0714                 1.0651                 1.0749
 Frc consts  --      1.4520                 1.4448                 1.4606
 IR Inten    --      0.2979                 4.6676                 0.4532

                     91                     92                     93
                      A                      A                      A
 Frequencies --   1520.6711              1532.1864              1536.6145
 Red. masses --      1.0589                 1.0601                 1.0692
 Frc consts  --      1.4427                 1.4664                 1.4874
 IR Inten    --      1.2496                 5.9593                 5.1320

                     94                     95                     96
                      A                      A                      A
 Frequencies --   1543.1858              1552.0021              1552.8342
 Red. masses --      1.1406                 1.0770                 1.0501
 Frc consts  --      1.6004                 1.5284                 1.4918
 IR Inten    --      1.8966                 5.6070                 4.3738

                     97                     98                     99
                      A                      A                      A
 Frequencies --   1696.1543              1724.3729              2923.0287
 Red. masses --      1.0818                 4.2058                 1.0752
 Frc consts  --      1.8336                 7.3682                 5.4128
 IR Inten    --     20.5404                 4.3665                94.2554

                    100                    101                    102
                      A                      A                      A
 Frequencies --   3015.2687              3015.5331              3026.5761
 Red. masses --      1.0437                 1.0824                 1.0711
 Frc consts  --      5.5909                 5.7994                 5.7805
 IR Inten    --     78.4606                19.3696                 9.1627

                    103                    104                    105
                      A                      A                      A
 Frequencies --   3032.6619              3038.8394              3044.5571
 Red. masses --      1.0784                 1.0806                 1.0644
 Frc consts  --      5.8438                 5.8794                 5.8131
 IR Inten    --      0.6716                32.4480                49.0577

                    106                    107                    108
                      A                      A                      A
 Frequencies --   3046.6693              3049.9023              3058.0792
 Red. masses --      1.0525                 1.0673                 1.0577
 Frc consts  --      5.7558                 5.8493                 5.8277
 IR Inten    --     17.5204                80.8602                58.2768

                    109                    110                    111
                      A                      A                      A
 Frequencies --   3062.6698              3068.1954              3069.8393
 Red. masses --      1.0788                 1.0630                 1.1002
 Frc consts  --      5.9618                 5.8960                 6.1088
 IR Inten    --     14.8572                49.3459                17.2721

                    112                    113                    114
                      A                      A                      A
 Frequencies --   3076.0697              3080.0361              3094.6417
 Red. masses --      1.0646                 1.0928                 1.0938
 Frc consts  --      5.9349                 6.1082                 6.1716
 IR Inten    --     28.9158                31.9274                35.2605

                    115                    116                    117
                      A                      A                      A
 Frequencies --   3102.1096              3112.6013              3116.5975
 Red. masses --      1.1070                 1.1016                 1.1025
 Frc consts  --      6.2766                 6.2879                 6.3096
 IR Inten    --     27.7327                57.6642                52.8402

                    118                    119                    120
                      A                      A                      A
 Frequencies --   3119.0401              3120.7653              3138.4104
 Red. masses --      1.1049                 1.1018                 1.1055
 Frc consts  --      6.3332                 6.3221                 6.4155
 IR Inten    --     52.1619                27.5414                59.0951

                    121                    122                    123
                      A                      A                      A
 Frequencies --   3151.5807              3161.0700              3234.9293
 Red. masses --      1.0633                 1.0881                 1.1139
 Frc consts  --      6.2224                 6.4060                 6.8682
 IR Inten    --     21.5835                 8.1659                19.0992

                    124                    125                    126
                      A                      A                      A
 Frequencies --   3423.9009              3527.7224              3535.6066
 Red. masses --      1.0527                 1.0737                 1.0903
 Frc consts  --      7.2709                 7.8729                 8.0300
 IR Inten    --    124.3268                 0.0768                25.5669

 - Thermochemistry -
 -------------------
 Temperature   298.150 Kelvin.  Pressure   1.00000 Atm.
 Atom     1 has atomic number  6 and mass  12.00000

 Molecular mass:   224.22525 amu.
 Principal axes and moments of inertia in atomic units:
                           1         2         3
     Eigenvalues --  3595.603193875.888485294.61710
           X            0.99135   0.13123  -0.00140
           Y           -0.13123   0.99135   0.00155
           Z            0.00159  -0.00136   1.00000
 This molecule is an asymmetric top.
 Rotational symmetry number  1.
 Warning -- assumption of classical behavior for rotation
           may cause significant error
 Rotational temperatures (Kelvin)      0.02409     0.02235     0.01636
 Rotational constants (GHZ):           0.50193     0.46563     0.34086
 Zero-point vibrational energy    1075160.9 (Joules/Mol)
                                  256.96963 (Kcal/Mol)
 Warning -- explicit consideration of  27 degrees of freedom as
           vibrations may cause significant error
 Vibrational temperatures:     40.23    70.27    77.82    90.90   117.20
          (Kelvin)            156.36   172.36   184.74   193.63   246.87
                              274.16   282.14   310.01   341.71   362.19
                              385.97   424.48   431.72   479.59   492.00
                              550.42   561.78   600.36   621.02   734.61
                              754.63   837.49   915.13   962.68  1012.82
                             1080.47  1115.24  1118.25  1174.12  1189.14
                             1269.09  1308.55  1314.87  1328.69  1344.51
                             1345.35  1362.94  1392.37  1402.46  1409.00
                             1416.27  1461.51  1483.02  1511.58  1520.65
                             1527.13  1544.25  1557.58  1600.52  1623.10
                             1643.83  1666.32  1684.06  1687.69  1695.78
                             1724.22  1737.51  1778.64  1804.99  1816.99
                             1823.96  1829.61  1841.14  1861.50  1864.46
                             1886.66  1900.90  1922.75  1949.88  1974.68
                             1981.50  1995.36  2005.17  2021.81  2040.85
                             2069.02  2078.93  2097.22  2109.73  2126.37
                             2165.09  2172.94  2182.03  2183.14  2184.98
                             2187.91  2204.47  2210.85  2220.30  2232.98
                             2234.18  2440.39  2480.99  4205.59  4338.30
                             4338.68  4354.57  4363.32  4372.21  4380.44
                             4383.48  4388.13  4399.89  4406.50  4414.45
                             4416.81  4425.78  4431.48  4452.50  4463.24
                             4478.34  4484.09  4487.60  4490.09  4515.47
                             4534.42  4548.07  4654.34  4926.23  5075.61
                             5086.95

 Zero-point correction=                           0.409507 (Hartree/Particle)
 Thermal correction to Energy=                    0.428330
 Thermal correction to Enthalpy=                  0.429274
 Thermal correction to Gibbs Free Energy=         0.362490
 Sum of electronic and zero-point Energies=           -659.444877
 Sum of electronic and thermal Energies=              -659.426054
 Sum of electronic and thermal Enthalpies=            -659.425110
 Sum of electronic and thermal Free Energies=         -659.491894

                     E (Thermal)             CV                S
                      KCal/Mol        Cal/Mol-Kelvin    Cal/Mol-Kelvin
 Total                  268.781             71.138            140.559
 Electronic               0.000              0.000              0.000
 Translational            0.889              2.981             42.125
 Rotational               0.889              2.981             32.667
 Vibrational            267.004             65.177             65.767
 Vibration     1          0.593              1.984              5.969
 Vibration     2          0.595              1.978              4.864
 Vibration     3          0.596              1.976              4.662
 Vibration     4          0.597              1.972              4.355
 Vibration     5          0.600              1.962              3.855
 Vibration     6          0.606              1.942              3.292
 Vibration     7          0.609              1.933              3.104
 Vibration     8          0.611              1.925              2.970
 Vibration     9          0.613              1.919              2.880
 Vibration    10          0.626              1.877              2.418
 Vibration    11          0.634              1.853              2.222
 Vibration    12          0.636              1.845              2.169
 Vibration    13          0.645              1.817              1.997
 Vibration    14          0.656              1.783              1.822
 Vibration    15          0.664              1.760              1.718
 Vibration    16          0.673              1.731              1.607
 Vibration    17          0.689              1.683              1.445
 Vibration    18          0.693              1.674              1.417
 Vibration    19          0.715              1.609              1.244
 Vibration    20          0.721              1.592              1.203
 Vibration    21          0.752              1.507              1.029
 Vibration    22          0.758              1.491              0.998
 Vibration    23          0.780              1.433              0.901
 Vibration    24          0.793              1.401              0.853
 Vibration    25          0.866              1.227              0.632
 Vibration    26          0.879              1.196              0.600
 Vibration    27          0.939              1.070              0.482

                           ! Non-Optimized Parameters !
 Normal termination of Gaussian 16 at Fri Dec 11 00:59:21 2020.

 ----------------------------------------------------------------------
 # B3LYP/6-311++G(d,p) empiricaldispersion=gd3bj scf=xqc pop=npa geom=c
 heck
 ----------------------------------------------------------------------

 ---------------------------------------
 CID_147553732_JID_6772_Energie_neutraal
 ---------------------------------------
 Structure from the checkpoint file:  "JID_6772.chk"
 Charge =  0 Multiplicity = 1

 SCF Done:  E(RB3LYP) =  -660.046600900     A.U. after   14 cycles
 Normal termination of Gaussian 16 at Fri Dec 11 01:09:06 2020.

 ----------------------------------------------------------------------
 # B3LYP/6-311++G(d,p) empiricaldispersion=gd3bj scf=xqc pop=npa geom=c
 heck
 ----------------------------------------------------------------------

 -------------------------------------
 CID_147553732_JID_6772_Energie_kation
 -------------------------------------
 Structure from the checkpoint file:  "JID_6772.chk"
 Charge =  1 Multiplicity = 2

 SCF Done:  E(UB3LYP) =  -659.757183965     A.U. after   23 cycles
 Normal termination of Gaussian 16 at Fri Dec 11 01:29:06 2020.
 Gaussian 16:  ES64L-G16RevA.03 25-Dec-2016

 ----------------------------------------------------------------------
 # B3LYP/6-311++G(d,p) empiricaldispersion=gd3bj scf=xqc pop=npa geom=c
 heck
 ----------------------------------------------------------------------

 ------------------------------------
 CID_147553732_JID_6772_Energie_anion
 ------------------------------------
 Structure from the checkpoint file:  "JID_6772.chk"
 Charge = -1 Multiplicity = 2

                         Standard orientation:
 ---------------------------------------------------------------------
 Center     Atomic      Atomic             Coordinates (Angstroms)
 Number     Number       Type             X           Y           Z
 ---------------------------------------------------------------------
      1          6           0        1.109050    3.455445   -0.389211
      2          6           0        1.082073    2.791507    0.991210
      3          6           0       -0.160749    1.917186    1.221304
      4          6           0       -0.182902    0.599962    0.406709
      5          6           0        0.853103   -0.397012    1.030233
      6          6           0        0.288662   -1.419246    2.042792
      7          7           0       -0.085704   -2.688041    1.417282
      8          6           0        1.817235   -1.061854    0.034432
      9          6           0        1.411719   -1.628761   -1.351185
     10          6           0        2.806179   -1.202220   -1.877540
     11          6           0        2.881229   -0.198826   -0.697574
     12          6           0       -1.649197    0.091693    0.255706
     13          6           0       -2.541706    1.196419   -0.305809
     14          6           0       -2.720916    1.447640   -1.602405
     15          7           0       -1.706160   -1.152903   -0.517272
     16          6           0       -3.031398   -1.762336   -0.591853
     17          1           0        1.135867    2.716344   -1.197407
     18          1           0        1.989716    4.097475   -0.501591
     19          1           0        0.217289    4.074993   -0.543323
     20          1           0        1.997351    2.202596    1.131891
     21          1           0        1.105128    3.572977    1.761788
     22          1           0       -0.243087    1.663080    2.287641
     23          1           0       -1.035498    2.531214    0.984303
     24          1           0        0.143721    0.840323   -0.613580
     25          1           0        1.508865    0.239773    1.639209
     26          1           0        1.083052   -1.633061    2.770663
     27          1           0       -0.522195   -0.935113    2.620987
     28          1           0       -0.554109   -3.284297    2.096869
     29          1           0       -0.740455   -2.482666    0.660458
     30          1           0        2.337638   -1.863590    0.570582
     31          1           0        1.115247   -2.679399   -1.397124
     32          1           0        0.638511   -1.018588   -1.828660
     33          1           0        2.869884   -0.802610   -2.894766
     34          1           0        3.542871   -2.005133   -1.768729
     35          1           0        2.480046    0.778786   -0.989289
     36          1           0        3.845101   -0.044178   -0.200158
     37          1           0       -2.028432   -0.158493    1.255433
     38          1           0       -3.057967    1.821609    0.421223
     39          1           0       -3.355727    2.259196   -1.945509
     40          1           0       -2.244406    0.851452   -2.378473
     41          1           0       -1.336960   -1.000437   -1.451467
     42          1           0       -3.809924   -1.106687   -1.009371
     43          1           0       -2.971513   -2.669980   -1.200715
     44          1           0       -3.341259   -2.056551    0.418195
 ---------------------------------------------------------------------

 SCF Done:  E(UB3LYP) =  -660.031927960     A.U. after   33 cycles
 SCF Done:  E(UB3LYP) =  -660.031927960     a.u. after    1 cycles

 The electronic state is 2-A.
 Alpha  occ. eigenvalues --  -14.20761 -14.17566 -10.10942 -10.08986 -10.08926
 Alpha  occ. eigenvalues --  -10.08048 -10.07759 -10.07410 -10.07343 -10.07268
 Alpha  occ. eigenvalues --  -10.07248 -10.07055 -10.06871 -10.06818 -10.06686
 Alpha  occ. eigenvalues --  -10.06375  -0.82040  -0.77553  -0.75073  -0.71883
 Alpha  occ. eigenvalues --   -0.68027  -0.66248  -0.61988  -0.59272  -0.56235
 Alpha  occ. eigenvalues --   -0.55421  -0.55039  -0.53168  -0.49051  -0.47252
 Alpha  occ. eigenvalues --   -0.45707  -0.43983  -0.40122  -0.39730  -0.38738
 Alpha  occ. eigenvalues --   -0.38152  -0.37066  -0.36119  -0.34840  -0.34126
 Alpha  occ. eigenvalues --   -0.33503  -0.32638  -0.31588  -0.30914  -0.30274
 Alpha  occ. eigenvalues --   -0.29569  -0.29003  -0.28659  -0.27465  -0.27272
 Alpha  occ. eigenvalues --   -0.26614  -0.25493  -0.25093  -0.23732  -0.23218
 Alpha  occ. eigenvalues --   -0.22547  -0.22322  -0.20649  -0.20173  -0.19767
 Alpha  occ. eigenvalues --   -0.16820  -0.14637  -0.12713   0.04239
 Alpha virt. eigenvalues --    0.06210   0.06315   0.06635   0.07833   0.08100
 Alpha virt. eigenvalues --    0.08335   0.08454   0.08865   0.09064   0.10360
 Alpha virt. eigenvalues --    0.10442   0.10731   0.10817   0.10968   0.11958

  Beta  occ. eigenvalues --  -14.20753 -14.17552 -10.10935 -10.08954 -10.08913
  Beta  occ. eigenvalues --  -10.08044 -10.07750 -10.07409 -10.07335 -10.07266
  Beta  occ. eigenvalues --  -10.07237 -10.07049 -10.06840 -10.06809 -10.06679
  Beta  occ. eigenvalues --  -10.06354  -0.82022  -0.77532  -0.75061  -0.71866
  Beta  occ. eigenvalues --   -0.67999  -0.66226  -0.61961  -0.59230  -0.56215
  Beta  occ. eigenvalues --   -0.55383  -0.54994  -0.53131  -0.49015  -0.47218
  Beta  occ. eigenvalues --   -0.45658  -0.43960  -0.40096  -0.39704  -0.38721
  Beta  occ. eigenvalues --   -0.38127  -0.37029  -0.36090  -0.34812  -0.34087
  Beta  occ. eigenvalues --   -0.33472  -0.32616  -0.31558  -0.30883  -0.30251
  Beta  occ. eigenvalues --   -0.29546  -0.28981  -0.28637  -0.27442  -0.27248
  Beta  occ. eigenvalues --   -0.26587  -0.25468  -0.25070  -0.23716  -0.23204
  Beta  occ. eigenvalues --   -0.22523  -0.22300  -0.20638  -0.20161  -0.19754
  Beta  occ. eigenvalues --   -0.16798  -0.14620  -0.12697
  Beta virt. eigenvalues --    0.06156   0.06813   0.06927   0.07124   0.08318
  Beta virt. eigenvalues --    0.08341   0.08711   0.08735   0.09070   0.09281
  Beta virt. eigenvalues --    0.10583   0.10760   0.11022   0.11156   0.11352

 Mulliken charges and spin densities:
               1          2
     1  C    0.220958  -0.785476
     2  C   -0.586773   0.265818
     3  C   -0.605885  -0.028702
     4  C    0.651383  -0.016834
     5  C    0.606821   0.405794
     6  C    0.229012  -0.781019
     7  N   -0.560275   0.113476
     8  C   -0.220572  -0.193141
     9  C   -0.558055   0.333674
    10  C    0.051268  -0.547234
    11  C   -0.744946   0.387047
    12  C   -0.121662  -0.612108
    13  C   -0.700872   0.508737
    14  C    1.049205  -1.601405
    15  N   -0.228714   0.093306
    16  C    0.497652  -0.901379
    17  H   -0.552458   0.696192
    18  H   -0.154877   0.298590
    19  H    0.046225   0.091132
    20  H    0.106924  -0.008645
    21  H   -0.376199   0.554144
    22  H    0.062656   0.100291
    23  H    0.308198  -0.161817
    24  H    1.148351  -1.088432
    25  H    0.210903  -0.030678
    26  H   -0.009155   0.177380
    27  H   -0.229395   0.346873
    28  H    0.067947   0.168409
    29  H    0.495581  -0.180135
    30  H    0.279786  -0.063710
    31  H    0.001386   0.183713
    32  H   -0.196579   0.222408
    33  H   -0.151860   0.315712
    34  H    0.141597  -0.029642
    35  H    0.460657  -0.378150
    36  H   -0.124654   0.275977
    37  H    0.290273  -0.117247
    38  H   -0.737365   0.948290
    39  H   -0.471443   0.627899
    40  H   -0.366207   0.490195
    41  H    0.381902  -0.138288
    42  H   -0.002184   0.152920
    43  H   -0.263559   0.399129
    44  H   -0.344993   0.506937
 Sum of Mulliken charges =  -1.00000   1.00000

 Dipole moment (field-independent basis, Debye):
    X=              4.4251    Y=             -1.9547    Z=              1.2036  Tot=              4.9851
 Quadrupole moment (field-independent basis, Debye-Ang):
   XX=           -167.1757   YY=           -170.6248   ZZ=           -149.9832
   XY=              0.3853   XZ=             -1.1716   YZ=              4.0762

 Summary of Natural Population Analysis:

                                       Natural Population
                Natural  -----------------------------------------------
    Atom  No    Charge         Core      Valence    Rydberg      Total
 -----------------------------------------------------------------------
      C    1   -0.28553      0.99966     2.28068    0.00519     3.28553
      C    2   -0.19017      0.99963     2.18305    0.00749     3.19017
      C    3   -0.18877      0.99960     2.18013    0.00904     3.18877
      C    4   -0.10873      0.99956     2.09638    0.01279     3.10873
      C    5   -0.11106      0.99954     2.09975    0.01177     3.11106
      C    6   -0.08351      0.99961     2.07259    0.01131     3.08351
      N    7   -0.43731      0.99976     2.92719    0.01035     3.93731
      C    8   -0.10259      0.99958     2.09174    0.01127     3.10259
      C    9   -0.18273      0.99962     2.17442    0.00869     3.18273
      C   10   -0.18899      0.99965     2.18239    0.00695     3.18899
      C   11   -0.18862      0.99962     2.18132    0.00768     3.18862
      C   12   -0.02569      0.99955     2.01059    0.01556     3.02569
      C   13   -0.09163      0.99955     2.07969    0.01240     3.09163
      C   14   -0.18889      0.99953     2.18170    0.00765     3.18889
      N   15   -0.34863      0.99974     2.83622    0.01267     3.84863
      C   16   -0.17985      0.99965     2.17210    0.00810     3.17985
      H   17    0.09566      0.00000     0.40313    0.00121     0.40434
      H   18    0.09736      0.00000     0.40180    0.00084     0.40264
      H   19    0.09848      0.00000     0.40039    0.00114     0.40152
      H   20    0.09280      0.00000     0.40585    0.00135     0.40720
      H   21    0.09550      0.00000     0.40359    0.00091     0.40450
      H   22    0.09634      0.00000     0.40227    0.00139     0.40366
      H   23    0.10216      0.00000     0.39637    0.00146     0.39784
      H   24    0.09820      0.00000     0.39845    0.00336     0.40180
      H   25    0.09946      0.00000     0.39857    0.00197     0.40054
      H   26    0.08571      0.00000     0.41324    0.00105     0.41429
      H   27    0.07833      0.00000     0.41989    0.00178     0.42167
      H   28    0.17042      0.00000     0.32803    0.00155     0.32958
      H   29    0.19141      0.00000     0.30589    0.00270     0.30859
      H   30    0.10132      0.00000     0.39704    0.00164     0.39868
      H   31    0.10120      0.00000     0.39767    0.00113     0.39880
      H   32    0.08933      0.00000     0.40868    0.00200     0.41067
      H   33    0.09396      0.00000     0.40495    0.00109     0.40604
      H   34    0.09206      0.00000     0.40683    0.00111     0.40794
      H   35    0.09618      0.00000     0.40227    0.00155     0.40382
      H   36    0.09266      0.00000     0.40642    0.00093     0.40734
      H   37    0.09789      0.00000     0.39985    0.00226     0.40211
      H   38    0.09774      0.00000     0.40090    0.00136     0.40226
      H   39    0.09849      0.00000     0.40024    0.00127     0.40151
      H   40    0.08775      0.00000     0.41035    0.00190     0.41225
      H   41    0.17573      0.00000     0.32094    0.00333     0.32427
      H   42    0.08925      0.00000     0.40929    0.00146     0.41075
      H   43    0.09478      0.00000     0.40425    0.00097     0.40522
      H   44    0.09255      0.00000     0.40607    0.00139     0.40745
 =======================================================================
   * Total *   -0.00000     15.99386    46.80313    0.20300    63.00000

 Normal termination of Gaussian 16 at Fri Dec 11 01:57:54 2020.
