 Gaussian 16, Revision A.03,

 -----------------------------------------------------------
 # opt freq B3LYP/6-31G(d) empiricaldispersion=gd3bj scf=xqc
 -----------------------------------------------------------

 ------------------------------
 CID_89392052_JID_1430_neutraal
 ------------------------------
 Symbolic Z-matrix:
 Charge =  0 Multiplicity = 1

 SCF Done:  E(RB3LYP) =  -489.296235206     A.U. after   16 cycles
 SCF Done:  E(RB3LYP) =  -489.314683611     A.U. after   13 cycles
 SCF Done:  E(RB3LYP) =  -489.316393997     A.U. after   12 cycles
 SCF Done:  E(RB3LYP) =  -489.316555402     A.U. after   10 cycles
 SCF Done:  E(RB3LYP) =  -489.316585588     A.U. after   10 cycles
 SCF Done:  E(RB3LYP) =  -489.316587097     A.U. after    8 cycles
 SCF Done:  E(RB3LYP) =  -489.316587428     A.U. after    8 cycles
 SCF Done:  E(RB3LYP) =  -489.316587600     A.U. after    7 cycles
 SCF Done:  E(RB3LYP) =  -489.316587990     A.U. after    8 cycles
 SCF Done:  E(RB3LYP) =  -489.316588772     A.U. after    9 cycles
 SCF Done:  E(RB3LYP) =  -489.317092437     A.U. after   13 cycles
 SCF Done:  E(RB3LYP) =  -489.317018014     A.U. after   14 cycles
 SCF Done:  E(RB3LYP) =  -489.317182972     A.U. after   12 cycles
 SCF Done:  E(RB3LYP) =  -489.317185167     A.U. after   11 cycles
 SCF Done:  E(RB3LYP) =  -489.317185383     A.U. after    9 cycles
 SCF Done:  E(RB3LYP) =  -489.317185436     A.U. after    7 cycles
 Optimization completed.
    -- Stationary point found.
 Normal termination of Gaussian 16 at Tue Dec  8 20:04:26 2020.

 --------------------------------------------------------------------
 #N Geom=AllCheck Guess=TCheck SCRF=Check GenChk RB3LYP/6-31G(d) Freq
 --------------------------------------------------------------------

 Structure from the checkpoint file:  "JID_1430.chk"
 ------------------------------
 CID_89392052_JID_1430_neutraal
 ------------------------------
 Charge =  0 Multiplicity = 1

 SCF Done:  E(RB3LYP) =  -489.317185436     A.U. after    1 cycles

  Exact polarizability: 149.286   4.537  95.351   0.001   0.001  40.598
 Approx polarizability: 254.925   8.841 191.895  -0.001   0.002  63.711

                      1                      2                      3
                      A                      A                      A
 Frequencies --     79.3967               107.9703               169.4334
 Red. masses --      1.1221                 3.3506                 5.3727
 Frc consts  --      0.0042                 0.0230                 0.0909
 IR Inten    --      0.8822                 0.1803                 0.0009

                      4                      5                      6
                      A                      A                      A
 Frequencies --    278.6582               280.1192               396.6008
 Red. masses --      3.1134                 4.3909                 4.5906
 Frc consts  --      0.1424                 0.2030                 0.4254
 IR Inten    --      0.9943                 1.4730                 4.0647

                      7                      8                      9
                      A                      A                      A
 Frequencies --    438.9946               471.4846               473.6667
 Red. masses --      4.6423                 5.7765                 3.6605
 Frc consts  --      0.5271                 0.7566                 0.4839
 IR Inten    --      0.7862                 1.3588                 3.5169

                     10                     11                     12
                      A                      A                      A
 Frequencies --    527.5948               559.7950               642.5849
 Red. masses --      4.8932                 8.7267                 8.1560
 Frc consts  --      0.8025                 1.6112                 1.9842
 IR Inten    --      6.4181                 3.0339                 1.7134

                     13                     14                     15
                      A                      A                      A
 Frequencies --    698.2862               750.8771               805.3460
 Red. masses --      5.9830                 6.7931                 7.3302
 Frc consts  --      1.7189                 2.2566                 2.8011
 IR Inten    --      0.4334                 0.8393                 1.1539

                     16                     17                     18
                      A                      A                      A
 Frequencies --    824.5938               842.2783               916.8062
 Red. masses --      7.8037                 1.2558                 1.4267
 Frc consts  --      3.1263                 0.5249                 0.7065
 IR Inten    --      2.4058                 6.3996                20.3395

                     19                     20                     21
                      A                      A                      A
 Frequencies --    925.9257               992.4059               993.9338
 Red. masses --      4.7522                 1.3493                 5.9588
 Frc consts  --      2.4005                 0.7829                 3.4684
 IR Inten    --      5.1890                 0.2768                 0.0397

                     22                     23                     24
                      A                      A                      A
 Frequencies --   1033.3846              1054.2436              1077.3949
 Red. masses --      2.0401                 2.8609                 1.5570
 Frc consts  --      1.2836                 1.8734                 1.0649
 IR Inten    --      9.6497                 0.4802                 6.3480

                     25                     26                     27
                      A                      A                      A
 Frequencies --   1112.6602              1184.7606              1217.5807
 Red. masses --      3.2979                 2.0963                 1.5842
 Frc consts  --      2.4055                 1.7336                 1.3838
 IR Inten    --      8.8273                 0.1398                 9.2763

                     28                     29                     30
                      A                      A                      A
 Frequencies --   1293.7466              1322.4149              1368.9714
 Red. masses --      3.3031                 3.2248                 6.9885
 Frc consts  --      3.2574                 3.3227                 7.7165
 IR Inten    --      0.1047                 0.0311                11.5541

                     31                     32                     33
                      A                      A                      A
 Frequencies --   1382.3235              1412.0934              1443.8008
 Red. masses --      5.0860                 2.5040                 1.3416
 Frc consts  --      5.7259                 2.9418                 1.6477
 IR Inten    --     33.8427                 2.9571                 6.0415

                     34                     35                     36
                      A                      A                      A
 Frequencies --   1501.4736              1501.6139              1529.3841
 Red. masses --      1.4620                 1.0446                 1.9233
 Frc consts  --      1.9419                 1.3878                 2.6506
 IR Inten    --      9.6261                 6.5335                 9.0077

                     37                     38                     39
                      A                      A                      A
 Frequencies --   1551.8360              1639.4152              1658.7415
 Red. masses --      7.1662                 5.9415                 6.2989
 Frc consts  --     10.1679                 9.4086                10.2111
 IR Inten    --      5.5258                14.2173                66.6964

                     40                     41                     42
                      A                      A                      A
 Frequencies --   3061.9031              3122.7039              3146.3555
 Red. masses --      1.0359                 1.1008                 1.1037
 Frc consts  --      5.7221                 6.3242                 6.4372
 IR Inten    --      9.5057                 6.7142                12.0178

                     43                     44                     45
                      A                      A                      A
 Frequencies --   3191.8658              3196.6790              3222.3753
 Red. masses --      1.0922                 1.0896                 1.0959
 Frc consts  --      6.5558                 6.5604                 6.7047
 IR Inten    --      9.8579                 5.6093                16.6887

 - Thermochemistry -
 -------------------
 Temperature   298.150 Kelvin.  Pressure   1.00000 Atm.
 Atom     1 has atomic number  6 and mass  12.00000

 Molecular mass:   146.05925 amu.
 Principal axes and moments of inertia in atomic units:
                           1         2         3
     Eigenvalues --   591.103312096.443002676.39612
           X            1.00000  -0.00158   0.00000
           Y            0.00158   1.00000   0.00000
           Z           -0.00000  -0.00000   1.00000
 This molecule is an asymmetric top.
 Rotational symmetry number  1.
 Warning -- assumption of classical behavior for rotation
           may cause significant error
 Rotational temperatures (Kelvin)      0.14653     0.04131     0.03236
 Rotational constants (GHZ):           3.05317     0.86086     0.67432
 Zero-point vibrational energy     331392.3 (Joules/Mol)
                                   79.20467 (Kcal/Mol)
 Warning -- explicit consideration of  11 degrees of freedom as
           vibrations may cause significant error
 Vibrational temperatures:    114.23   155.35   243.78   400.93   403.03
          (Kelvin)            570.62   631.62   678.36   681.50   759.09
                              805.42   924.54  1004.68  1080.34  1158.71
                             1186.41  1211.85  1319.08  1332.20  1427.85
                             1430.05  1486.81  1516.82  1550.13  1600.87
                             1704.61  1751.83  1861.41  1902.66  1969.64
                             1988.86  2031.69  2077.31  2160.29  2160.49
                             2200.44  2232.75  2358.75  2386.56  4405.40
                             4492.87  4526.90  4592.38  4599.31  4636.28

 Zero-point correction=                           0.126221 (Hartree/Particle)
 Thermal correction to Energy=                    0.134473
 Thermal correction to Enthalpy=                  0.135417
 Thermal correction to Gibbs Free Energy=         0.092633
 Sum of electronic and zero-point Energies=           -489.190965
 Sum of electronic and thermal Energies=              -489.182713
 Sum of electronic and thermal Enthalpies=            -489.181769
 Sum of electronic and thermal Free Energies=         -489.224553

                     E (Thermal)             CV                S
                      KCal/Mol        Cal/Mol-Kelvin    Cal/Mol-Kelvin
 Total                   84.383             31.743             90.046
 Electronic               0.000              0.000              0.000
 Translational            0.889              2.981             40.847
 Rotational               0.889              2.981             29.585
 Vibrational             82.605             25.781             19.614
 Vibration     1          0.600              1.963              3.906
 Vibration     2          0.606              1.943              3.305
 Vibration     3          0.625              1.880              2.442
 Vibration     4          0.679              1.713              1.542
 Vibration     5          0.680              1.710              1.533
 Vibration     6          0.763              1.477              0.975
 Vibration     7          0.799              1.385              0.830
 Vibration     8          0.828              1.313              0.733
 Vibration     9          0.830              1.308              0.727
 Vibration    10          0.883              1.189              0.593
 Vibration    11          0.915              1.118              0.524

 Optimization completed.
    -- Stationary point found.
 Normal termination of Gaussian 16 at Tue Dec  8 20:07:33 2020.

 ----------------------------------------------------------------------
 # B3LYP/6-311++G(d,p) empiricaldispersion=gd3bj scf=xqc pop=npa geom=c
 heck
 ----------------------------------------------------------------------

 --------------------------------------
 CID_89392052_JID_1430_Energie_neutraal
 --------------------------------------
 Structure from the checkpoint file:  "JID_1430.chk"
 Charge =  0 Multiplicity = 1

 SCF Done:  E(RB3LYP) =  -489.438820103     A.U. after   16 cycles
 Normal termination of Gaussian 16 at Tue Dec  8 20:09:02 2020.

 ----------------------------------------------------------------------
 # B3LYP/6-311++G(d,p) empiricaldispersion=gd3bj scf=xqc pop=npa geom=c
 heck
 ----------------------------------------------------------------------

 ------------------------------------
 CID_89392052_JID_1430_Energie_kation
 ------------------------------------
 Structure from the checkpoint file:  "JID_1430.chk"
 Charge =  1 Multiplicity = 2

 SCF Done:  E(UB3LYP) =  -489.114212493     A.U. after   26 cycles
 Normal termination of Gaussian 16 at Tue Dec  8 20:13:30 2020.
 Gaussian 16:  ES64L-G16RevA.03 25-Dec-2016

 ----------------------------------------------------------------------
 # B3LYP/6-311++G(d,p) empiricaldispersion=gd3bj scf=xqc pop=npa geom=c
 heck
 ----------------------------------------------------------------------

 -----------------------------------
 CID_89392052_JID_1430_Energie_anion
 -----------------------------------
 Structure from the checkpoint file:  "JID_1430.chk"
 Charge = -1 Multiplicity = 2

                         Standard orientation:
 ---------------------------------------------------------------------
 Center     Atomic      Atomic             Coordinates (Angstroms)
 Number     Number       Type             X           Y           Z
 ---------------------------------------------------------------------
      1          6           0       -3.471883    0.491758   -0.000099
      2          6           0       -2.006690    0.167801    0.000059
      3          6           0       -1.017516    1.123530    0.000069
      4          6           0        0.321810    0.683705    0.000017
      5          6           0        0.531492   -0.717813   -0.000012
      6          7           0        1.773389   -1.288487   -0.000055
      7          7           0        2.826480   -0.523583   -0.000064
      8          6           0        2.688633    0.838712   -0.000009
      9          6           0        1.479691    1.489078    0.000029
     10          7           0       -0.502230   -1.616152    0.000066
     11          7           0       -1.723954   -1.182887    0.000075
     12          1           0       -3.956037    0.053890    0.879467
     13          1           0       -3.955438    0.055204   -0.880681
     14          1           0       -3.645243    1.571224    0.000586
     15          1           0       -1.253961    2.184388    0.000115
     16          1           0        3.630159    1.378921   -0.000011
     17          1           0        1.411506    2.573511    0.000054
 ---------------------------------------------------------------------

 SCF Done:  E(UB3LYP) =  -489.488179174     A.U. after   23 cycles

 The electronic state is 2-A.
 Alpha  occ. eigenvalues --  -14.17673 -14.17319 -14.16428 -14.16398 -10.07254
 Alpha  occ. eigenvalues --  -10.06531 -10.05527 -10.05448 -10.05076 -10.03351
 Alpha  occ. eigenvalues --  -10.03279  -0.86913  -0.84349  -0.69447  -0.68069
 Alpha  occ. eigenvalues --   -0.65411  -0.58392  -0.54837  -0.49715  -0.48256
 Alpha  occ. eigenvalues --   -0.39853  -0.38390  -0.37191  -0.31272  -0.31150
 Alpha  occ. eigenvalues --   -0.30250  -0.28658  -0.28353  -0.27703  -0.24563
 Alpha  occ. eigenvalues --   -0.23717  -0.18676  -0.17789  -0.16024  -0.13596
 Alpha  occ. eigenvalues --   -0.11921  -0.07308  -0.06567   0.01713
 Alpha virt. eigenvalues --    0.08332   0.09369   0.10219   0.10882   0.11890
 Alpha virt. eigenvalues --    0.12390   0.13288   0.13739   0.16619   0.16902
 Alpha virt. eigenvalues --    0.16991   0.18381   0.18566   0.19375   0.19469

  Beta  occ. eigenvalues --  -14.17490 -14.17043 -14.15864 -14.15831 -10.07363
  Beta  occ. eigenvalues --  -10.06519 -10.05609 -10.05413 -10.05077 -10.03062
  Beta  occ. eigenvalues --  -10.03011  -0.86158  -0.83553  -0.68984  -0.67734
  Beta  occ. eigenvalues --   -0.64880  -0.58141  -0.53937  -0.49526  -0.47885
  Beta  occ. eigenvalues --   -0.39416  -0.38194  -0.36978  -0.30938  -0.30808
  Beta  occ. eigenvalues --   -0.30162  -0.28177  -0.27590  -0.27575  -0.24426
  Beta  occ. eigenvalues --   -0.21847  -0.17422  -0.16973  -0.15478  -0.12446
  Beta  occ. eigenvalues --   -0.09785  -0.06759  -0.06034
  Beta virt. eigenvalues --    0.08318   0.08556   0.09359   0.10674   0.10862
  Beta virt. eigenvalues --    0.12336   0.12371   0.13745   0.14204   0.16639
  Beta virt. eigenvalues --    0.16981   0.17396   0.18407   0.19138   0.19364

 Mulliken charges and spin densities:
               1          2
     1  C   -0.517795  -0.004559
     2  C   -0.372800  -0.020224
     3  C    0.085415   0.246320
     4  C    0.768114  -0.081878
     5  C   -1.174184  -0.069765
     6  N   -0.095568   0.250651
     7  N   -0.051718   0.089203
     8  C   -0.487542   0.010956
     9  C    0.232925   0.242194
    10  N   -0.152707   0.259910
    11  N    0.013220   0.118665
    12  H    0.144472  -0.000839
    13  H    0.144481  -0.000831
    14  H    0.119229  -0.000201
    15  H    0.101669  -0.017465
    16  H    0.139148  -0.005477
    17  H    0.103642  -0.016659
 Sum of Mulliken charges =  -1.00000   1.00000

 Dipole moment (field-independent basis, Debye):
    X=             -3.1240    Y=              6.7925    Z=             -0.0001  Tot=              7.4765
 Quadrupole moment (field-independent basis, Debye-Ang):
   XX=            -92.5257   YY=            -82.7394   ZZ=            -68.9799
   XY=              2.6475   XZ=              0.0008   YZ=              0.0002

 Summary of Natural Population Analysis:

                                       Natural Population
                Natural  -----------------------------------------------
    Atom  No    Charge         Core      Valence    Rydberg      Total
 -----------------------------------------------------------------------
      C    1   -0.29536      0.99964     2.28945    0.00627     3.29536
      C    2    0.07778      0.99954     1.91004    0.01264     2.92222
      C    3   -0.06674      0.99947     2.05895    0.00832     3.06674
      C    4   -0.05410      0.99948     2.04604    0.00858     3.05410
      C    5    0.11986      0.99948     1.85931    0.02135     2.88014
      N    6   -0.02698      0.99971     2.50933    0.01794     3.52698
      N    7   -0.11388      0.99976     2.59556    0.01857     3.61388
      C    8   -0.00260      0.99958     1.98820    0.01482     3.00260
      C    9   -0.06292      0.99953     2.05481    0.00858     3.06292
      N   10   -0.02334      0.99971     2.50561    0.01803     3.52334
      N   11   -0.10349      0.99971     2.58564    0.01814     3.60349
      H   12    0.10173      0.00000     0.39684    0.00143     0.39827
      H   13    0.10172      0.00000     0.39685    0.00143     0.39828
      H   14    0.09155      0.00000     0.40753    0.00092     0.40845
      H   15    0.08691      0.00000     0.41055    0.00253     0.41309
      H   16    0.08212      0.00000     0.41647    0.00141     0.41788
      H   17    0.08774      0.00000     0.40971    0.00255     0.41226
 =======================================================================
   * Total *    0.00000     10.99560    26.84089    0.16351    38.00000

 Normal termination of Gaussian 16 at Tue Dec  8 20:16:46 2020.
