 Gaussian 16, Revision A.03,

 -----------------------------------------------------------
 # opt freq B3LYP/6-31G(d) empiricaldispersion=gd3bj scf=xqc
 -----------------------------------------------------------

 ------------------------------
 CID_22506781_JID_8030_neutraal
 ------------------------------
 Symbolic Z-matrix:
 Charge =  0 Multiplicity = 1

 SCF Done:  E(RB3LYP) =  -1148.30708550     A.U. after   14 cycles
 SCF Done:  E(RB3LYP) =  -1148.31205070     A.U. after   12 cycles
 SCF Done:  E(RB3LYP) =  -1148.31302112     A.U. after   12 cycles
 SCF Done:  E(RB3LYP) =  -1148.31348841     A.U. after   12 cycles
 SCF Done:  E(RB3LYP) =  -1148.31422623     A.U. after   14 cycles
 SCF Done:  E(RB3LYP) =  -1148.31490562     A.U. after   14 cycles
 SCF Done:  E(RB3LYP) =  -1148.31446545     A.U. after   15 cycles
 SCF Done:  E(RB3LYP) =  -1148.31499975     A.U. after   14 cycles
 SCF Done:  E(RB3LYP) =  -1148.31527769     A.U. after   12 cycles
 SCF Done:  E(RB3LYP) =  -1148.31538724     A.U. after   12 cycles
 SCF Done:  E(RB3LYP) =  -1148.31540084     A.U. after   11 cycles
 SCF Done:  E(RB3LYP) =  -1148.31540449     A.U. after   10 cycles
 SCF Done:  E(RB3LYP) =  -1148.31540453     A.U. after    7 cycles
 SCF Done:  E(RB3LYP) =  -1148.31540456     A.U. after    6 cycles
 SCF Done:  E(RB3LYP) =  -1148.31540457     A.U. after    6 cycles
 Optimization completed.
    -- Stationary point found.
 Normal termination of Gaussian 16 at Fri Dec 11 18:41:24 2020.

 --------------------------------------------------------------------
 #N Geom=AllCheck Guess=TCheck SCRF=Check GenChk RB3LYP/6-31G(d) Freq
 --------------------------------------------------------------------

 Structure from the checkpoint file:  "JID_8030.chk"
 ------------------------------
 CID_22506781_JID_8030_neutraal
 ------------------------------
 Charge =  0 Multiplicity = 1

 SCF Done:  E(RB3LYP) =  -1148.31540457     A.U. after    1 cycles

  Exact polarizability: 211.708  10.827 165.466  19.351  -3.948 129.670
 Approx polarizability: 265.903  23.563 294.900  32.542 -13.758 208.959

                      1                      2                      3
                      A                      A                      A
 Frequencies --     26.2909                29.9414                54.2831
 Red. masses --      5.0128                 4.8168                 5.2322
 Frc consts  --      0.0020                 0.0025                 0.0091
 IR Inten    --      1.3947                 0.0650                 3.7774

                      4                      5                      6
                      A                      A                      A
 Frequencies --     54.8845                61.9131                97.0987
 Red. masses --      3.8583                 5.5510                 3.2565
 Frc consts  --      0.0068                 0.0125                 0.0181
 IR Inten    --      0.6996                 0.9577                 1.9286

                      7                      8                      9
                      A                      A                      A
 Frequencies --    138.9926               197.0910               208.5875
 Red. masses --      4.2342                 2.3680                 3.0179
 Frc consts  --      0.0482                 0.0542                 0.0774
 IR Inten    --      1.0701                 1.2212                 2.6728

                     10                     11                     12
                      A                      A                      A
 Frequencies --    221.6290               233.5583               257.2261
 Red. masses --      1.6312                 2.4724                 2.7138
 Frc consts  --      0.0472                 0.0795                 0.1058
 IR Inten    --      1.1763                 0.9947                 3.5117

                     13                     14                     15
                      A                      A                      A
 Frequencies --    271.6650               281.0511               334.7541
 Red. masses --      3.7574                 4.0018                 2.2369
 Frc consts  --      0.1634                 0.1862                 0.1477
 IR Inten    --      0.0301                 3.6518                 1.8568

                     16                     17                     18
                      A                      A                      A
 Frequencies --    337.1817               372.4768               407.5977
 Red. masses --      3.3308                 2.5255                 2.9556
 Frc consts  --      0.2231                 0.2064                 0.2893
 IR Inten    --      1.6249                 6.9247                 5.1514

                     19                     20                     21
                      A                      A                      A
 Frequencies --    419.7622               420.9875               449.1567
 Red. masses --      3.0050                 1.8416                 4.1852
 Frc consts  --      0.3120                 0.1923                 0.4975
 IR Inten    --      0.1482                 0.3429                29.3092

                     22                     23                     24
                      A                      A                      A
 Frequencies --    461.8399               497.9999               523.3145
 Red. masses --      4.5524                 4.5651                 4.0037
 Frc consts  --      0.5721                 0.6670                 0.6460
 IR Inten    --     16.5900                16.8698                13.8741

                     25                     26                     27
                      A                      A                      A
 Frequencies --    569.5271               622.6493               638.4255
 Red. masses --      4.2533                 4.2365                 6.1916
 Frc consts  --      0.8128                 0.9677                 1.4869
 IR Inten    --     10.9577                10.9073                 0.0454

                     28                     29                     30
                      A                      A                      A
 Frequencies --    653.9822               715.7778               726.5006
 Red. masses --      4.0427                 2.5849                 1.8283
 Frc consts  --      1.0187                 0.7803                 0.5686
 IR Inten    --      9.4334                 9.5454                39.9335

                     31                     32                     33
                      A                      A                      A
 Frequencies --    750.1182               779.0875               791.0285
 Red. masses --      3.2119                 3.1714                 3.2864
 Frc consts  --      1.0648                 1.1341                 1.2116
 IR Inten    --     27.4747                10.6607                 2.9680

                     34                     35                     36
                      A                      A                      A
 Frequencies --    818.4123               840.3310               862.0666
 Red. masses --      2.0256                 3.1276                 1.3610
 Frc consts  --      0.7994                 1.3012                 0.5959
 IR Inten    --      1.8466                 6.0684                10.3800

                     37                     38                     39
                      A                      A                      A
 Frequencies --    864.1824               901.1084               933.5250
 Red. masses --      1.2664                 1.9631                 1.4710
 Frc consts  --      0.5572                 0.9392                 0.7553
 IR Inten    --      2.5184                25.0368                 3.5592

                     40                     41                     42
                      A                      A                      A
 Frequencies --    947.7426               968.4833               985.9085
 Red. masses --      1.8802                 1.3488                 2.1073
 Frc consts  --      0.9950                 0.7454                 1.2069
 IR Inten    --      5.0932                 0.0188                 5.8125

                     43                     44                     45
                      A                      A                      A
 Frequencies --    988.3977               996.7015               997.9183
 Red. masses --      1.3651                 1.2513                 1.7848
 Frc consts  --      0.7857                 0.7324                 1.0472
 IR Inten    --      5.3705                 0.8211                28.4704

                     46                     47                     48
                      A                      A                      A
 Frequencies --   1018.1624              1022.7018              1034.7708
 Red. masses --      1.7780                 5.7542                 2.0156
 Frc consts  --      1.0860                 3.5460                 1.2716
 IR Inten    --      0.6107                 2.5660                12.6994

                     49                     50                     51
                      A                      A                      A
 Frequencies --   1057.0180              1060.8191              1088.3420
 Red. masses --      2.1592                 2.2435                 2.1749
 Frc consts  --      1.4214                 1.4875                 1.5178
 IR Inten    --     18.8684                 0.5905                21.8894

                     52                     53                     54
                      A                      A                      A
 Frequencies --   1110.1870              1118.0539              1147.5546
 Red. masses --      3.7386                 1.7548                 2.0833
 Frc consts  --      2.7149                 1.2924                 1.6164
 IR Inten    --     89.8143                42.0023                71.8422

                     55                     56                     57
                      A                      A                      A
 Frequencies --   1169.9181              1180.2082              1194.2825
 Red. masses --      1.8802                 2.1896                 1.0980
 Frc consts  --      1.5162                 1.7970                 0.9227
 IR Inten    --     10.9734                 5.2175                 0.0644

                     58                     59                     60
                      A                      A                      A
 Frequencies --   1203.1914              1216.0789              1226.7717
 Red. masses --      1.3694                 1.1543                 2.9429
 Frc consts  --      1.1680                 1.0058                 2.6095
 IR Inten    --     15.1886                 0.2965                 6.6734

                     61                     62                     63
                      A                      A                      A
 Frequencies --   1236.2467              1261.8137              1278.6133
 Red. masses --      1.1437                 1.3192                 1.6112
 Frc consts  --      1.0298                 1.2375                 1.5520
 IR Inten    --      2.4391                 3.8219                35.1296

                     64                     65                     66
                      A                      A                      A
 Frequencies --   1316.3778              1325.1707              1346.8915
 Red. masses --      1.6813                 3.9804                 1.9708
 Frc consts  --      1.7166                 4.1183                 2.1065
 IR Inten    --     37.5291               111.8576                10.9180

                     67                     68                     69
                      A                      A                      A
 Frequencies --   1366.5317              1367.3470              1368.9597
 Red. masses --      1.2966                 2.3960                 1.2179
 Frc consts  --      1.4266                 2.6394                 1.3447
 IR Inten    --      0.3718                 2.3654                12.7809

                     70                     71                     72
                      A                      A                      A
 Frequencies --   1379.5134              1388.4359              1406.1212
 Red. masses --      1.3636                 1.2662                 1.5288
 Frc consts  --      1.5289                 1.4381                 1.7809
 IR Inten    --      1.2016                32.8247                 1.8662

                     73                     74                     75
                      A                      A                      A
 Frequencies --   1423.9471              1442.0220              1479.7375
 Red. masses --      1.9161                 1.4885                 1.0720
 Frc consts  --      2.2891                 1.8236                 1.3830
 IR Inten    --      7.1210                13.4043                 3.0456

                     76                     77                     78
                      A                      A                      A
 Frequencies --   1487.7570              1490.2277              1501.9687
 Red. masses --      1.0915                 1.0570                 1.1059
 Frc consts  --      1.4234                 1.3830                 1.4699
 IR Inten    --      9.2101                 7.8549                 9.2176

                     79                     80                     81
                      A                      A                      A
 Frequencies --   1503.8074              1506.5553              1521.0249
 Red. masses --      1.9859                 1.1292                 1.0892
 Frc consts  --      2.6461                 1.5100                 1.4847
 IR Inten    --      5.1223                 2.8280                 4.8283

                     82                     83                     84
                      A                      A                      A
 Frequencies --   1538.0633              1546.9235              1646.6785
 Red. masses --      1.1055                 2.1651                 5.4767
 Frc consts  --      1.5409                 3.0526                 8.7496
 IR Inten    --     12.4723                 6.5015                 0.9800

                     85                     86                     87
                      A                      A                      A
 Frequencies --   1666.4690              1747.1661              2925.7752
 Red. masses --      5.5819                 6.8557                 1.0728
 Frc consts  --      9.1333                12.3302                 5.4105
 IR Inten    --      1.3737                 3.7437                35.7275

                     88                     89                     90
                      A                      A                      A
 Frequencies --   2959.2998              3022.7470              3036.9789
 Red. masses --      1.0724                 1.0604                 1.0836
 Frc consts  --      5.5335                 5.7085                 5.8886
 IR Inten    --     48.5456                36.3146                17.2780

                     91                     92                     93
                      A                      A                      A
 Frequencies --   3044.4042              3054.3495              3083.0750
 Red. masses --      1.0607                 1.1004                 1.0921
 Frc consts  --      5.7923                 6.0481                 6.1160
 IR Inten    --     51.4428                24.5440                21.2988

                     94                     95                     96
                      A                      A                      A
 Frequencies --   3084.4677              3086.4456              3089.4451
 Red. masses --      1.0579                 1.0308                 1.1034
 Frc consts  --      5.9302                 5.7857                 6.2052
 IR Inten    --      6.1824                 0.9267                34.5120

                     97                     98                     99
                      A                      A                      A
 Frequencies --   3144.0415              3175.4733              3177.6021
 Red. masses --      1.1066                 1.0863                 1.0871
 Frc consts  --      6.4448                 6.4535                 6.4671
 IR Inten    --      1.7962                10.0093                 5.3419

                    100                    101                    102
                      A                      A                      A
 Frequencies --   3186.1925              3189.9166              3195.7430
 Red. masses --      1.1064                 1.0897                 1.1078
 Frc consts  --      6.6179                 6.5328                 6.6659
 IR Inten    --      0.8718                 7.2075                 0.6082

                    103                    104                    105
                      A                      A                      A
 Frequencies --   3197.6873              3198.7003              3210.8731
 Red. masses --      1.0910                 1.0938                 1.0979
 Frc consts  --      6.5730                 6.5936                 6.6690
 IR Inten    --      4.7643                38.1191                22.7699

 - Thermochemistry -
 -------------------
 Temperature   298.150 Kelvin.  Pressure   1.00000 Atm.
 Atom     1 has atomic number  6 and mass  12.00000

 Molecular mass:   265.11365 amu.
 Principal axes and moments of inertia in atomic units:
                           1         2         3
     Eigenvalues --  1526.41566********************
           X            0.99997   0.00553   0.00459
           Y           -0.00554   0.99998   0.00258
           Z           -0.00457  -0.00261   0.99999
 This molecule is an asymmetric top.
 Rotational symmetry number  1.
 Warning -- assumption of classical behavior for rotation
           may cause significant error
 Rotational temperatures (Kelvin)      0.05674     0.00697     0.00681
 Rotational constants (GHZ):           1.18234     0.14522     0.14185
 Zero-point vibrational energy     820439.7 (Joules/Mol)
                                  196.08979 (Kcal/Mol)
 Warning -- explicit consideration of  25 degrees of freedom as
           vibrations may cause significant error
 Vibrational temperatures:     37.83    43.08    78.10    78.97    89.08
          (Kelvin)            139.70   199.98   283.57   300.11   318.87
                              336.04   370.09   390.87   404.37   481.64
                              485.13   535.91   586.44   603.94   605.71
                              646.24   664.48   716.51   752.93   819.42
                              895.85   918.55   940.93  1029.84  1045.27
                             1079.25  1120.93  1138.11  1177.51  1209.05
                             1240.32  1243.37  1296.49  1343.13  1363.59
                             1393.43  1418.50  1422.08  1434.03  1435.78
                             1464.91  1471.44  1488.80  1520.81  1526.28
                             1565.88  1597.31  1608.63  1651.08  1683.25
                             1698.06  1718.31  1731.12  1749.67  1765.05
                             1778.68  1815.47  1839.64  1893.97  1906.63
                             1937.88  1966.13  1967.31  1969.63  1984.81
                             1997.65  2023.09  2048.74  2074.75  2129.01
                             2140.55  2144.11  2161.00  2163.64  2167.60
                             2188.42  2212.93  2225.68  2369.20  2397.68
                             2513.78  4209.54  4257.77  4349.06  4369.54
                             4380.22  4394.53  4435.86  4437.86  4440.71
                             4445.02  4523.57  4568.80  4571.86  4584.22
                             4589.58  4597.96  4600.76  4602.22  4619.73

 Zero-point correction=                           0.312489 (Hartree/Particle)
 Thermal correction to Energy=                    0.329608
 Thermal correction to Enthalpy=                  0.330552
 Thermal correction to Gibbs Free Energy=         0.265887
 Sum of electronic and zero-point Energies=          -1148.002916
 Sum of electronic and thermal Energies=             -1147.985797
 Sum of electronic and thermal Enthalpies=           -1147.984853
 Sum of electronic and thermal Free Energies=        -1148.049518

                     E (Thermal)             CV                S
                      KCal/Mol        Cal/Mol-Kelvin    Cal/Mol-Kelvin
 Total                  206.832             66.195            136.099
 Electronic               0.000              0.000              0.000
 Translational            0.889              2.981             42.624
 Rotational               0.889              2.981             33.845
 Vibrational            205.055             60.233             59.630
 Vibration     1          0.593              1.985              6.091
 Vibration     2          0.594              1.984              5.833
 Vibration     3          0.596              1.976              4.655
 Vibration     4          0.596              1.976              4.633
 Vibration     5          0.597              1.972              4.395
 Vibration     6          0.603              1.951              3.512
 Vibration     7          0.615              1.914              2.818
 Vibration     8          0.636              1.844              2.160
 Vibration     9          0.642              1.828              2.056
 Vibration    10          0.648              1.808              1.946
 Vibration    11          0.654              1.790              1.851
 Vibration    12          0.667              1.751              1.681
 Vibration    13          0.675              1.725              1.586
 Vibration    14          0.681              1.709              1.527
 Vibration    15          0.716              1.606              1.237
 Vibration    16          0.718              1.601              1.225
 Vibration    17          0.744              1.529              1.070
 Vibration    18          0.772              1.454              0.935
 Vibration    19          0.782              1.427              0.893
 Vibration    20          0.783              1.425              0.889
 Vibration    21          0.808              1.363              0.798
 Vibration    22          0.820              1.335              0.761
 Vibration    23          0.853              1.254              0.663
 Vibration    24          0.878              1.198              0.602
 Vibration    25          0.926              1.097              0.505

 Optimization completed.
    -- Stationary point found.
 Normal termination of Gaussian 16 at Fri Dec 11 18:56:43 2020.

 ----------------------------------------------------------------------
 # B3LYP/6-311++G(d,p) empiricaldispersion=gd3bj scf=xqc pop=npa geom=c
 heck
 ----------------------------------------------------------------------

 --------------------------------------
 CID_22506781_JID_8030_Energie_neutraal
 --------------------------------------
 Structure from the checkpoint file:  "JID_8030.chk"
 Charge =  0 Multiplicity = 1

 SCF Done:  E(RB3LYP) =  -1148.54755814     A.U. after   17 cycles
 Normal termination of Gaussian 16 at Fri Dec 11 19:03:49 2020.

 ----------------------------------------------------------------------
 # B3LYP/6-311++G(d,p) empiricaldispersion=gd3bj scf=xqc pop=npa geom=c
 heck
 ----------------------------------------------------------------------

 ------------------------------------
 CID_22506781_JID_8030_Energie_kation
 ------------------------------------
 Structure from the checkpoint file:  "JID_8030.chk"
 Charge =  1 Multiplicity = 2

 SCF Done:  E(UB3LYP) =  -1148.24993323     A.U. after   32 cycles
 Normal termination of Gaussian 16 at Fri Dec 11 19:21:49 2020.
 Gaussian 16:  ES64L-G16RevA.03 25-Dec-2016

 ----------------------------------------------------------------------
 # B3LYP/6-311++G(d,p) empiricaldispersion=gd3bj scf=xqc pop=npa geom=c
 heck
 ----------------------------------------------------------------------

 -----------------------------------
 CID_22506781_JID_8030_Energie_anion
 -----------------------------------
 Structure from the checkpoint file:  "JID_8030.chk"
 Charge = -1 Multiplicity = 2

                         Standard orientation:
 ---------------------------------------------------------------------
 Center     Atomic      Atomic             Coordinates (Angstroms)
 Number     Number       Type             X           Y           Z
 ---------------------------------------------------------------------
      1          6           0        3.791767    0.631906    1.393530
      2         16           0        4.119945   -0.285073   -0.128401
      3          8           0        5.414169    0.160491   -0.670202
      4          8           0        3.882075   -1.711046    0.151039
      5          6           0        2.812045    0.290621   -1.280000
      6          6           0        1.435437    0.261928   -0.677098
      7          6           0        0.823663   -0.892199   -0.386800
      8          6           0       -0.497287   -0.964186    0.321249
      9          7           0       -0.860717    0.313902    0.922636
     10          6           0       -0.696783    1.411744   -0.024340
     11          6           0        0.787701    1.586337   -0.349070
     12          6           0       -2.162702    0.286956    1.599375
     13          6           0       -3.367027    0.045927    0.706048
     14          6           0       -4.001097    1.111337    0.054433
     15          6           0       -5.067480    0.886551   -0.815641
     16          6           0       -5.519572   -0.413756   -1.046190
     17          6           0       -4.903262   -1.484019   -0.396894
     18          6           0       -3.836942   -1.252522    0.472344
     19          1           0        4.537588    0.293633    2.115960
     20          1           0        2.785335    0.394090    1.740831
     21          1           0        3.908060    1.700410    1.202626
     22          1           0        3.114785    1.290331   -1.602631
     23          1           0        2.928540   -0.395833   -2.124962
     24          1           0        1.296966   -1.838387   -0.635585
     25          1           0       -0.437878   -1.716776    1.120237
     26          1           0       -1.264336   -1.332909   -0.388797
     27          1           0       -1.263506    1.248001   -0.959057
     28          1           0       -1.089077    2.326655    0.432830
     29          1           0        0.899971    2.276487   -1.196879
     30          1           0        1.299260    2.057431    0.502699
     31          1           0       -2.111677   -0.495815    2.366116
     32          1           0       -2.274041    1.245372    2.120341
     33          1           0       -3.660816    2.127542    0.238392
     34          1           0       -5.549523    1.726150   -1.308937
     35          1           0       -6.351659   -0.590743   -1.721726
     36          1           0       -5.255444   -2.498351   -0.563082
     37          1           0       -3.367356   -2.088737    0.985205
 ---------------------------------------------------------------------

 SCF Done:  E(UB3LYP) =  -1148.54158519     A.U. after   33 cycles
 SCF Done:  E(UB3LYP) =  -1148.54158519     a.u. after    1 cycles

 The electronic state is 2-A.
 Alpha  occ. eigenvalues --  -88.95499 -19.02507 -19.02423 -14.21734 -10.12710
 Alpha  occ. eigenvalues --  -10.11753 -10.10978 -10.10676 -10.10056 -10.09926
 Alpha  occ. eigenvalues --  -10.08828 -10.08799 -10.08750 -10.08665 -10.08611
 Alpha  occ. eigenvalues --  -10.08597 -10.08354 -10.08302  -8.02020  -5.98270
 Alpha  occ. eigenvalues --   -5.98161  -5.98127  -1.01681  -0.91363  -0.84506
 Alpha  occ. eigenvalues --   -0.76985  -0.74764  -0.69559  -0.67579  -0.67041
 Alpha  occ. eigenvalues --   -0.65925  -0.64914  -0.59496  -0.55479  -0.53363
 Alpha  occ. eigenvalues --   -0.51873  -0.50744  -0.49399  -0.43811  -0.42733
 Alpha  occ. eigenvalues --   -0.41185  -0.40737  -0.40545  -0.38783  -0.38426
 Alpha  occ. eigenvalues --   -0.37762  -0.36731  -0.36445  -0.35381  -0.34329
 Alpha  occ. eigenvalues --   -0.33847  -0.33577  -0.33507  -0.32910  -0.31460
 Alpha  occ. eigenvalues --   -0.30647  -0.29196  -0.28102  -0.27658  -0.26245
 Alpha  occ. eigenvalues --   -0.25981  -0.25296  -0.25063  -0.23962  -0.23276
 Alpha  occ. eigenvalues --   -0.21648  -0.20655  -0.17023  -0.16648  -0.15809
 Alpha  occ. eigenvalues --   -0.12925   0.03661
 Alpha virt. eigenvalues --    0.05525   0.06452   0.06520   0.06779   0.07178
 Alpha virt. eigenvalues --    0.07351   0.07814   0.08127   0.08969   0.09104
 Alpha virt. eigenvalues --    0.09588   0.09816   0.10586   0.11152   0.11515

  Beta  occ. eigenvalues --  -88.95491 -19.02500 -19.02412 -14.21731 -10.12693
  Beta  occ. eigenvalues --  -10.11707 -10.10969 -10.10663 -10.10036 -10.09924
  Beta  occ. eigenvalues --  -10.08809 -10.08762 -10.08749 -10.08657 -10.08587
  Beta  occ. eigenvalues --  -10.08553 -10.08321 -10.08266  -8.02010  -5.98263
  Beta  occ. eigenvalues --   -5.98152  -5.98120  -1.01654  -0.91336  -0.84485
  Beta  occ. eigenvalues --   -0.76922  -0.74727  -0.69500  -0.67506  -0.66993
  Beta  occ. eigenvalues --   -0.65869  -0.64856  -0.59444  -0.55418  -0.53309
  Beta  occ. eigenvalues --   -0.51825  -0.50688  -0.49336  -0.43761  -0.42690
  Beta  occ. eigenvalues --   -0.41138  -0.40706  -0.40512  -0.38755  -0.38385
  Beta  occ. eigenvalues --   -0.37705  -0.36692  -0.36402  -0.35351  -0.34290
  Beta  occ. eigenvalues --   -0.33815  -0.33542  -0.33471  -0.32858  -0.31423
  Beta  occ. eigenvalues --   -0.30601  -0.29150  -0.28063  -0.27550  -0.26197
  Beta  occ. eigenvalues --   -0.25933  -0.25262  -0.25028  -0.23926  -0.23266
  Beta  occ. eigenvalues --   -0.21633  -0.20628  -0.16928  -0.16443  -0.15705
  Beta  occ. eigenvalues --   -0.12911
  Beta virt. eigenvalues --    0.05678   0.06273   0.06797   0.06877   0.07134
  Beta virt. eigenvalues --    0.07281   0.07766   0.08177   0.08571   0.09284
  Beta virt. eigenvalues --    0.09459   0.09752   0.10047   0.10870   0.11276

 Mulliken charges and spin densities:
               1          2
     1  C    0.153067  -0.893107
     2  S    0.146933   0.244646
     3  O   -0.161840   0.011745
     4  O   -0.215877   0.015735
     5  C   -0.163863  -0.928331
     6  C    0.687587   0.510232
     7  C   -2.295688   1.878671
     8  C    0.470844  -1.054462
     9  N    0.132694   0.135526
    10  C   -0.426845   0.142940
    11  C    1.513122  -2.501950
    12  C    0.885640  -1.406519
    13  C   -0.347274   0.803432
    14  C   -0.335407   0.309810
    15  C    0.074846  -0.291085
    16  C    0.730917  -1.105096
    17  C    0.043905  -0.257708
    18  C   -0.717697   0.614511
    19  H    0.096031   0.123613
    20  H    0.038247   0.209945
    21  H   -0.244806   0.467983
    22  H    0.081462   0.177748
    23  H    0.206881   0.038442
    24  H    0.091323   0.139175
    25  H    0.123849   0.035892
    26  H    0.122751   0.022771
    27  H    0.336345  -0.203160
    28  H   -0.469423   0.649188
    29  H   -0.398260   0.584387
    30  H   -0.052540   0.235182
    31  H   -0.084867   0.250225
    32  H   -0.220613   0.433397
    33  H   -0.215394   0.381271
    34  H   -0.354514   0.533031
    35  H   -0.048460   0.183066
    36  H   -0.162095   0.329587
    37  H   -0.020979   0.179269
 Sum of Mulliken charges =  -1.00000   1.00000

 Dipole moment (field-independent basis, Debye):
    X=             -0.2932    Y=             -3.5273    Z=             -1.2182  Tot=              3.7433
 Quadrupole moment (field-independent basis, Debye-Ang):
   XX=           -233.0821   YY=           -163.3257   ZZ=           -146.1480
   XY=              6.4802   XZ=             -0.7153   YZ=             -2.9867

 Summary of Natural Population Analysis:

                                       Natural Population
                Natural  -----------------------------------------------
    Atom  No    Charge         Core      Valence    Rydberg      Total
 -----------------------------------------------------------------------
      C    1   -0.39537      0.99961     2.38777    0.00799     3.39537
      S    2    1.01840      4.99932     1.88882    0.09346     6.98160
      O    3   -0.47176      0.99991     3.46604    0.00581     4.47176
      O    4   -0.46989      0.99991     3.46421    0.00578     4.46989
      C    5   -0.29244      0.99953     2.27912    0.01379     3.29244
      C    6   -0.03656      0.99947     2.02529    0.01181     3.03656
      C    7   -0.07470      0.99944     2.06663    0.00863     3.07470
      C    8   -0.09879      0.99959     2.08982    0.00937     3.09879
      N    9   -0.27486      0.99972     2.76128    0.01387     3.77486
      C   10   -0.08326      0.99961     2.07164    0.01201     3.08326
      C   11   -0.20322      0.99958     2.19255    0.01109     3.20322
      C   12   -0.08735      0.99957     2.07474    0.01303     3.08735
      C   13   -0.02334      0.99950     2.01340    0.01045     3.02334
      C   14   -0.09402      0.99951     2.08468    0.00984     3.09402
      C   15   -0.10193      0.99956     2.09199    0.01038     3.10193
      C   16   -0.09845      0.99956     2.08947    0.00942     3.09845
      C   17   -0.10046      0.99956     2.09112    0.00979     3.10046
      C   18   -0.10168      0.99951     2.09359    0.00859     3.10168
      H   19    0.11856      0.00000     0.38047    0.00096     0.38144
      H   20    0.12277      0.00000     0.37560    0.00163     0.37723
      H   21    0.11666      0.00000     0.38182    0.00152     0.38334
      H   22    0.11756      0.00000     0.38124    0.00120     0.38244
      H   23    0.12090      0.00000     0.37814    0.00096     0.37910
      H   24    0.10499      0.00000     0.39396    0.00105     0.39501
      H   25    0.10055      0.00000     0.39812    0.00133     0.39945
      H   26    0.09355      0.00000     0.40457    0.00188     0.40645
      H   27    0.08343      0.00000     0.41433    0.00224     0.41657
      H   28    0.10207      0.00000     0.39576    0.00217     0.39793
      H   29    0.10269      0.00000     0.39604    0.00127     0.39731
      H   30    0.10636      0.00000     0.39019    0.00345     0.39364
      H   31    0.09671      0.00000     0.40203    0.00127     0.40329
      H   32    0.10237      0.00000     0.39621    0.00142     0.39763
      H   33    0.10261      0.00000     0.39547    0.00192     0.39739
      H   34    0.10098      0.00000     0.39805    0.00097     0.39902
      H   35    0.09920      0.00000     0.39993    0.00087     0.40080
      H   36    0.09892      0.00000     0.40019    0.00089     0.40108
      H   37    0.09882      0.00000     0.39970    0.00147     0.40118
 =======================================================================
   * Total *    0.00000     21.99246    48.71397    0.29356    71.00000

 Normal termination of Gaussian 16 at Fri Dec 11 19:40:47 2020.
