 Gaussian 16, Revision A.03,

 -----------------------------------------------------------
 # opt freq B3LYP/6-31G(d) empiricaldispersion=gd3bj scf=xqc
 -----------------------------------------------------------

 ------------------------------
 CID_21950424_JID_2467_neutraal
 ------------------------------
 Symbolic Z-matrix:
 Charge =  0 Multiplicity = 1

 SCF Done:  E(RB3LYP) =  -554.828854789     A.U. after   15 cycles
 SCF Done:  E(RB3LYP) =  -554.830198164     A.U. after   12 cycles
 SCF Done:  E(RB3LYP) =  -554.830090679     A.U. after   12 cycles
 SCF Done:  E(RB3LYP) =  -554.830714286     A.U. after   12 cycles
 SCF Done:  E(RB3LYP) =  -554.830797042     A.U. after   11 cycles
 SCF Done:  E(RB3LYP) =  -554.830884063     A.U. after   12 cycles
 SCF Done:  E(RB3LYP) =  -554.830932496     A.U. after   12 cycles
 SCF Done:  E(RB3LYP) =  -554.830924363     A.U. after   11 cycles
 SCF Done:  E(RB3LYP) =  -554.830972457     A.U. after   11 cycles
 SCF Done:  E(RB3LYP) =  -554.831044584     A.U. after   12 cycles
 SCF Done:  E(RB3LYP) =  -554.831065391     A.U. after   11 cycles
 SCF Done:  E(RB3LYP) =  -554.831058925     A.U. after    9 cycles
 SCF Done:  E(RB3LYP) =  -554.831073294     A.U. after   10 cycles
 SCF Done:  E(RB3LYP) =  -554.831075327     A.U. after    9 cycles
 SCF Done:  E(RB3LYP) =  -554.831075890     A.U. after   10 cycles
 SCF Done:  E(RB3LYP) =  -554.831075884     A.U. after    8 cycles
 Optimization completed.
    -- Stationary point found.
 Normal termination of Gaussian 16 at Wed Dec  9 17:24:26 2020.

 --------------------------------------------------------------------
 #N Geom=AllCheck Guess=TCheck SCRF=Check GenChk RB3LYP/6-31G(d) Freq
 --------------------------------------------------------------------

 Structure from the checkpoint file:  "JID_2467.chk"
 ------------------------------
 CID_21950424_JID_2467_neutraal
 ------------------------------
 Charge =  0 Multiplicity = 1

 SCF Done:  E(RB3LYP) =  -554.831075884     A.U. after    1 cycles

  Exact polarizability: 134.233   1.388  97.803  -5.950  14.817  73.328
 Approx polarizability: 191.884   2.183 161.335  -9.754  35.662 120.290

                      1                      2                      3
                      A                      A                      A
 Frequencies --     27.9081                52.0149                84.5806
 Red. masses --      4.0206                 6.8544                 4.7104
 Frc consts  --      0.0018                 0.0109                 0.0199
 IR Inten    --      0.5943                 7.6370                 0.6091

                      4                      5                      6
                      A                      A                      A
 Frequencies --    152.4351               205.9470               246.5733
 Red. masses --      4.8565                 4.3253                 2.3667
 Frc consts  --      0.0665                 0.1081                 0.0848
 IR Inten    --      1.3166                 0.3182                 1.3849

                      7                      8                      9
                      A                      A                      A
 Frequencies --    286.3394               320.2978               331.1988
 Red. masses --      1.2929                 3.4063                 1.1619
 Frc consts  --      0.0625                 0.2059                 0.0751
 IR Inten    --     20.4609                 5.2821               161.7540

                     10                     11                     12
                      A                      A                      A
 Frequencies --    355.6418               387.9230               419.0187
 Red. masses --      1.0916                 5.7448                 3.6845
 Frc consts  --      0.0813                 0.5093                 0.3812
 IR Inten    --    119.0434                 2.2227                 8.4303

                     13                     14                     15
                      A                      A                      A
 Frequencies --    422.9820               440.8995               518.0056
 Red. masses --      3.1508                 4.2488                 2.8364
 Frc consts  --      0.3321                 0.4866                 0.4484
 IR Inten    --      0.2328                 3.2060                 5.0445

                     16                     17                     18
                      A                      A                      A
 Frequencies --    540.3005               567.7670               611.3101
 Red. masses --      2.0314                 2.7842                 1.6621
 Frc consts  --      0.3494                 0.5288                 0.3660
 IR Inten    --     19.0466                20.2322                24.1889

                     19                     20                     21
                      A                      A                      A
 Frequencies --    658.7513               700.8793               732.0542
 Red. masses --      6.4837                 3.8116                 4.0888
 Frc consts  --      1.6577                 1.1032                 1.2910
 IR Inten    --      0.7253                 1.7116                 2.8843

                     22                     23                     24
                      A                      A                      A
 Frequencies --    802.6282               815.9724               828.2482
 Red. masses --      3.1809                 1.4532                 2.3087
 Frc consts  --      1.2073                 0.5701                 0.9331
 IR Inten    --     19.7175                 9.8516                 5.7155

                     25                     26                     27
                      A                      A                      A
 Frequencies --    848.2366               863.2917               941.1524
 Red. masses --      1.8167                 4.2258                 1.3088
 Frc consts  --      0.7701                 1.8556                 0.6830
 IR Inten    --     25.5321                 4.0917                 0.5332

                     28                     29                     30
                      A                      A                      A
 Frequencies --    954.5679              1010.2519              1036.9097
 Red. masses --      1.3124                 1.9373                 2.6189
 Frc consts  --      0.7046                 1.1650                 1.6590
 IR Inten    --      0.0736                 3.4893                 2.6648

                     31                     32                     33
                      A                      A                      A
 Frequencies --   1061.1819              1106.7727              1124.2820
 Red. masses --      1.7308                 1.9457                 1.7249
 Frc consts  --      1.1484                 1.4042                 1.2846
 IR Inten    --     12.0972                18.0585                 3.3209

                     34                     35                     36
                      A                      A                      A
 Frequencies --   1146.0276              1209.9465              1212.3315
 Red. masses --      1.4943                 1.3734                 1.1955
 Frc consts  --      1.1563                 1.1846                 1.0353
 IR Inten    --      8.6382               161.7109                14.7112

                     37                     38                     39
                      A                      A                      A
 Frequencies --   1227.7754              1301.4110              1311.7388
 Red. masses --      1.9775                 2.1818                 3.4351
 Frc consts  --      1.7563                 2.1771                 3.4824
 IR Inten    --     16.7914                11.7495               111.1076

                     40                     41                     42
                      A                      A                      A
 Frequencies --   1344.4806              1358.1706              1379.0718
 Red. masses --      1.3382                 3.5266                 1.3552
 Frc consts  --      1.4252                 3.8328                 1.5185
 IR Inten    --      4.8849                94.9136                13.4131

                     43                     44                     45
                      A                      A                      A
 Frequencies --   1387.2190              1436.3366              1491.4852
 Red. masses --      2.8048                 1.2460                 2.6666
 Frc consts  --      3.1801                 1.5146                 3.4950
 IR Inten    --     20.4585                 5.9234                28.8206

                     46                     47                     48
                      A                      A                      A
 Frequencies --   1526.9365              1536.8988              1567.3851
 Red. masses --      1.0494                 1.0616                 2.6033
 Frc consts  --      1.4416                 1.4774                 3.7682
 IR Inten    --     10.6502                 4.7072               106.1598

                     49                     50                     51
                      A                      A                      A
 Frequencies --   1645.5923              1653.5413              1679.5038
 Red. masses --      1.2333                 5.8640                 5.8880
 Frc consts  --      1.9677                 9.4466                 9.7855
 IR Inten    --    112.4831                14.8077                44.6225

                     52                     53                     54
                      A                      A                      A
 Frequencies --   1809.3064              3043.6540              3083.1099
 Red. masses --      8.9233                 1.0368                 1.0858
 Frc consts  --     17.2107                 5.6591                 6.0809
 IR Inten    --    269.4442                26.1802                 3.6517

                     55                     56                     57
                      A                      A                      A
 Frequencies --   3111.1324              3127.3436              3166.3647
 Red. masses --      1.1011                 1.1006                 1.0887
 Frc consts  --      6.2792                 6.3423                 6.4310
 IR Inten    --     40.7893                21.6998                23.1713

                     58                     59                     60
                      A                      A                      A
 Frequencies --   3186.6460              3198.8777              3218.4660
 Red. masses --      1.0889                 1.0921                 1.0932
 Frc consts  --      6.5148                 6.5843                 6.6721
 IR Inten    --     11.2728                 9.2026                 8.0155

                     61                     62                     63
                      A                      A                      A
 Frequencies --   3587.4681              3712.9945              3752.1695
 Red. masses --      1.0458                 1.1029                 1.0659
 Frc consts  --      7.9298                 8.9584                 8.8417
 IR Inten    --     28.0813                29.4266                42.7453

 - Thermochemistry -
 -------------------
 Temperature   298.150 Kelvin.  Pressure   1.00000 Atm.
 Atom     1 has atomic number  6 and mass  12.00000

 Molecular mass:   165.07898 amu.
 Principal axes and moments of inertia in atomic units:
                           1         2         3
     Eigenvalues --   905.059443580.545943670.60008
           X            0.99982   0.00599  -0.01779
           Y           -0.00454   0.99677   0.08022
           Z            0.01822  -0.08013   0.99662
 This molecule is an asymmetric top.
 Rotational symmetry number  1.
 Warning -- assumption of classical behavior for rotation
           may cause significant error
 Rotational temperatures (Kelvin)      0.09570     0.02419     0.02360
 Rotational constants (GHZ):           1.99406     0.50404     0.49167
 Zero-point vibrational energy     495670.9 (Joules/Mol)
                                  118.46820 (Kcal/Mol)
 Warning -- explicit consideration of  18 degrees of freedom as
           vibrations may cause significant error
 Vibrational temperatures:     40.15    74.84   121.69   219.32   296.31
          (Kelvin)            354.76   411.98   460.84   476.52   511.69
                              558.13   602.87   608.58   634.36   745.29
                              777.37   816.89   879.54   947.80  1008.41
                             1053.26  1154.80  1174.00  1191.66  1220.42
                             1242.08  1354.11  1373.41  1453.53  1491.88
                             1526.80  1592.40  1617.59  1648.88  1740.84
                             1744.27  1766.49  1872.44  1887.30  1934.41
                             1954.10  1984.18  1995.90  2066.57  2145.91
                             2196.92  2211.25  2255.12  2367.64  2379.08
                             2416.43  2603.19  4379.14  4435.91  4476.23
                             4499.55  4555.69  4584.87  4602.47  4630.65
                             5161.57  5342.17  5398.54

 Zero-point correction=                           0.188791 (Hartree/Particle)
 Thermal correction to Energy=                    0.200347
 Thermal correction to Enthalpy=                  0.201292
 Thermal correction to Gibbs Free Energy=         0.150553
 Sum of electronic and zero-point Energies=           -554.642285
 Sum of electronic and thermal Energies=              -554.630728
 Sum of electronic and thermal Enthalpies=            -554.629784
 Sum of electronic and thermal Free Energies=         -554.680523

                     E (Thermal)             CV                S
                      KCal/Mol        Cal/Mol-Kelvin    Cal/Mol-Kelvin
 Total                  125.720             44.144            106.788
 Electronic               0.000              0.000              0.000
 Translational            0.889              2.981             41.212
 Rotational               0.889              2.981             30.854
 Vibrational            123.942             38.183             34.722
 Vibration     1          0.593              1.984              5.973
 Vibration     2          0.596              1.977              4.739
 Vibration     3          0.601              1.960              3.782
 Vibration     4          0.619              1.900              2.642
 Vibration     5          0.640              1.831              2.079
 Vibration     6          0.661              1.768              1.755
 Vibration     7          0.684              1.699              1.496
 Vibration     8          0.706              1.635              1.309
 Vibration     9          0.714              1.613              1.254
 Vibration    10          0.731              1.564              1.141
 Vibration    11          0.756              1.496              1.008
 Vibration    12          0.782              1.429              0.895
 Vibration    13          0.785              1.420              0.882
 Vibration    14          0.801              1.381              0.824
 Vibration    15          0.873              1.210              0.615
 Vibration    16          0.895              1.161              0.565
 Vibration    17          0.924              1.101              0.509
 Vibration    18          0.970              1.008              0.431

 Optimization completed.
    -- Stationary point found.
 Normal termination of Gaussian 16 at Wed Dec  9 17:29:23 2020.

 ----------------------------------------------------------------------
 # B3LYP/6-311++G(d,p) empiricaldispersion=gd3bj scf=xqc pop=npa geom=c
 heck
 ----------------------------------------------------------------------

 --------------------------------------
 CID_21950424_JID_2467_Energie_neutraal
 --------------------------------------
 Structure from the checkpoint file:  "JID_2467.chk"
 Charge =  0 Multiplicity = 1

 SCF Done:  E(RB3LYP) =  -555.003880214     A.U. after   15 cycles
 Normal termination of Gaussian 16 at Wed Dec  9 17:31:28 2020.

 ----------------------------------------------------------------------
 # B3LYP/6-311++G(d,p) empiricaldispersion=gd3bj scf=xqc pop=npa geom=c
 heck
 ----------------------------------------------------------------------

 ------------------------------------
 CID_21950424_JID_2467_Energie_kation
 ------------------------------------
 Structure from the checkpoint file:  "JID_2467.chk"
 Charge =  1 Multiplicity = 2

 SCF Done:  E(UB3LYP) =  -554.707084882     A.U. after   23 cycles
 Normal termination of Gaussian 16 at Wed Dec  9 17:35:34 2020.
 Gaussian 16:  ES64L-G16RevA.03 25-Dec-2016

 ----------------------------------------------------------------------
 # B3LYP/6-311++G(d,p) empiricaldispersion=gd3bj scf=xqc pop=npa geom=c
 heck
 ----------------------------------------------------------------------

 -----------------------------------
 CID_21950424_JID_2467_Energie_anion
 -----------------------------------
 Structure from the checkpoint file:  "JID_2467.chk"
 Charge = -1 Multiplicity = 2

                         Standard orientation:
 ---------------------------------------------------------------------
 Center     Atomic      Atomic             Coordinates (Angstroms)
 Number     Number       Type             X           Y           Z
 ---------------------------------------------------------------------
      1          6           0        1.941781    1.109335   -1.567894
      2          6           0        1.518907    0.792329   -0.122842
      3          6           0        0.045403    0.419812   -0.047814
      4          6           0       -0.420460   -0.810530   -0.523550
      5          6           0       -1.776223   -1.128948   -0.489080
      6          6           0       -2.695735   -0.210995    0.026920
      7          6           0       -2.247674    1.021237    0.509580
      8          6           0       -0.889910    1.322781    0.470468
      9          8           0       -4.038839   -0.463959    0.086841
     10          6           0        2.369398   -0.274850    0.583304
     11          8           0        2.485488   -0.299534    1.797911
     12          7           0        2.933194   -1.235935   -0.219758
     13          1           0        1.731976    0.271467   -2.243763
     14          1           0        3.007393    1.358768   -1.633434
     15          1           0        1.369210    1.964040   -1.940793
     16          1           0        1.665670    1.689555    0.486464
     17          1           0        0.284456   -1.540763   -0.910797
     18          1           0       -2.119269   -2.094018   -0.857655
     19          1           0       -2.970172    1.722300    0.914305
     20          1           0       -0.548449    2.280722    0.854238
     21          1           0       -4.204817   -1.353593   -0.261139
     22          1           0        3.041034   -1.095262   -1.212404
     23          1           0        3.564520   -1.884758    0.230710
 ---------------------------------------------------------------------

 SCF Done:  E(UB3LYP) =  -554.995649318     A.U. after   32 cycles

 The electronic state is 2-A.
 Alpha  occ. eigenvalues --  -19.05564 -18.98886 -14.22964 -10.17461 -10.13900
 Alpha  occ. eigenvalues --  -10.09361 -10.08367 -10.08224 -10.07765 -10.07672
 Alpha  occ. eigenvalues --  -10.07614 -10.07255  -0.96609  -0.93941  -0.80398
 Alpha  occ. eigenvalues --   -0.76394  -0.70039  -0.65586  -0.62998  -0.56166
 Alpha  occ. eigenvalues --   -0.53000  -0.51166  -0.47357  -0.45119  -0.43871
 Alpha  occ. eigenvalues --   -0.40637  -0.37623  -0.35716  -0.34646  -0.33519
 Alpha  occ. eigenvalues --   -0.32838  -0.32249  -0.31518  -0.30932  -0.29083
 Alpha  occ. eigenvalues --   -0.28600  -0.26661  -0.24900  -0.24387  -0.23732
 Alpha  occ. eigenvalues --   -0.17589  -0.16274  -0.15941  -0.12654   0.04085
 Alpha virt. eigenvalues --    0.05729   0.07509   0.07802   0.08500   0.08834
 Alpha virt. eigenvalues --    0.09181   0.09736   0.10694   0.11373   0.11838
 Alpha virt. eigenvalues --    0.12627   0.13556   0.14246   0.14608   0.15278

  Beta  occ. eigenvalues --  -19.05519 -18.98879 -14.22898 -10.17457 -10.13899
  Beta  occ. eigenvalues --  -10.09354 -10.08368 -10.08221 -10.07748 -10.07665
  Beta  occ. eigenvalues --  -10.07587 -10.07213  -0.96524  -0.93925  -0.80311
  Beta  occ. eigenvalues --   -0.76371  -0.70005  -0.65556  -0.62953  -0.56093
  Beta  occ. eigenvalues --   -0.52949  -0.51106  -0.47271  -0.45047  -0.43805
  Beta  occ. eigenvalues --   -0.40601  -0.37581  -0.35669  -0.34617  -0.33487
  Beta  occ. eigenvalues --   -0.32794  -0.32218  -0.31478  -0.30901  -0.29041
  Beta  occ. eigenvalues --   -0.28567  -0.26624  -0.24871  -0.24356  -0.23704
  Beta  occ. eigenvalues --   -0.17539  -0.16252  -0.15901  -0.12631
  Beta virt. eigenvalues --    0.06813   0.07477   0.07804   0.07916   0.08918
  Beta virt. eigenvalues --    0.09040   0.09769   0.10139   0.11202   0.11706
  Beta virt. eigenvalues --    0.12358   0.12970   0.13892   0.14567   0.14693

 Mulliken charges and spin densities:
               1          2
     1  C    1.037742  -1.819501
     2  C    0.546014  -0.461611
     3  C   -0.582320   1.560123
     4  C   -0.511938   0.086948
     5  C    0.194201  -0.285089
     6  C    1.726054  -2.142072
     7  C    0.210396  -0.405805
     8  C   -1.122846   0.840744
     9  O   -0.288097   0.051043
    10  C    0.233720  -0.380124
    11  O   -0.350683  -0.002954
    12  N   -0.305314  -0.025648
    13  H   -0.346845   0.515913
    14  H   -0.292306   0.450461
    15  H    0.038410   0.101117
    16  H    0.264072  -0.029336
    17  H    0.244591  -0.060242
    18  H   -1.168549   1.337443
    19  H    0.141855   0.028732
    20  H    0.050534   0.079142
    21  H   -0.182956   0.464056
    22  H   -0.445053   0.705092
    23  H   -0.090682   0.391569
 Sum of Mulliken charges =  -1.00000   1.00000

 Dipole moment (field-independent basis, Debye):
    X=             -1.1517    Y=              5.5919    Z=              2.2376  Tot=              6.1321
 Quadrupole moment (field-independent basis, Debye-Ang):
   XX=           -148.2866   YY=           -102.3293   ZZ=           -109.4745
   XY=             -5.6306   XZ=              1.6560   YZ=             -3.8956

 Summary of Natural Population Analysis:

                                       Natural Population
                Natural  -----------------------------------------------
    Atom  No    Charge         Core      Valence    Rydberg      Total
 -----------------------------------------------------------------------
      C    1   -0.28702      0.99965     2.28150    0.00587     3.28702
      C    2   -0.15333      0.99953     2.14172    0.01209     3.15333
      C    3   -0.02588      0.99948     2.01483    0.01156     3.02588
      C    4   -0.08768      0.99951     2.07852    0.00965     3.08768
      C    5   -0.13188      0.99952     2.12162    0.01074     3.13188
      C    6    0.15671      0.99939     1.83010    0.01380     2.84329
      C    7   -0.12618      0.99952     2.11757    0.00909     3.12618
      C    8   -0.08963      0.99951     2.08226    0.00786     3.08963
      O    9   -0.34214      0.99988     3.33526    0.00701     4.34214
      C   10    0.34664      0.99967     1.62893    0.02476     2.65336
      O   11   -0.32094      0.99987     3.31514    0.00592     4.32094
      N   12   -0.40458      0.99970     2.89574    0.00913     3.90458
      H   13    0.10166      0.00000     0.39663    0.00171     0.39834
      H   14    0.10214      0.00000     0.39647    0.00139     0.39786
      H   15    0.10363      0.00000     0.39549    0.00087     0.39637
      H   16    0.10864      0.00000     0.38951    0.00184     0.39136
      H   17    0.10703      0.00000     0.39072    0.00225     0.39297
      H   18    0.10518      0.00000     0.39190    0.00292     0.39482
      H   19    0.10369      0.00000     0.39549    0.00082     0.39631
      H   20    0.09808      0.00000     0.40100    0.00092     0.40192
      H   21    0.23947      0.00000     0.25188    0.00866     0.26053
      H   22    0.20019      0.00000     0.28942    0.01039     0.29981
      H   23    0.19621      0.00000     0.30123    0.00256     0.30379
 =======================================================================
   * Total *    0.00000     11.99524    31.84294    0.16183    44.00000

 Normal termination of Gaussian 16 at Wed Dec  9 17:40:11 2020.
