 Gaussian 16, Revision A.03,

 -----------------------------------------------------------
 # opt freq B3LYP/6-31G(d) empiricaldispersion=gd3bj scf=xqc
 -----------------------------------------------------------

 -------------------------------
 CID_149216578_JID_1914_neutraal
 -------------------------------
 Symbolic Z-matrix:
 Charge =  0 Multiplicity = 1

 SCF Done:  E(RB3LYP) =  -427.125878445     A.U. after   16 cycles
 SCF Done:  E(RB3LYP) =  -427.184870919     A.U. after   14 cycles
 SCF Done:  E(RB3LYP) =  -427.246229075     A.U. after   14 cycles
 SCF Done:  E(RB3LYP) =  -427.277376278     A.U. after   13 cycles
 SCF Done:  E(RB3LYP) =  -427.292208220     A.U. after   13 cycles
 SCF Done:  E(RB3LYP) =  -427.294823055     A.U. after   13 cycles
 SCF Done:  E(RB3LYP) =  -427.296465067     A.U. after   13 cycles
 SCF Done:  E(RB3LYP) =  -427.296710032     A.U. after   11 cycles
 SCF Done:  E(RB3LYP) =  -427.296777943     A.U. after   10 cycles
 SCF Done:  E(RB3LYP) =  -427.296798081     A.U. after    9 cycles
 SCF Done:  E(RB3LYP) =  -427.296817797     A.U. after    9 cycles
 SCF Done:  E(RB3LYP) =  -427.296827650     A.U. after    9 cycles
 SCF Done:  E(RB3LYP) =  -427.296833233     A.U. after   10 cycles
 SCF Done:  E(RB3LYP) =  -427.296834392     A.U. after    8 cycles
 SCF Done:  E(RB3LYP) =  -427.296834933     A.U. after    8 cycles
 SCF Done:  E(RB3LYP) =  -427.296835111     A.U. after    7 cycles
 Optimization completed.
    -- Stationary point found.
 Normal termination of Gaussian 16 at Tue Dec  8 21:37:41 2020.

 --------------------------------------------------------------------
 #N Geom=AllCheck Guess=TCheck SCRF=Check GenChk RB3LYP/6-31G(d) Freq
 --------------------------------------------------------------------

 Structure from the checkpoint file:  "JID_1914.chk"
 -------------------------------
 CID_149216578_JID_1914_neutraal
 -------------------------------
 Charge =  0 Multiplicity = 1

 SCF Done:  E(RB3LYP) =  -427.296835111     A.U. after    1 cycles

  Exact polarizability: 136.651  -1.908  99.032  -6.389   2.945  92.843
 Approx polarizability: 182.307  -6.503 154.386 -34.975  11.860 198.904

                      1                      2                      3
                      A                      A                      A
 Frequencies --     70.7335               100.9503               128.0026
 Red. masses --      3.4165                 2.9952                 3.3741
 Frc consts  --      0.0101                 0.0180                 0.0326
 IR Inten    --      1.3223                 6.9317                 2.3741

                      4                      5                      6
                      A                      A                      A
 Frequencies --    166.7665               275.2246               319.3319
 Red. masses --      3.5970                 3.2835                 3.5220
 Frc consts  --      0.0589                 0.1465                 0.2116
 IR Inten    --     29.8475                 4.6958                15.6664

                      7                      8                      9
                      A                      A                      A
 Frequencies --    339.7348               363.9794               415.9063
 Red. masses --      2.9498                 2.5375                 2.8088
 Frc consts  --      0.2006                 0.1981                 0.2863
 IR Inten    --     19.7613                 3.1341                10.5016

                     10                     11                     12
                      A                      A                      A
 Frequencies --    440.7102               505.3408               627.7323
 Red. masses --      3.0639                 3.4136                 4.5601
 Frc consts  --      0.3506                 0.5136                 1.0587
 IR Inten    --     12.9202                10.3482                17.1822

                     13                     14                     15
                      A                      A                      A
 Frequencies --    661.5203               689.9430               715.2857
 Red. masses --      3.9399                 3.2486                 4.0788
 Frc consts  --      1.0158                 0.9111                 1.2295
 IR Inten    --     12.8671                 8.7708                29.5129

                     16                     17                     18
                      A                      A                      A
 Frequencies --    755.8710               771.2476               788.2132
 Red. masses --      2.2110                 2.3559                 3.0373
 Frc consts  --      0.7443                 0.8256                 1.1118
 IR Inten    --      5.7419                12.1492                 2.8644

                     19                     20                     21
                      A                      A                      A
 Frequencies --    836.8109               887.6044               901.7268
 Red. masses --      2.3594                 2.4522                 1.7916
 Frc consts  --      0.9734                 1.1383                 0.8583
 IR Inten    --     17.1607                 2.1614                 1.2127

                     22                     23                     24
                      A                      A                      A
 Frequencies --    914.0046               962.2226               972.4965
 Red. masses --      2.3638                 2.7389                 1.6685
 Frc consts  --      1.1635                 1.4941                 0.9297
 IR Inten    --      7.9518                 3.9407                 0.2571

                     25                     26                     27
                      A                      A                      A
 Frequencies --    989.3696              1010.8606              1018.2803
 Red. masses --      1.3517                 1.2670                 1.2477
 Frc consts  --      0.7795                 0.7628                 0.7622
 IR Inten    --     25.4656                 9.2399                18.1044

                     28                     29                     30
                      A                      A                      A
 Frequencies --   1054.3683              1066.9991              1072.4763
 Red. masses --      2.1411                 1.6438                 1.4185
 Frc consts  --      1.4024                 1.1026                 0.9613
 IR Inten    --     12.7445                 9.4511                12.1395

                     31                     32                     33
                      A                      A                      A
 Frequencies --   1083.3848              1101.4135              1105.5747
 Red. masses --      1.2403                 1.6026                 1.5367
 Frc consts  --      0.8577                 1.1455                 1.1067
 IR Inten    --      3.1489                 3.7287                 0.2588

                     34                     35                     36
                      A                      A                      A
 Frequencies --   1122.8803              1138.5886              1148.8439
 Red. masses --      2.3856                 1.5326                 1.6047
 Frc consts  --      1.7722                 1.1706                 1.2479
 IR Inten    --      2.7962                 2.9234                 2.6731

                     37                     38                     39
                      A                      A                      A
 Frequencies --   1176.6588              1188.9692              1197.8383
 Red. masses --      1.6212                 1.5038                 1.5167
 Frc consts  --      1.3225                 1.2525                 1.2822
 IR Inten    --      3.8120                 1.5960                 4.7667

                     40                     41                     42
                      A                      A                      A
 Frequencies --   1202.8538              1232.5429              1243.1828
 Red. masses --      1.3835                 1.7947                 1.3208
 Frc consts  --      1.1794                 1.6064                 1.2027
 IR Inten    --      0.3191                 1.5518                 2.2070

                     43                     44                     45
                      A                      A                      A
 Frequencies --   1267.2411              1293.0238              1314.5962
 Red. masses --      1.4247                 1.3664                 1.5289
 Frc consts  --      1.3480                 1.3459                 1.5568
 IR Inten    --      1.2526                 3.4385                 5.3653

                     46                     47                     48
                      A                      A                      A
 Frequencies --   1355.8285              1362.2340              1382.1635
 Red. masses --      1.7373                 1.7679                 1.2490
 Frc consts  --      1.8816                 1.9329                 1.4058
 IR Inten    --      1.2584                 2.1731                11.4316

                     49                     50                     51
                      A                      A                      A
 Frequencies --   1405.5599              1469.4818              1481.3051
 Red. masses --      1.2668                 1.1602                 1.2273
 Frc consts  --      1.4746                 1.4761                 1.5867
 IR Inten    --     12.7669                 9.8868                 1.9187

                     52                     53                     54
                      A                      A                      A
 Frequencies --   1507.5545              1512.7614              1526.8964
 Red. masses --      1.2116                 1.2931                 1.1126
 Frc consts  --      1.6224                 1.7434                 1.5283
 IR Inten    --      2.2769                 2.0925                 2.9197

                     55                     56                     57
                      A                      A                      A
 Frequencies --   1529.3698              2974.5457              3033.6671
 Red. masses --      1.1056                 1.0851                 1.0820
 Frc consts  --      1.5236                 5.6565                 5.8672
 IR Inten    --      1.3677                71.1022                14.5932

                     58                     59                     60
                      A                      A                      A
 Frequencies --   3057.8435              3060.4740              3078.0200
 Red. masses --      1.0623                 1.0793                 1.0839
 Frc consts  --      5.8524                 5.9563                 6.0504
 IR Inten    --     45.9513                22.6464                18.0277

                     61                     62                     63
                      A                      A                      A
 Frequencies --   3105.1028              3112.3517              3124.3056
 Red. masses --      1.1062                 1.0851                 1.0571
 Frc consts  --      6.2838                 6.1931                 6.0798
 IR Inten    --     28.4268                21.8606                21.9704

                     64                     65                     66
                      A                      A                      A
 Frequencies --   3127.3457              3146.9162              3164.9183
 Red. masses --      1.0545                 1.0886                 1.0906
 Frc consts  --      6.0767                 6.3515                 6.4364
 IR Inten    --     26.4297                20.4375                23.8631

                     67                     68                     69
                      A                      A                      A
 Frequencies --   3179.5043              3183.7481              3206.1757
 Red. masses --      1.1122                 1.0938                 1.1139
 Frc consts  --      6.6246                 6.5324                 6.7462
 IR Inten    --     16.5234                11.9183                25.5794

 - Thermochemistry -
 -------------------
 Temperature   298.150 Kelvin.  Pressure   1.00000 Atm.
 Atom     1 has atomic number  6 and mass  12.00000

 Molecular mass:   146.10955 amu.
 Principal axes and moments of inertia in atomic units:
                           1         2         3
     Eigenvalues --   654.161642706.032752975.29089
           X            0.99999   0.00151   0.00359
           Y           -0.00157   0.99987   0.01605
           Z           -0.00357  -0.01605   0.99986
 This molecule is an asymmetric top.
 Rotational symmetry number  1.
 Warning -- assumption of classical behavior for rotation
           may cause significant error
 Rotational temperatures (Kelvin)      0.13240     0.03201     0.02911
 Rotational constants (GHZ):           2.75886     0.66693     0.60658
 Zero-point vibrational energy     572588.8 (Joules/Mol)
                                  136.85202 (Kcal/Mol)
 Warning -- explicit consideration of  11 degrees of freedom as
           vibrations may cause significant error
 Vibrational temperatures:    101.77   145.24   184.17   239.94   395.99
          (Kelvin)            459.45   488.80   523.69   598.40   634.08
                              727.07   903.17   951.78   992.67  1029.14
                             1087.53  1109.65  1134.06  1203.98  1277.06
                             1297.38  1315.05  1384.42  1399.21  1423.48
                             1454.40  1465.08  1517.00  1535.17  1543.05
                             1558.75  1584.69  1590.68  1615.57  1638.18
                             1652.93  1692.95  1710.66  1723.42  1730.64
                             1773.35  1788.66  1823.28  1860.37  1891.41
                             1950.73  1959.95  1988.63  2022.29  2114.26
                             2131.27  2169.03  2176.53  2196.86  2200.42
                             4279.71  4364.77  4399.55  4403.34  4428.58
                             4467.55  4477.98  4495.18  4499.55  4527.71
                             4553.61  4574.60  4580.70  4612.97

 Zero-point correction=                           0.218088 (Hartree/Particle)
 Thermal correction to Energy=                    0.227698
 Thermal correction to Enthalpy=                  0.228642
 Thermal correction to Gibbs Free Energy=         0.183187
 Sum of electronic and zero-point Energies=           -427.078748
 Sum of electronic and thermal Energies=              -427.069137
 Sum of electronic and thermal Enthalpies=            -427.068193
 Sum of electronic and thermal Free Energies=         -427.113648

                     E (Thermal)             CV                S
                      KCal/Mol        Cal/Mol-Kelvin    Cal/Mol-Kelvin
 Total                  142.883             38.993             95.668
 Electronic               0.000              0.000              0.000
 Translational            0.889              2.981             40.848
 Rotational               0.889              2.981             30.044
 Vibrational            141.105             33.032             24.776
 Vibration     1          0.598              1.968              4.133
 Vibration     2          0.604              1.948              3.436
 Vibration     3          0.611              1.925              2.976
 Vibration     4          0.624              1.883              2.472
 Vibration     5          0.677              1.719              1.563
 Vibration     6          0.705              1.637              1.314
 Vibration     7          0.720              1.596              1.213
 Vibration     8          0.738              1.546              1.105
 Vibration     9          0.779              1.436              0.906
 Vibration    10          0.801              1.381              0.824
 Vibration    11          0.861              1.238              0.645

 Optimization completed.
    -- Stationary point found.
 Normal termination of Gaussian 16 at Tue Dec  8 21:43:41 2020.

 ----------------------------------------------------------------------
 # B3LYP/6-311++G(d,p) empiricaldispersion=gd3bj scf=xqc pop=npa geom=c
 heck
 ----------------------------------------------------------------------

 ---------------------------------------
 CID_149216578_JID_1914_Energie_neutraal
 ---------------------------------------
 Structure from the checkpoint file:  "JID_1914.chk"
 Charge =  0 Multiplicity = 1

 SCF Done:  E(RB3LYP) =  -427.407893452     A.U. after   15 cycles
 Normal termination of Gaussian 16 at Tue Dec  8 21:46:25 2020.

 ----------------------------------------------------------------------
 # B3LYP/6-311++G(d,p) empiricaldispersion=gd3bj scf=xqc pop=npa geom=c
 heck
 ----------------------------------------------------------------------

 -------------------------------------
 CID_149216578_JID_1914_Energie_kation
 -------------------------------------
 Structure from the checkpoint file:  "JID_1914.chk"
 Charge =  1 Multiplicity = 2

 SCF Done:  E(UB3LYP) =  -427.135756426     A.U. after   25 cycles
 Normal termination of Gaussian 16 at Tue Dec  8 21:52:09 2020.
 Gaussian 16:  ES64L-G16RevA.03 25-Dec-2016

 ----------------------------------------------------------------------
 # B3LYP/6-311++G(d,p) empiricaldispersion=gd3bj scf=xqc pop=npa geom=c
 heck
 ----------------------------------------------------------------------

 ------------------------------------
 CID_149216578_JID_1914_Energie_anion
 ------------------------------------
 Structure from the checkpoint file:  "JID_1914.chk"
 Charge = -1 Multiplicity = 2

                         Standard orientation:
 ---------------------------------------------------------------------
 Center     Atomic      Atomic             Coordinates (Angstroms)
 Number     Number       Type             X           Y           Z
 ---------------------------------------------------------------------
      1          6           0        2.876109   -1.129737    0.583293
      2          6           0        2.565061   -0.290313   -0.634974
      3          6           0        1.459272   -1.120906    0.061711
      4          6           0        0.621919   -0.029195    0.744780
      5          6           0        0.680266    1.064119   -0.323123
      6          6           0        2.193625    1.232842   -0.499052
      7          6           0       -0.498791    1.006817    0.608397
      8          6           0       -1.865280    0.828253   -0.001594
      9          6           0       -2.044089   -0.402282   -0.849799
     10          6           0       -3.074100    0.100153    0.654804
     11          6           0       -3.261299   -1.103290   -0.275272
     12          1           0        3.080754   -0.634926    1.530789
     13          1           0        3.472566   -2.025534    0.423905
     14          1           0        2.989612   -0.617142   -1.581577
     15          1           0        1.039977   -2.014665   -0.390579
     16          1           0        1.170709    0.294580    1.631800
     17          1           0        0.322011    0.617669   -1.256068
     18          1           0        2.482957    1.790437   -1.397096
     19          1           0        2.680004    1.699928    0.364170
     20          1           0       -0.543142    1.636981    1.495747
     21          1           0       -2.237231    1.800628   -0.331385
     22          1           0       -1.215077   -1.048819   -0.530231
     23          1           0       -3.910815    0.752324    0.354829
     24          1           0       -2.994413   -2.125135   -0.006659
     25          1           0       -4.254066   -1.065088   -0.722665
 ---------------------------------------------------------------------

 SCF Done:  E(UB3LYP) =  -427.419720334     A.U. after   28 cycles

 The electronic state is 2-A.
 Alpha  occ. eigenvalues --  -10.07450 -10.07224 -10.07083 -10.06922 -10.06831
 Alpha  occ. eigenvalues --  -10.04427 -10.04067 -10.01861 -10.00641  -9.98882
 Alpha  occ. eigenvalues --   -9.98532  -0.78330  -0.71936  -0.68365  -0.61028
 Alpha  occ. eigenvalues --   -0.54692  -0.50012  -0.47284  -0.45522  -0.43582
 Alpha  occ. eigenvalues --   -0.42680  -0.39137  -0.36750  -0.33109  -0.32442
 Alpha  occ. eigenvalues --   -0.30639  -0.28952  -0.26610  -0.25799  -0.24935
 Alpha  occ. eigenvalues --   -0.24124  -0.22281  -0.21218  -0.18749  -0.18078
 Alpha  occ. eigenvalues --   -0.17333  -0.15017  -0.12224  -0.09200  -0.02757
 Alpha  occ. eigenvalues --    0.04852
 Alpha virt. eigenvalues --    0.07614   0.09052   0.09329   0.10492   0.11446
 Alpha virt. eigenvalues --    0.11683   0.11804   0.12393   0.13406   0.13880
 Alpha virt. eigenvalues --    0.14254   0.15256   0.15691   0.16409   0.16741

  Beta  occ. eigenvalues --  -10.07447 -10.07224 -10.07083 -10.06922 -10.06808
  Beta  occ. eigenvalues --  -10.04427 -10.04058 -10.01675 -10.00457  -9.98415
  Beta  occ. eigenvalues --   -9.98195  -0.78313  -0.71763  -0.67554  -0.60988
  Beta  occ. eigenvalues --   -0.54387  -0.49851  -0.47192  -0.45370  -0.42665
  Beta  occ. eigenvalues --   -0.42419  -0.38985  -0.36620  -0.33025  -0.32192
  Beta  occ. eigenvalues --   -0.30625  -0.28766  -0.26358  -0.25501  -0.24436
  Beta  occ. eigenvalues --   -0.23662  -0.22211  -0.21061  -0.18590  -0.17755
  Beta  occ. eigenvalues --   -0.16995  -0.14522  -0.11765  -0.09074   0.00119
  Beta virt. eigenvalues --    0.07525   0.08734   0.09210   0.10391   0.10856
  Beta virt. eigenvalues --    0.11503   0.11674   0.12275   0.12414   0.13628
  Beta virt. eigenvalues --    0.14052   0.14711   0.15319   0.15691   0.16413

 Mulliken charges and spin densities:
               1          2
     1  C   -0.589584  -0.025863
     2  C    0.157315  -0.034776
     3  C   -0.094484  -0.062268
     4  C   -0.430158   0.034673
     5  C    0.113665  -0.039685
     6  C   -0.518427  -0.024769
     7  C    0.368147  -0.138957
     8  C   -0.727974  -0.185079
     9  C    0.179678   0.663135
    10  C    0.552942   0.058807
    11  C   -0.877370  -0.116629
    12  H    0.102985   0.019329
    13  H    0.114100   0.005756
    14  H    0.153466   0.021809
    15  H    0.184525   0.037387
    16  H    0.121247  -0.018649
    17  H    0.122838   0.008901
    18  H    0.092860  -0.000387
    19  H    0.132737   0.020164
    20  H   -0.125044   0.320564
    21  H    0.038894   0.116616
    22  H   -0.061711   0.079950
    23  H   -0.137796   0.195550
    24  H    0.080425   0.029977
    25  H    0.046721   0.034447
 Sum of Mulliken charges =  -1.00000   1.00000

 Dipole moment (field-independent basis, Debye):
    X=              9.3429    Y=             -0.2376    Z=             -0.8018  Tot=              9.3802
 Quadrupole moment (field-independent basis, Debye-Ang):
   XX=           -112.9653   YY=            -80.4841   ZZ=            -90.2517
   XY=             -0.5144   XZ=              5.5684   YZ=             -1.9580

 Summary of Natural Population Analysis:

                                       Natural Population
                Natural  -----------------------------------------------
    Atom  No    Charge         Core      Valence    Rydberg      Total
 -----------------------------------------------------------------------
      C    1   -0.19968      0.99960     2.19058    0.00950     3.19968
      C    2   -0.11954      0.99961     2.11024    0.00969     3.11954
      C    3   -0.10168      0.99954     2.09111    0.01103     3.10168
      C    4   -0.12694      0.99948     2.11531    0.01214     3.12694
      C    5   -0.12069      0.99947     2.10965    0.01157     3.12069
      C    6   -0.18669      0.99961     2.17833    0.00876     3.18669
      C    7   -0.06373      0.99950     2.04900    0.01523     3.06373
      C    8   -0.11189      0.99955     2.09785    0.01449     3.11189
      C    9   -0.01728      0.99947     2.00002    0.01779     3.01728
      C   10   -0.07667      0.99950     2.05870    0.01847     3.07667
      C   11   -0.18282      0.99962     2.17333    0.00987     3.18282
      H   12    0.09811      0.00000     0.40102    0.00087     0.40189
      H   13    0.09830      0.00000     0.40092    0.00078     0.40170
      H   14    0.09670      0.00000     0.40161    0.00168     0.40330
      H   15    0.10939      0.00000     0.38921    0.00140     0.39061
      H   16    0.08406      0.00000     0.41403    0.00191     0.41594
      H   17    0.10025      0.00000     0.39806    0.00170     0.39975
      H   18    0.09453      0.00000     0.40448    0.00099     0.40547
      H   19    0.09481      0.00000     0.40422    0.00097     0.40519
      H   20    0.10937      0.00000     0.38856    0.00207     0.39063
      H   21    0.10339      0.00000     0.39525    0.00136     0.39661
      H   22    0.06942      0.00000     0.42821    0.00236     0.43058
      H   23    0.06721      0.00000     0.43031    0.00248     0.43279
      H   24    0.09047      0.00000     0.40834    0.00120     0.40953
      H   25    0.09160      0.00000     0.40726    0.00114     0.40840
 =======================================================================
   * Total *    0.00000     10.99495    28.84559    0.15946    40.00000

 Normal termination of Gaussian 16 at Tue Dec  8 21:58:44 2020.
