 Gaussian 16, Revision A.03,

 -----------------------------------------------------------
 # opt freq B3LYP/6-31G(d) empiricaldispersion=gd3bj scf=xqc
 -----------------------------------------------------------

 -------------------------------
 CID_19747987_JID_10104_neutraal
 -------------------------------
 Symbolic Z-matrix:
 Charge =  0 Multiplicity = 1

 SCF Done:  E(RB3LYP) =  -917.626395919     A.U. after   15 cycles
 SCF Done:  E(RB3LYP) =  -917.632062425     A.U. after   13 cycles
 SCF Done:  E(RB3LYP) =  -917.633164696     A.U. after   13 cycles
 SCF Done:  E(RB3LYP) =  -917.634063081     A.U. after   13 cycles
 SCF Done:  E(RB3LYP) =  -917.634467581     A.U. after   12 cycles
 SCF Done:  E(RB3LYP) =  -917.634267030     A.U. after   13 cycles
 SCF Done:  E(RB3LYP) =  -917.634788668     A.U. after   12 cycles
 SCF Done:  E(RB3LYP) =  -917.635006983     A.U. after   12 cycles
 SCF Done:  E(RB3LYP) =  -917.635070165     A.U. after   11 cycles
 SCF Done:  E(RB3LYP) =  -917.635115788     A.U. after   10 cycles
 SCF Done:  E(RB3LYP) =  -917.635190268     A.U. after    8 cycles
 SCF Done:  E(RB3LYP) =  -917.635190292     A.U. after    7 cycles
 SCF Done:  E(RB3LYP) =  -917.635190333     A.U. after    7 cycles
 SCF Done:  E(RB3LYP) =  -917.635190340     A.U. after    6 cycles
 Optimization completed.
    -- Stationary point found.
 Normal termination of Gaussian 16 at Mon Dec 14 13:30:21 2020.

 --------------------------------------------------------------------
 #N Geom=AllCheck Guess=TCheck SCRF=Check GenChk RB3LYP/6-31G(d) Freq
 --------------------------------------------------------------------

 Structure from the checkpoint file:  "JID_10104.chk"
 -------------------------------
 CID_19747987_JID_10104_neutraal
 -------------------------------
 Charge =  0 Multiplicity = 1

 SCF Done:  E(RB3LYP) =  -917.635190340     A.U. after    1 cycles

  Exact polarizability: 178.785  31.142 192.815  21.167 -28.967 144.279
 Approx polarizability: 232.736  52.871 326.971  37.781 -71.995 252.094

                      1                      2                      3
                      A                      A                      A
 Frequencies --     17.3017                20.7743                53.0661
 Red. masses --      4.3822                 6.2808                 3.6313
 Frc consts  --      0.0008                 0.0016                 0.0060
 IR Inten    --      0.3430                 0.0825                 0.3323

                      4                      5                      6
                      A                      A                      A
 Frequencies --     60.5519                66.4261                83.6599
 Red. masses --      4.6474                 4.8328                 4.4281
 Frc consts  --      0.0100                 0.0126                 0.0183
 IR Inten    --      0.1913                 0.4844                 0.3442

                      7                      8                      9
                      A                      A                      A
 Frequencies --     91.6078               123.1013               136.4991
 Red. masses --      5.7039                 4.4602                 5.5246
 Frc consts  --      0.0282                 0.0398                 0.0606
 IR Inten    --      3.0022                 0.2895                 0.2161

                     10                     11                     12
                      A                      A                      A
 Frequencies --    158.0267               206.5281               228.8904
 Red. masses --      2.6719                 4.4865                 3.1109
 Frc consts  --      0.0393                 0.1128                 0.0960
 IR Inten    --      3.1535                 0.4354                 0.3512

                     13                     14                     15
                      A                      A                      A
 Frequencies --    258.2089               285.1314               321.9960
 Red. masses --      5.0422                 2.9400                 5.8872
 Frc consts  --      0.1981                 0.1408                 0.3596
 IR Inten    --      1.2736                 3.2931                 2.9015

                     16                     17                     18
                      A                      A                      A
 Frequencies --    344.1488               350.9080               371.4229
 Red. masses --      2.6756                 2.2942                 4.7988
 Frc consts  --      0.1867                 0.1664                 0.3901
 IR Inten    --      3.7515                 1.3902                 2.9134

                     19                     20                     21
                      A                      A                      A
 Frequencies --    376.7148               417.6067               426.0720
 Red. masses --      2.8549                 2.9676                 1.1500
 Frc consts  --      0.2387                 0.3049                 0.1230
 IR Inten    --     17.1151                 0.0696               127.1752

                     22                     23                     24
                      A                      A                      A
 Frequencies --    434.3357               456.0188               506.8952
 Red. masses --      3.7991                 4.2913                 2.7746
 Frc consts  --      0.4223                 0.5258                 0.4200
 IR Inten    --      8.7413                12.0558                 1.3493

                     25                     26                     27
                      A                      A                      A
 Frequencies --    508.5766               536.1809               568.4547
 Red. masses --      4.0133                 4.4272                 3.5197
 Frc consts  --      0.6116                 0.7499                 0.6701
 IR Inten    --      5.1912                 5.5199                 2.2326

                     28                     29                     30
                      A                      A                      A
 Frequencies --    599.0820               638.3756               648.7542
 Red. masses --      2.7391                 6.2586                 5.5581
 Frc consts  --      0.5792                 1.5027                 1.3783
 IR Inten    --      4.2240                 0.0292                 6.0771

                     31                     32                     33
                      A                      A                      A
 Frequencies --    713.0679               746.4699               753.6134
 Red. masses --      1.8135                 2.4834                 8.0523
 Frc consts  --      0.5433                 0.8153                 2.6944
 IR Inten    --     29.9902                50.5511                34.2107

                     34                     35                     36
                      A                      A                      A
 Frequencies --    766.9841               781.2278               810.1309
 Red. masses --      1.8048                 3.3782                 3.2678
 Frc consts  --      0.6255                 1.2147                 1.2636
 IR Inten    --     16.0069                 0.4319                 4.3213

                     37                     38                     39
                      A                      A                      A
 Frequencies --    854.1638               858.1167               867.2882
 Red. masses --      1.6893                 1.2722                 2.3465
 Frc consts  --      0.7262                 0.5519                 1.0399
 IR Inten    --      8.0600                 0.2664                 5.3789

                     40                     41                     42
                      A                      A                      A
 Frequencies --    895.2131               927.4447               947.3199
 Red. masses --      1.9593                 1.6623                 2.5143
 Frc consts  --      0.9251                 0.8425                 1.3294
 IR Inten    --      3.6658                 1.4109                13.8826

                     43                     44                     45
                      A                      A                      A
 Frequencies --    964.7618               971.2258               978.1761
 Red. masses --      1.3697                 2.3219                 1.6153
 Frc consts  --      0.7511                 1.2904                 0.9106
 IR Inten    --      0.6850                 1.4233                21.2907

                     46                     47                     48
                      A                      A                      A
 Frequencies --    981.0981               990.9862              1003.4782
 Red. masses --      2.6320                 1.2550                 2.5782
 Frc consts  --      1.4927                 0.7261                 1.5296
 IR Inten    --     30.9931                 0.1006                63.6056

                     49                     50                     51
                      A                      A                      A
 Frequencies --   1015.8958              1023.7270              1032.4014
 Red. masses --      3.3848                 6.1289                 2.5779
 Frc consts  --      2.0582                 3.7845                 1.6189
 IR Inten    --    112.0279                 0.6201                30.1239

                     52                     53                     54
                      A                      A                      A
 Frequencies --   1059.6714              1064.5444              1080.0201
 Red. masses --      2.0822                 1.9003                 2.0958
 Frc consts  --      1.3775                 1.2688                 1.4403
 IR Inten    --      2.2300                 2.8815                 5.8169

                     55                     56                     57
                      A                      A                      A
 Frequencies --   1084.9371              1125.0834              1138.0609
 Red. masses --      2.1143                 1.6475                 2.9410
 Frc consts  --      1.4663                 1.2287                 2.2442
 IR Inten    --      7.1755                34.7043               137.6406

                     58                     59                     60
                      A                      A                      A
 Frequencies --   1193.3689              1215.5149              1221.9090
 Red. masses --      1.0976                 1.1736                 1.4780
 Frc consts  --      0.9210                 1.0217                 1.3002
 IR Inten    --      0.0130                 8.4791                23.7606

                     61                     62                     63
                      A                      A                      A
 Frequencies --   1227.3280              1232.2757              1234.5787
 Red. masses --      1.6012                 1.8451                 1.6867
 Frc consts  --      1.4211                 1.6508                 1.5147
 IR Inten    --     77.6039                27.5238                37.0631

                     64                     65                     66
                      A                      A                      A
 Frequencies --   1243.2701              1271.4332              1297.3921
 Red. masses --      1.6144                 1.5357                 1.3045
 Frc consts  --      1.4702                 1.4626                 1.2937
 IR Inten    --     15.6539               176.7521                35.9411

                     67                     68                     69
                      A                      A                      A
 Frequencies --   1300.5219              1313.2741              1358.5395
 Red. masses --      1.3894                 1.6098                 1.4542
 Frc consts  --      1.3846                 1.6359                 1.5813
 IR Inten    --     29.2471                42.2493                 3.4807

                     70                     71                     72
                      A                      A                      A
 Frequencies --   1360.6410              1369.2061              1387.9335
 Red. masses --      2.3688                 1.6206                 1.4876
 Frc consts  --      2.5839                 1.7901                 1.6884
 IR Inten    --      2.7717                 0.8447                 4.6397

                     73                     74                     75
                      A                      A                      A
 Frequencies --   1389.4462              1406.3438              1417.3098
 Red. masses --      1.5299                 1.2940                 1.5718
 Frc consts  --      1.7402                 1.5079                 1.8603
 IR Inten    --     11.3368                17.4774                 5.9150

                     76                     77                     78
                      A                      A                      A
 Frequencies --   1437.8369              1469.8861              1472.5082
 Red. masses --      1.7025                 1.7781                 2.7473
 Frc consts  --      2.0738                 2.2635                 3.5097
 IR Inten    --      0.1586                15.9531               262.6282

                     79                     80                     81
                      A                      A                      A
 Frequencies --   1499.6084              1503.1955              1512.7737
 Red. masses --      1.0942                 1.9491                 1.1818
 Frc consts  --      1.4498                 2.5948                 1.5935
 IR Inten    --      2.3443                 3.5530                 7.5442

                     82                     83                     84
                      A                      A                      A
 Frequencies --   1515.2458              1523.5839              1533.2375
 Red. masses --      1.0929                 1.1040                 1.1203
 Frc consts  --      1.4784                 1.5100                 1.5517
 IR Inten    --      5.5242                28.2556                 9.3737

                     85                     86                     87
                      A                      A                      A
 Frequencies --   1549.7796              1647.9912              1669.6647
 Red. masses --      2.2307                 5.5314                 5.6236
 Frc consts  --      3.1566                 8.8511                 9.2368
 IR Inten    --     11.0089                 0.4666                 2.6652

                     88                     89                     90
                      A                      A                      A
 Frequencies --   1696.9605              1723.9209              1803.4505
 Red. masses --      6.4107                 6.8628                10.8447
 Frc consts  --     10.8767                12.0166                20.7815
 IR Inten    --      0.7969                 8.0565               274.7899

                     91                     92                     93
                      A                      A                      A
 Frequencies --   3013.2572              3015.2484              3026.6973
 Red. masses --      1.0742                 1.0745                 1.0639
 Frc consts  --      5.7468                 5.7560                 5.7422
 IR Inten    --     16.2449                23.1118                44.6462

                     94                     95                     96
                      A                      A                      A
 Frequencies --   3049.0648              3064.7896              3090.3853
 Red. masses --      1.0605                 1.0975                 1.0898
 Frc consts  --      5.8089                 6.0735                 6.1325
 IR Inten    --     29.6637                35.5025                20.9547

                     97                     98                     99
                      A                      A                      A
 Frequencies --   3096.3053              3123.4813              3144.7295
 Red. masses --      1.0733                 1.0894                 1.0872
 Frc consts  --      6.0626                 6.2623                 6.3347
 IR Inten    --     59.6457                16.0931                 2.9012

                    100                    101                    102
                      A                      A                      A
 Frequencies --   3156.6087              3167.0480              3177.2511
 Red. masses --      1.1067                 1.0897                 1.0850
 Frc consts  --      6.4974                 6.4396                 6.4535
 IR Inten    --      9.4037                28.0238                 3.8428

                    103                    104                    105
                      A                      A                      A
 Frequencies --   3182.2582              3188.8913              3191.3634
 Red. masses --      1.0872                 1.0904                 1.0906
 Frc consts  --      6.4871                 6.5329                 6.5446
 IR Inten    --      2.7423                 3.3000                13.7211

                    106                    107                    108
                      A                      A                      A
 Frequencies --   3199.1857              3210.9925              3754.7987
 Red. masses --      1.0941                 1.0979                 1.0676
 Frc consts  --      6.5979                 6.6692                 8.8683
 IR Inten    --     38.0718                15.3208                87.4497

 - Thermochemistry -
 -------------------
 Temperature   298.150 Kelvin.  Pressure   1.00000 Atm.
 Atom     1 has atomic number  6 and mass  12.00000

 Molecular mass:   274.13174 amu.
 Principal axes and moments of inertia in atomic units:
                           1         2         3
     Eigenvalues --  3486.159568068.274039470.08785
           X            0.99997  -0.00159   0.00740
           Y            0.00179   0.99965  -0.02642
           Z           -0.00736   0.02643   0.99962
 This molecule is an asymmetric top.
 Rotational symmetry number  1.
 Warning -- assumption of classical behavior for rotation
           may cause significant error
 Rotational temperatures (Kelvin)      0.02485     0.01074     0.00915
 Rotational constants (GHZ):           0.51769     0.22368     0.19057
 Zero-point vibrational energy     828908.7 (Joules/Mol)
                                  198.11393 (Kcal/Mol)
 Warning -- explicit consideration of  28 degrees of freedom as
           vibrations may cause significant error
 Vibrational temperatures:     24.89    29.89    76.35    87.12    95.57
          (Kelvin)            120.37   131.80   177.12   196.39   227.37
                              297.15   329.32   371.51   410.24   463.28
                              495.15   504.88   534.39   542.01   600.84
                              613.02   624.91   656.11   729.31   731.73
                              771.44   817.88   861.95   918.48   933.41
                             1025.95  1074.00  1084.28  1103.52  1124.01
                             1165.60  1228.95  1234.64  1247.83  1288.01
                             1334.39  1362.98  1388.08  1397.38  1407.38
                             1411.58  1425.81  1443.78  1461.65  1472.91
                             1485.40  1524.63  1531.64  1553.91  1560.98
                             1618.74  1637.42  1716.99  1748.85  1758.05
                             1765.85  1772.97  1776.28  1788.79  1829.31
                             1866.66  1871.16  1889.51  1954.64  1957.66
                             1969.98  1996.93  1999.10  2023.42  2039.19
                             2068.73  2114.84  2118.61  2157.60  2162.76
                             2176.54  2180.10  2192.10  2205.99  2229.79
                             2371.09  2402.28  2441.55  2480.34  2594.76
                             4335.41  4338.27  4354.74  4386.92  4409.55
                             4446.38  4454.89  4493.99  4524.56  4541.66
                             4556.68  4571.36  4578.56  4588.10  4591.66
                             4602.91  4619.90  5402.32

 Zero-point correction=                           0.315715 (Hartree/Particle)
 Thermal correction to Energy=                    0.334077
 Thermal correction to Enthalpy=                  0.335021
 Thermal correction to Gibbs Free Energy=         0.266810
 Sum of electronic and zero-point Energies=           -917.319476
 Sum of electronic and thermal Energies=              -917.301114
 Sum of electronic and thermal Enthalpies=            -917.300169
 Sum of electronic and thermal Free Energies=         -917.368380

                     E (Thermal)             CV                S
                      KCal/Mol        Cal/Mol-Kelvin    Cal/Mol-Kelvin
 Total                  209.636             69.865            143.561
 Electronic               0.000              0.000              0.000
 Translational            0.889              2.981             42.724
 Rotational               0.889              2.981             33.943
 Vibrational            207.859             63.904             66.895
 Vibration     1          0.593              1.986              6.922
 Vibration     2          0.593              1.986              6.559
 Vibration     3          0.596              1.976              4.700
 Vibration     4          0.597              1.973              4.439
 Vibration     5          0.598              1.970              4.257
 Vibration     6          0.601              1.960              3.803
 Vibration     7          0.602              1.955              3.625
 Vibration     8          0.610              1.930              3.051
 Vibration     9          0.614              1.917              2.852
 Vibration    10          0.621              1.894              2.573
 Vibration    11          0.641              1.831              2.074
 Vibration    12          0.652              1.797              1.888
 Vibration    13          0.667              1.749              1.674
 Vibration    14          0.683              1.701              1.503
 Vibration    15          0.707              1.631              1.300
 Vibration    16          0.723              1.587              1.193
 Vibration    17          0.728              1.573              1.162
 Vibration    18          0.743              1.531              1.074
 Vibration    19          0.747              1.520              1.052
 Vibration    20          0.781              1.432              0.900
 Vibration    21          0.788              1.414              0.872
 Vibration    22          0.795              1.395              0.845
 Vibration    23          0.814              1.348              0.778
 Vibration    24          0.862              1.235              0.641
 Vibration    25          0.864              1.231              0.637
 Vibration    26          0.891              1.170              0.574
 Vibration    27          0.924              1.099              0.507
 Vibration    28          0.957              1.034              0.451

 Optimization completed.
    -- Stationary point found.
 Normal termination of Gaussian 16 at Mon Dec 14 13:49:57 2020.

 ----------------------------------------------------------------------
 # B3LYP/6-311++G(d,p) empiricaldispersion=gd3bj scf=xqc pop=npa geom=c
 heck
 ----------------------------------------------------------------------

 ---------------------------------------
 CID_19747987_JID_10104_Energie_neutraal
 ---------------------------------------
 Structure from the checkpoint file:  "JID_10104.chk"
 Charge =  0 Multiplicity = 1

 SCF Done:  E(RB3LYP) =  -917.895436645     A.U. after   15 cycles
 Normal termination of Gaussian 16 at Mon Dec 14 13:57:22 2020.

 ----------------------------------------------------------------------
 # B3LYP/6-311++G(d,p) empiricaldispersion=gd3bj scf=xqc pop=npa geom=c
 heck
 ----------------------------------------------------------------------

 -------------------------------------
 CID_19747987_JID_10104_Energie_kation
 -------------------------------------
 Structure from the checkpoint file:  "JID_10104.chk"
 Charge =  1 Multiplicity = 2

 SCF Done:  E(UB3LYP) =  -917.598777458     A.U. after   33 cycles
 SCF Done:  E(UB3LYP) =  -917.599486694     a.u. after    7 cycles
 Normal termination of Gaussian 16 at Mon Dec 14 16:20:31 2020.
 Gaussian 16:  ES64L-G16RevA.03 25-Dec-2016

 ----------------------------------------------------------------------
 # B3LYP/6-311++G(d,p) empiricaldispersion=gd3bj scf=xqc pop=npa geom=c
 heck
 ----------------------------------------------------------------------

 ------------------------------------
 CID_19747987_JID_10104_Energie_anion
 ------------------------------------
 Structure from the checkpoint file:  "JID_10104.chk"
 Charge = -1 Multiplicity = 2

                         Standard orientation:
 ---------------------------------------------------------------------
 Center     Atomic      Atomic             Coordinates (Angstroms)
 Number     Number       Type             X           Y           Z
 ---------------------------------------------------------------------
      1          6           0        1.693490   -2.579841    1.181836
      2          6           0        0.393703   -1.784527    1.041453
      3          7           0        0.412823   -1.037462   -0.209725
      4          6           0        1.475277   -0.048686   -0.353661
      5          6           0        2.783628   -0.554491    0.203059
      6          6           0        2.880794   -1.712575    0.880678
      7          6           0        3.967331    0.265221   -0.014694
      8          7           0        3.881960    1.369911   -0.661889
      9          8           0        5.132549    1.997120   -0.746050
     10          6           0       -0.658217   -0.915713   -1.045392
     11          8           0       -0.711940   -0.143848   -1.987412
     12          8           0       -1.659268   -1.791967   -0.719050
     13          6           0       -2.948429   -1.478378   -1.267814
     14          6           0       -3.780375   -0.708420   -0.230814
     15          6           0       -3.047421    0.508606    0.285546
     16          6           0       -2.336662    0.445546    1.488943
     17          6           0       -1.564365    1.523839    1.923530
     18          6           0       -1.497514    2.687054    1.156258
     19          6           0       -2.211491    2.764889   -0.041179
     20          6           0       -2.977546    1.683707   -0.471139
     21          1           0        1.769892   -2.987748    2.198411
     22          1           0        1.675272   -3.444179    0.501597
     23          1           0        0.299309   -1.079626    1.881212
     24          1           0       -0.476040   -2.436890    1.047726
     25          1           0        1.581492    0.190169   -1.412788
     26          1           0        1.193218    0.892587    0.143328
     27          1           0        3.856380   -2.041644    1.234632
     28          1           0        4.925641   -0.074661    0.386355
     29          1           0        4.929949    2.795316   -1.258639
     30          1           0       -2.809850   -0.896107   -2.180352
     31          1           0       -3.416212   -2.436046   -1.511137
     32          1           0       -4.730577   -0.425895   -0.702184
     33          1           0       -4.018271   -1.378768    0.602942
     34          1           0       -2.380407   -0.463135    2.083674
     35          1           0       -1.018330    1.455449    2.860672
     36          1           0       -0.895963    3.528081    1.489304
     37          1           0       -2.162971    3.665852   -0.646017
     38          1           0       -3.509961    1.742275   -1.417009
 ---------------------------------------------------------------------

 SCF Done:  E(UB3LYP) =  -917.889879568     A.U. after   33 cycles
 SCF Done:  E(UB3LYP) =  -917.889879567     a.u. after    1 cycles

 The electronic state is 2-A.
 Alpha  occ. eigenvalues --  -19.05298 -19.05272 -18.98485 -14.23346 -14.22779
 Alpha  occ. eigenvalues --  -10.20751 -10.12478 -10.09911 -10.09058 -10.08307
 Alpha  occ. eigenvalues --  -10.07939 -10.07936 -10.07930 -10.07778 -10.07736
 Alpha  occ. eigenvalues --  -10.07659 -10.07520 -10.07048 -10.06320 -10.05113
 Alpha  occ. eigenvalues --   -0.99859  -0.97105  -0.90813  -0.84075  -0.76387
 Alpha  occ. eigenvalues --   -0.75348  -0.70016  -0.68937  -0.65648  -0.65086
 Alpha  occ. eigenvalues --   -0.63497  -0.58413  -0.54988  -0.54085  -0.51230
 Alpha  occ. eigenvalues --   -0.49418  -0.48461  -0.45385  -0.43008  -0.42109
 Alpha  occ. eigenvalues --   -0.41817  -0.40664  -0.38743  -0.37642  -0.36981
 Alpha  occ. eigenvalues --   -0.36203  -0.35653  -0.35217  -0.33951  -0.33331
 Alpha  occ. eigenvalues --   -0.32721  -0.31948  -0.31623  -0.30589  -0.30205
 Alpha  occ. eigenvalues --   -0.29508  -0.28884  -0.28361  -0.27747  -0.26612
 Alpha  occ. eigenvalues --   -0.25525  -0.24952  -0.24565  -0.23952  -0.22760
 Alpha  occ. eigenvalues --   -0.19711  -0.18858  -0.17585  -0.16698  -0.15930
 Alpha  occ. eigenvalues --   -0.15140  -0.13691  -0.12014   0.04272
 Alpha virt. eigenvalues --    0.05807   0.07022   0.07288   0.07963   0.07993
 Alpha virt. eigenvalues --    0.08123   0.08402   0.08968   0.09246   0.09749
 Alpha virt. eigenvalues --    0.10414   0.10669   0.11798   0.12095   0.12300

  Beta  occ. eigenvalues --  -19.05293 -19.05231 -18.98482 -14.23347 -14.22418
  Beta  occ. eigenvalues --  -10.20752 -10.12461 -10.09898 -10.09061 -10.08270
  Beta  occ. eigenvalues --  -10.07934 -10.07926 -10.07919 -10.07748 -10.07653
  Beta  occ. eigenvalues --  -10.07650 -10.07501 -10.07062 -10.06284 -10.04863
  Beta  occ. eigenvalues --   -0.99853  -0.96870  -0.90807  -0.84067  -0.76337
  Beta  occ. eigenvalues --   -0.74998  -0.69863  -0.68779  -0.65556  -0.65049
  Beta  occ. eigenvalues --   -0.63416  -0.58304  -0.54807  -0.54006  -0.51203
  Beta  occ. eigenvalues --   -0.49265  -0.48295  -0.45321  -0.42928  -0.42029
  Beta  occ. eigenvalues --   -0.41724  -0.40519  -0.38652  -0.37588  -0.36936
  Beta  occ. eigenvalues --   -0.36149  -0.35502  -0.35113  -0.33901  -0.33266
  Beta  occ. eigenvalues --   -0.32698  -0.31831  -0.31543  -0.30353  -0.29839
  Beta  occ. eigenvalues --   -0.29472  -0.28509  -0.28301  -0.27607  -0.26524
  Beta  occ. eigenvalues --   -0.25452  -0.24904  -0.24530  -0.23897  -0.22671
  Beta  occ. eigenvalues --   -0.19669  -0.18224  -0.17528  -0.16331  -0.15841
  Beta  occ. eigenvalues --   -0.14992  -0.13653  -0.10714
  Beta virt. eigenvalues --    0.06482   0.07278   0.07406   0.07976   0.08045
  Beta virt. eigenvalues --    0.08348   0.08680   0.08751   0.09292   0.09454
  Beta virt. eigenvalues --    0.09924   0.10575   0.10719   0.11941   0.12183

 Mulliken charges and spin densities:
               1          2
     1  C   -0.426763  -0.511224
     2  C    0.023078  -0.052459
     3  N    0.285927   0.027882
     4  C   -1.071435  -0.104966
     5  C    1.149445  -0.032283
     6  C   -0.570559   0.430213
     7  C   -0.418311   0.064416
     8  N   -0.407248   0.158419
     9  O    0.005229   0.007579
    10  C   -0.046365  -0.025983
    11  O   -0.260528  -0.001591
    12  O   -0.049514   0.021538
    13  C    0.678463  -0.748314
    14  C    1.151666  -1.957209
    15  C   -1.201949   1.788341
    16  C    0.244309  -0.358134
    17  C    0.339418  -0.510317
    18  C    0.144823  -0.460059
    19  C   -0.058946  -0.181846
    20  C   -0.793306   0.649596
    21  H    0.045324   0.105181
    22  H    0.004328   0.156861
    23  H    0.187515  -0.060488
    24  H   -0.002870   0.214640
    25  H    0.247577  -0.011070
    26  H    0.216770  -0.016081
    27  H    0.108894   0.011602
    28  H    0.110973   0.012222
    29  H    0.250847   0.002794
    30  H    0.248980  -0.066505
    31  H   -0.369877   0.536408
    32  H   -0.314894   0.472388
    33  H   -0.256004   0.445022
    34  H   -0.235895   0.403422
    35  H   -0.130954   0.305696
    36  H    0.094698   0.043429
    37  H    0.078702   0.076313
    38  H   -0.001547   0.164565
 Sum of Mulliken charges =  -1.00000   1.00000

 Dipole moment (field-independent basis, Debye):
    X=              1.5077    Y=              2.1180    Z=              0.6102  Tot=              2.6705
 Quadrupole moment (field-independent basis, Debye-Ang):
   XX=           -196.3996   YY=           -147.3312   ZZ=           -144.8892
   XY=             -9.7263   XZ=              2.6596   YZ=             -2.9305

 Summary of Natural Population Analysis:

                                       Natural Population
                Natural  -----------------------------------------------
    Atom  No    Charge         Core      Valence    Rydberg      Total
 -----------------------------------------------------------------------
      C    1   -0.20978      0.99962     2.20161    0.00856     3.20978
      C    2   -0.08223      0.99961     2.07198    0.01063     3.08223
      N    3   -0.25924      0.99962     2.74915    0.01047     3.75924
      C    4   -0.09549      0.99957     2.08466    0.01125     3.09549
      C    5   -0.04214      0.99946     2.03410    0.00858     3.04214
      C    6   -0.03557      0.99949     2.02764    0.00844     3.03557
      C    7    0.02613      0.99961     1.95757    0.01669     2.97387
      N    8   -0.04336      0.99963     2.52885    0.01488     3.54336
      O    9   -0.29159      0.99990     3.28452    0.00717     4.29159
      C   10    0.46836      0.99964     1.50605    0.02595     2.53164
      O   11   -0.33400      0.99987     3.32978    0.00436     4.33400
      O   12   -0.29517      0.99986     3.28678    0.00852     4.29517
      C   13   -0.00966      0.99955     1.99815    0.01195     3.00966
      C   14   -0.20810      0.99959     2.19838    0.01013     3.20810
      C   15   -0.01483      0.99950     2.00404    0.01129     3.01483
      C   16   -0.09889      0.99950     2.08935    0.01003     3.09889
      C   17   -0.10345      0.99956     2.09364    0.01026     3.10345
      C   18   -0.10119      0.99956     2.09249    0.00914     3.10119
      C   19   -0.09821      0.99956     2.08941    0.00924     3.09821
      C   20   -0.09255      0.99950     2.08336    0.00969     3.09255
      H   21    0.09948      0.00000     0.39952    0.00100     0.40052
      H   22    0.10422      0.00000     0.39441    0.00137     0.39578
      H   23    0.08863      0.00000     0.40946    0.00191     0.41137
      H   24    0.11206      0.00000     0.38623    0.00171     0.38794
      H   25    0.11998      0.00000     0.37856    0.00146     0.38002
      H   26    0.10171      0.00000     0.39608    0.00221     0.39829
      H   27    0.08899      0.00000     0.41001    0.00100     0.41101
      H   28    0.07864      0.00000     0.41872    0.00264     0.42136
      H   29    0.22794      0.00000     0.26922    0.00283     0.27206
      H   30    0.09952      0.00000     0.39917    0.00131     0.40048
      H   31    0.09139      0.00000     0.40709    0.00152     0.40861
      H   32    0.10533      0.00000     0.39319    0.00148     0.39467
      H   33    0.10379      0.00000     0.39433    0.00188     0.39621
      H   34    0.10200      0.00000     0.39629    0.00171     0.39800
      H   35    0.10028      0.00000     0.39880    0.00092     0.39972
      H   36    0.09897      0.00000     0.40021    0.00083     0.40103
      H   37    0.09831      0.00000     0.40091    0.00077     0.40169
      H   38    0.09973      0.00000     0.39933    0.00093     0.40027
 =======================================================================
   * Total *   -0.00000     19.99222    52.76305    0.24473    73.00000

 Normal termination of Gaussian 16 at Mon Dec 14 16:42:50 2020.
