 Gaussian 16, Revision A.03,

 -----------------------------------------------------------
 # opt freq B3LYP/6-31G(d) empiricaldispersion=gd3bj scf=xqc
 -----------------------------------------------------------

 ------------------------------
 CID_130737626_JID_685_neutraal
 ------------------------------
 Symbolic Z-matrix:
 Charge =  0 Multiplicity = 1

 SCF Done:  E(RB3LYP) =  -816.317793477     A.U. after   15 cycles
 SCF Done:  E(RB3LYP) =  -816.322305189     A.U. after   13 cycles
 SCF Done:  E(RB3LYP) =  -816.323507935     A.U. after   13 cycles
 SCF Done:  E(RB3LYP) =  -816.324185415     A.U. after   12 cycles
 SCF Done:  E(RB3LYP) =  -816.324427658     A.U. after   12 cycles
 SCF Done:  E(RB3LYP) =  -816.324501891     A.U. after   11 cycles
 SCF Done:  E(RB3LYP) =  -816.324523445     A.U. after   10 cycles
 SCF Done:  E(RB3LYP) =  -816.324527185     A.U. after    9 cycles
 SCF Done:  E(RB3LYP) =  -816.324527659     A.U. after    8 cycles
 SCF Done:  E(RB3LYP) =  -816.324527855     A.U. after    7 cycles
 Optimization completed.
    -- Stationary point found.
 Normal termination of Gaussian 16 at Tue Dec  8 13:05:08 2020.

 --------------------------------------------------------------------
 #N Geom=AllCheck Guess=TCheck SCRF=Check GenChk RB3LYP/6-31G(d) Freq
 --------------------------------------------------------------------

 Structure from the checkpoint file:  "JID_685.chk"
 ------------------------------
 CID_130737626_JID_685_neutraal
 ------------------------------
 Charge =  0 Multiplicity = 1

 SCF Done:  E(RB3LYP) =  -816.324527855     A.U. after    1 cycles

  Exact polarizability: 133.123   1.795 107.059   1.870   4.076  48.806
 Approx polarizability: 197.928   0.164 181.291   4.774  12.512  74.661

                      1                      2                      3
                      A                      A                      A
 Frequencies --     49.7566                74.6647               128.0049
 Red. masses --      3.1651                 2.9251                 5.0636
 Frc consts  --      0.0046                 0.0096                 0.0489
 IR Inten    --      2.0295                 2.9947                 0.1820

                      4                      5                      6
                      A                      A                      A
 Frequencies --    177.8969               182.0485               246.9188
 Red. masses --      1.4494                 3.5306                 4.2363
 Frc consts  --      0.0270                 0.0689                 0.1522
 IR Inten    --      4.2182                 2.7680                 0.1314

                      7                      8                      9
                      A                      A                      A
 Frequencies --    320.6468               361.7979               364.3720
 Red. masses --      4.5481                 2.2598                 4.4592
 Frc consts  --      0.2755                 0.1743                 0.3488
 IR Inten    --      3.7001                25.2872                 4.1267

                     10                     11                     12
                      A                      A                      A
 Frequencies --    408.1859               460.8325               555.8152
 Red. masses --      1.5611                 4.6717                 4.3009
 Frc consts  --      0.1532                 0.5845                 0.7828
 IR Inten    --     44.1027                 1.7091                11.3317

                     13                     14                     15
                      A                      A                      A
 Frequencies --    586.8125               620.0740               663.4093
 Red. masses --      5.1437                 5.3975                 5.9109
 Frc consts  --      1.0436                 1.2227                 1.5327
 IR Inten    --     19.3841                28.6374                 9.3131

                     16                     17                     18
                      A                      A                      A
 Frequencies --    690.0442               702.3485               813.9691
 Red. masses --      1.6482                 1.6744                 1.4610
 Frc consts  --      0.4624                 0.4866                 0.5703
 IR Inten    --     31.7153                 2.0777               196.0627

                     19                     20                     21
                      A                      A                      A
 Frequencies --    825.8905               834.8424               879.1557
 Red. masses --      4.2005                 1.7943                 4.4281
 Frc consts  --      1.6881                 0.7368                 2.0165
 IR Inten    --      4.1769                88.8793                35.9218

                     22                     23                     24
                      A                      A                      A
 Frequencies --    910.3518               928.3302               965.3087
 Red. masses --      1.3064                 4.4949                 3.8079
 Frc consts  --      0.6379                 2.2823                 2.0906
 IR Inten    --      1.7621                51.4950                34.2250

                     25                     26                     27
                      A                      A                      A
 Frequencies --   1097.8244              1119.2348              1153.4493
 Red. masses --      4.3171                 1.1724                 1.7867
 Frc consts  --      3.0655                 0.8653                 1.4006
 IR Inten    --    136.0758                39.3909                41.3240

                     28                     29                     30
                      A                      A                      A
 Frequencies --   1188.8962              1196.6285              1231.5866
 Red. masses --      1.2743                 1.5565                 1.4581
 Frc consts  --      1.0612                 1.3132                 1.3031
 IR Inten    --      1.8279                31.5388                 5.1023

                     31                     32                     33
                      A                      A                      A
 Frequencies --   1252.7327              1361.3088              1405.3615
 Red. masses --      1.5994                 4.2164                 3.0213
 Frc consts  --      1.4789                 4.6037                 3.5158
 IR Inten    --      9.7421                48.2129                 5.5379

                     34                     35                     36
                      A                      A                      A
 Frequencies --   1482.4276              1487.0400              1503.5959
 Red. masses --      5.6950                 1.2019                 1.0518
 Frc consts  --      7.3738                 1.5659                 1.4010
 IR Inten    --     43.0354                 9.9550                 3.2803

                     37                     38                     39
                      A                      A                      A
 Frequencies --   1538.9929              1588.9084              1658.8627
 Red. masses --      1.0505                 5.9761                 1.4153
 Frc consts  --      1.4659                 8.8893                 2.2946
 IR Inten    --     18.6577                13.4151                77.1134

                     40                     41                     42
                      A                      A                      A
 Frequencies --   1701.2254              3035.5591              3098.3326
 Red. masses --      3.4947                 1.0310                 1.1073
 Frc consts  --      5.9591                 5.5974                 6.2627
 IR Inten    --     64.2642               104.5630                49.2122

                     43                     44                     45
                      A                      A                      A
 Frequencies --   3146.6994              3241.0390              3276.0847
 Red. masses --      1.1028                 1.0900                 1.0978
 Frc consts  --      6.4334                 6.7458                 6.9423
 IR Inten    --     23.2921                 0.8746                 0.7505

                     46                     47                     48
                      A                      A                      A
 Frequencies --   3323.9327              3509.6424              3611.7745
 Red. masses --      1.0937                 1.0480                 1.0963
 Frc consts  --      7.1198                 7.6060                 8.4257
 IR Inten    --      4.7859                 8.1582                 7.1435

 - Thermochemistry -
 -------------------
 Temperature   298.150 Kelvin.  Pressure   1.00000 Atm.
 Atom     1 has atomic number  6 and mass  12.00000

 Molecular mass:   156.03573 amu.
 Principal axes and moments of inertia in atomic units:
                           1         2         3
     Eigenvalues --   914.323252374.546153223.82299
           X            0.99920   0.04003   0.00168
           Y           -0.04002   0.99918  -0.00595
           Z           -0.00191   0.00587   0.99998
 This molecule is an asymmetric top.
 Rotational symmetry number  1.
 Warning -- assumption of classical behavior for rotation
           may cause significant error
 Rotational temperatures (Kelvin)      0.09473     0.03648     0.02687
 Rotational constants (GHZ):           1.97385     0.76004     0.55981
 Zero-point vibrational energy     364637.4 (Joules/Mol)
                                   87.15044 (Kcal/Mol)
 Warning -- explicit consideration of  14 degrees of freedom as
           vibrations may cause significant error
 Vibrational temperatures:     71.59   107.43   184.17   255.95   261.93
          (Kelvin)            355.26   461.34   520.55   524.25   587.29
                              663.04   799.69   844.29   892.15   954.50
                              992.82  1010.52  1171.12  1188.27  1201.15
                             1264.91  1309.79  1335.66  1388.86  1579.52
                             1610.33  1659.56  1710.56  1721.68  1771.98
                             1802.40  1958.62  2022.00  2132.88  2139.52
                             2163.34  2214.27  2286.08  2386.73  2447.68
                             4367.49  4457.81  4527.40  4663.13  4713.56
                             4782.40  5049.59  5196.54

 Zero-point correction=                           0.138883 (Hartree/Particle)
 Thermal correction to Energy=                    0.148789
 Thermal correction to Enthalpy=                  0.149733
 Thermal correction to Gibbs Free Energy=         0.102819
 Sum of electronic and zero-point Energies=           -816.185645
 Sum of electronic and thermal Energies=              -816.175739
 Sum of electronic and thermal Enthalpies=            -816.174795
 Sum of electronic and thermal Free Energies=         -816.221709

                     E (Thermal)             CV                S
                      KCal/Mol        Cal/Mol-Kelvin    Cal/Mol-Kelvin
 Total                   93.367             36.545             98.739
 Electronic               0.000              0.000              0.000
 Translational            0.889              2.981             41.044
 Rotational               0.889              2.981             30.327
 Vibrational             91.589             30.584             27.368
 Vibration     1          0.595              1.978              4.827
 Vibration     2          0.599              1.966              4.026
 Vibration     3          0.611              1.925              2.976
 Vibration     4          0.628              1.870              2.350
 Vibration     5          0.630              1.864              2.307
 Vibration     6          0.661              1.768              1.752
 Vibration     7          0.706              1.634              1.307
 Vibration     8          0.736              1.551              1.114
 Vibration     9          0.738              1.546              1.103
 Vibration    10          0.773              1.452              0.933
 Vibration    11          0.819              1.337              0.764
 Vibration    12          0.911              1.127              0.532
 Vibration    13          0.944              1.060              0.473
 Vibration    14          0.980              0.990              0.416

                           ! Non-Optimized Parameters !
 Normal termination of Gaussian 16 at Tue Dec  8 13:11:45 2020.

 ----------------------------------------------------------------------
 # B3LYP/6-311++G(d,p) empiricaldispersion=gd3bj scf=xqc pop=npa geom=c
 heck
 ----------------------------------------------------------------------

 --------------------------------------
 CID_130737626_JID_685_Energie_neutraal
 --------------------------------------
 Structure from the checkpoint file:  "JID_685.chk"
 Charge =  0 Multiplicity = 1

 SCF Done:  E(RB3LYP) =  -816.476017109     A.U. after   15 cycles
 Normal termination of Gaussian 16 at Tue Dec  8 13:13:00 2020.

 ----------------------------------------------------------------------
 # B3LYP/6-311++G(d,p) empiricaldispersion=gd3bj scf=xqc pop=npa geom=c
 heck
 ----------------------------------------------------------------------

 ------------------------------------
 CID_130737626_JID_685_Energie_kation
 ------------------------------------
 Structure from the checkpoint file:  "JID_685.chk"
 Charge =  1 Multiplicity = 2

 SCF Done:  E(UB3LYP) =  -816.187409014     A.U. after   23 cycles
 Normal termination of Gaussian 16 at Tue Dec  8 13:24:02 2020.
 Gaussian 16:  ES64L-G16RevA.03 25-Dec-2016

 ----------------------------------------------------------------------
 # B3LYP/6-311++G(d,p) empiricaldispersion=gd3bj scf=xqc pop=npa geom=c
 heck
 ----------------------------------------------------------------------

 -----------------------------------
 CID_130737626_JID_685_Energie_anion
 -----------------------------------
 Structure from the checkpoint file:  "JID_685.chk"
 Charge = -1 Multiplicity = 2

                         Standard orientation:
 ---------------------------------------------------------------------
 Center     Atomic      Atomic             Coordinates (Angstroms)
 Number     Number       Type             X           Y           Z
 ---------------------------------------------------------------------
      1          6           0       -3.344812   -1.419564    0.215451
      2          8           0       -2.019915   -0.924959    0.100828
      3          7           0       -2.089445    0.467068   -0.092042
      4          6           0       -0.927460    1.032535   -0.099751
      5          6           0        0.405876    0.415990   -0.016582
      6          6           0        0.710304   -0.898820   -0.292360
      7         16           0        2.400453   -1.217946   -0.136728
      8          6           0        2.721626    0.427739    0.319083
      9          6           0        1.578968    1.171207    0.340378
     10          7           0       -0.937512    2.436503   -0.143353
     11          1           0       -3.244193   -2.499427    0.351874
     12          1           0       -3.925976   -1.210117   -0.690966
     13          1           0       -3.856894   -0.981297    1.080630
     14          1           0        0.026705   -1.680300   -0.579472
     15          1           0        3.728428    0.740496    0.558681
     16          1           0        1.544665    2.214653    0.628348
     17          1           0       -1.883419    2.785297   -0.267563
     18          1           0       -0.315556    2.817987   -0.850062
 ---------------------------------------------------------------------

 SCF Done:  E(UB3LYP) =  -816.460768941     A.U. after   33 cycles
 SCF Done:  E(UB3LYP) =  -816.460768942     a.u. after    2 cycles

 The electronic state is 2-A.
 Alpha  occ. eigenvalues --  -88.75346 -19.03611 -14.20884 -14.19689 -10.11173
 Alpha  occ. eigenvalues --  -10.10251 -10.07551 -10.06535 -10.05889 -10.05714
 Alpha  occ. eigenvalues --   -7.83986  -5.80265  -5.79900  -5.79621  -0.95864
 Alpha  occ. eigenvalues --   -0.81523  -0.75713  -0.70696  -0.62292  -0.60573
 Alpha  occ. eigenvalues --   -0.56245  -0.48661  -0.44830  -0.42961  -0.41338
 Alpha  occ. eigenvalues --   -0.37130  -0.35918  -0.34654  -0.33226  -0.29987
 Alpha  occ. eigenvalues --   -0.27926  -0.27633  -0.27232  -0.25964  -0.24721
 Alpha  occ. eigenvalues --   -0.22883  -0.19292  -0.15240  -0.13868  -0.12488
 Alpha  occ. eigenvalues --   -0.09475   0.05313
 Alpha virt. eigenvalues --    0.07295   0.07522   0.08041   0.10055   0.10688
 Alpha virt. eigenvalues --    0.11105   0.11388   0.12085   0.12628   0.13266
 Alpha virt. eigenvalues --    0.13841   0.14904   0.15694   0.16620   0.17457

  Beta  occ. eigenvalues --  -88.75320 -19.03590 -14.20747 -14.19653 -10.11094
  Beta  occ. eigenvalues --  -10.10233 -10.07502 -10.06278 -10.05861 -10.05718
  Beta  occ. eigenvalues --   -7.83962  -5.80253  -5.79891  -5.79535  -0.95769
  Beta  occ. eigenvalues --   -0.81408  -0.75556  -0.70560  -0.62134  -0.60311
  Beta  occ. eigenvalues --   -0.56179  -0.48359  -0.44651  -0.42861  -0.41210
  Beta  occ. eigenvalues --   -0.37022  -0.35813  -0.34552  -0.33148  -0.29891
  Beta  occ. eigenvalues --   -0.27779  -0.27275  -0.27084  -0.25868  -0.24363
  Beta  occ. eigenvalues --   -0.22716  -0.19110  -0.15066  -0.13540  -0.11801
  Beta  occ. eigenvalues --   -0.08906
  Beta virt. eigenvalues --    0.07563   0.08267   0.09103   0.09227   0.10117
  Beta virt. eigenvalues --    0.11085   0.11408   0.11851   0.12272   0.13047
  Beta virt. eigenvalues --    0.13386   0.13969   0.14898   0.15654   0.16554

 Mulliken charges and spin densities:
               1          2
     1  C    0.352078  -0.618248
     2  O   -0.006806   0.005071
     3  N   -0.366414   0.091946
     4  C    1.301415  -1.871958
     5  C    0.334652  -0.344656
     6  C   -0.719873   1.602881
     7  S    0.077810  -0.605391
     8  C    0.894896  -0.887961
     9  C   -1.041773   0.525008
    10  N   -0.445652   0.123997
    11  H    0.009066   0.108077
    12  H   -0.266085   0.413191
    13  H    0.006280   0.121090
    14  H    0.106081   0.186916
    15  H   -0.751928   0.999001
    16  H   -0.276009   0.447071
    17  H    0.058817   0.212065
    18  H   -0.266555   0.491900
 Sum of Mulliken charges =  -1.00000   1.00000

 Dipole moment (field-independent basis, Debye):
    X=             -0.6379    Y=             -3.7053    Z=              0.9467  Tot=              3.8771
 Quadrupole moment (field-independent basis, Debye-Ang):
   XX=           -120.2753   YY=            -99.7518   ZZ=            -86.8732
   XY=             -4.5553   XZ=             -5.5783   YZ=              2.2879

 Summary of Natural Population Analysis:

                                       Natural Population
                Natural  -----------------------------------------------
    Atom  No    Charge         Core      Valence    Rydberg      Total
 -----------------------------------------------------------------------
      C    1   -0.09070      0.99963     2.08171    0.00936     3.09070
      O    2   -0.22757      0.99990     3.21532    0.01235     4.22757
      N    3   -0.11139      0.99960     2.59834    0.01345     3.61139
      C    4    0.20884      0.99957     1.77445    0.01715     2.79116
      C    5   -0.08941      0.99946     2.07699    0.01297     3.08941
      C    6   -0.11823      0.99949     2.10890    0.00984     3.11823
      S    7    0.19783      4.99945     2.77869    0.02404     7.80217
      C    8   -0.19687      0.99954     2.18484    0.01249     3.19687
      C    9   -0.12128      0.99951     2.11023    0.01154     3.12128
      N   10   -0.40234      0.99973     2.89282    0.00980     3.90234
      H   11    0.08336      0.00000     0.41536    0.00128     0.41664
      H   12    0.08153      0.00000     0.41527    0.00320     0.41847
      H   13    0.07819      0.00000     0.41957    0.00224     0.42181
      H   14    0.11659      0.00000     0.38203    0.00137     0.38341
      H   15    0.10820      0.00000     0.39008    0.00172     0.39180
      H   16    0.11175      0.00000     0.38680    0.00145     0.38825
      H   17    0.18597      0.00000     0.31152    0.00251     0.31403
      H   18    0.18555      0.00000     0.30893    0.00552     0.31445
 =======================================================================
   * Total *    0.00000     13.99587    26.85186    0.15227    41.00000

 Normal termination of Gaussian 16 at Tue Dec  8 13:36:16 2020.
