 Gaussian 16, Revision A.03,

 -----------------------------------------------------------
 # opt freq B3LYP/6-31G(d) empiricaldispersion=gd3bj scf=xqc
 -----------------------------------------------------------

 -----------------------------
 CID_2896501_JID_7218_neutraal
 -----------------------------
 Symbolic Z-matrix:
 Charge =  0 Multiplicity = 1

 SCF Done:  E(RB3LYP) =  -713.090306511     A.U. after   15 cycles
 SCF Done:  E(RB3LYP) =  -713.088160293     A.U. after   13 cycles
 SCF Done:  E(RB3LYP) =  -713.093938010     A.U. after   12 cycles
 SCF Done:  E(RB3LYP) =  -713.094585373     A.U. after   12 cycles
 SCF Done:  E(RB3LYP) =  -713.094669177     A.U. after   11 cycles
 SCF Done:  E(RB3LYP) =  -713.094837145     A.U. after   11 cycles
 SCF Done:  E(RB3LYP) =  -713.094895533     A.U. after   10 cycles
 SCF Done:  E(RB3LYP) =  -713.094950257     A.U. after   10 cycles
 SCF Done:  E(RB3LYP) =  -713.095013943     A.U. after   10 cycles
 SCF Done:  E(RB3LYP) =  -713.095040286     A.U. after   10 cycles
 SCF Done:  E(RB3LYP) =  -713.095062713     A.U. after    9 cycles
 SCF Done:  E(RB3LYP) =  -713.095067945     A.U. after   10 cycles
 SCF Done:  E(RB3LYP) =  -713.095069498     A.U. after    9 cycles
 SCF Done:  E(RB3LYP) =  -713.095069718     A.U. after    7 cycles
 Optimization completed.
    -- Stationary point found.
 Normal termination of Gaussian 16 at Mon Dec 14 13:23:15 2020.

 --------------------------------------------------------------------
 #N Geom=AllCheck Guess=TCheck SCRF=Check GenChk RB3LYP/6-31G(d) Freq
 --------------------------------------------------------------------

 Structure from the checkpoint file:  "JID_7218.chk"
 -----------------------------
 CID_2896501_JID_7218_neutraal
 -----------------------------
 Charge =  0 Multiplicity = 1

 SCF Done:  E(RB3LYP) =  -713.095069718     A.U. after    1 cycles

  Exact polarizability: 159.950 -17.418 151.598   8.095   7.299 145.099
 Approx polarizability: 217.960 -32.334 240.768  13.285   9.391 245.417

                      1                      2                      3
                      A                      A                      A
 Frequencies --     32.4223                47.2068                71.8129
 Red. masses --      4.2784                 4.5437                 4.9830
 Frc consts  --      0.0026                 0.0060                 0.0151
 IR Inten    --      0.6728                 0.7569                 1.1861

                      4                      5                      6
                      A                      A                      A
 Frequencies --     81.3229               118.7490               122.4304
 Red. masses --      3.9793                 2.2358                 1.2488
 Frc consts  --      0.0155                 0.0186                 0.0110
 IR Inten    --      0.7715                 0.4519                 0.3607

                      7                      8                      9
                      A                      A                      A
 Frequencies --    166.5751               176.4715               250.5961
 Red. masses --      4.0926                 2.9912                 3.4878
 Frc consts  --      0.0669                 0.0549                 0.1290
 IR Inten    --      0.4675                 0.5279                 3.2436

                     10                     11                     12
                      A                      A                      A
 Frequencies --    272.3482               289.2285               340.9934
 Red. masses --      2.6017                 3.3525                 3.7685
 Frc consts  --      0.1137                 0.1652                 0.2582
 IR Inten    --      2.4586                 2.5599                 2.9371

                     13                     14                     15
                      A                      A                      A
 Frequencies --    366.8218               402.6984               423.6599
 Red. masses --      2.2637                 2.9313                 2.8917
 Frc consts  --      0.1795                 0.2801                 0.3058
 IR Inten    --      0.2055                 2.8827                 0.0149

                     16                     17                     18
                      A                      A                      A
 Frequencies --    454.8786               468.2565               484.6139
 Red. masses --      2.3184                 3.2113                 3.4755
 Frc consts  --      0.2826                 0.4149                 0.4809
 IR Inten    --      0.3949                 1.1322                11.9609

                     19                     20                     21
                      A                      A                      A
 Frequencies --    543.7026               564.0112               597.1220
 Red. masses --      4.1539                 4.4962                 4.1510
 Frc consts  --      0.7235                 0.8427                 0.8720
 IR Inten    --      2.4347                 1.0602                 8.4383

                     22                     23                     24
                      A                      A                      A
 Frequencies --    662.6361               702.0721               714.8304
 Red. masses --      2.2903                 3.0552                 4.3336
 Frc consts  --      0.5925                 0.8873                 1.3047
 IR Inten    --     38.6374                 2.2180                 1.5944

                     25                     26                     27
                      A                      A                      A
 Frequencies --    746.0796               763.3837               767.3208
 Red. masses --      1.8834                 2.8046                 2.8206
 Frc consts  --      0.6177                 0.9630                 0.9785
 IR Inten    --     19.8548                 1.8662                11.1468

                     28                     29                     30
                      A                      A                      A
 Frequencies --    789.5182               800.4097               816.9809
 Red. masses --      2.2715                 2.6378                 3.1903
 Frc consts  --      0.8342                 0.9957                 1.2546
 IR Inten    --     65.4542                17.8719                 0.3819

                     31                     32                     33
                      A                      A                      A
 Frequencies --    828.4440               835.0627               854.2306
 Red. masses --      1.8501                 3.1373                 2.2367
 Frc consts  --      0.7481                 1.2890                 0.9616
 IR Inten    --      1.2842                 4.4577                 1.2857

                     34                     35                     36
                      A                      A                      A
 Frequencies --    885.6498               896.9665               937.8111
 Red. masses --      1.3498                 2.6103                 2.9046
 Frc consts  --      0.6238                 1.2374                 1.5051
 IR Inten    --      1.4568                 3.3318                 0.7329

                     37                     38                     39
                      A                      A                      A
 Frequencies --    949.9062               964.4132               969.3961
 Red. masses --      1.3925                 1.5186                 2.2576
 Frc consts  --      0.7403                 0.8322                 1.2500
 IR Inten    --      2.2969                 0.0391                 1.4046

                     40                     41                     42
                      A                      A                      A
 Frequencies --    971.7367               985.4362               987.1672
 Red. masses --      1.7783                 1.2698                 1.8256
 Frc consts  --      0.9893                 0.7265                 1.0482
 IR Inten    --      1.1620                 0.1018                 2.2478

                     43                     44                     45
                      A                      A                      A
 Frequencies --   1011.7263              1023.8565              1071.0668
 Red. masses --      2.4017                 1.5716                 2.1806
 Frc consts  --      1.4484                 0.9707                 1.4739
 IR Inten    --      4.2268                 0.9499                10.1835

                     46                     47                     48
                      A                      A                      A
 Frequencies --   1077.8924              1080.5772              1089.7050
 Red. masses --      1.7624                 1.5797                 1.9859
 Frc consts  --      1.2064                 1.0868                 1.3894
 IR Inten    --      5.1715                 0.9760                 5.7356

                     49                     50                     51
                      A                      A                      A
 Frequencies --   1109.2580              1133.8800              1151.8801
 Red. masses --      1.8658                 1.7368                 1.0653
 Frc consts  --      1.3526                 1.3156                 0.8328
 IR Inten    --      3.8197                 1.4505                 0.1564

                     52                     53                     54
                      A                      A                      A
 Frequencies --   1161.9520              1178.0173              1197.6548
 Red. masses --      1.4156                 1.5092                 1.1044
 Frc consts  --      1.1261                 1.2340                 0.9333
 IR Inten    --      3.1829                 4.1369                 0.7627

                     55                     56                     57
                      A                      A                      A
 Frequencies --   1204.0468              1219.4491              1241.4153
 Red. masses --      1.6881                 1.7888                 2.5158
 Frc consts  --      1.4419                 1.5672                 2.2843
 IR Inten    --      9.8027                 8.5129                 3.2604

                     58                     59                     60
                      A                      A                      A
 Frequencies --   1253.7217              1285.5364              1298.4599
 Red. masses --      1.3684                 1.4215                 1.3966
 Frc consts  --      1.2673                 1.3841                 1.3874
 IR Inten    --      1.8427                 3.0163                 1.4206

                     61                     62                     63
                      A                      A                      A
 Frequencies --   1306.5791              1317.8736              1323.8480
 Red. masses --      1.5428                 1.5315                 1.4423
 Frc consts  --      1.5518                 1.5672                 1.4893
 IR Inten    --      8.3328                 8.9687                 1.1061

                     64                     65                     66
                      A                      A                      A
 Frequencies --   1343.7809              1347.5607              1349.1494
 Red. masses --      1.5348                 6.0398                 1.7436
 Frc consts  --      1.6329                 6.4620                 1.8699
 IR Inten    --      9.3329                 8.1795                73.5184

                     67                     68                     69
                      A                      A                      A
 Frequencies --   1362.6339              1379.4196              1383.2009
 Red. masses --      1.5253                 1.5742                 1.8065
 Frc consts  --      1.6686                 1.7648                 2.0364
 IR Inten    --      9.2741                38.8913               109.6360

                     70                     71                     72
                      A                      A                      A
 Frequencies --   1434.3490              1446.8663              1492.7534
 Red. masses --      1.4914                 1.2350                 1.9121
 Frc consts  --      1.8078                 1.5233                 2.5104
 IR Inten    --     44.1746                 2.1643                10.8942

                     73                     74                     75
                      A                      A                      A
 Frequencies --   1513.2618              1514.9794              1519.5996
 Red. masses --      1.5876                 1.1063                 1.1548
 Frc consts  --      2.1421                 1.4961                 1.5711
 IR Inten    --     39.7298                 7.5965                 3.0983

                     76                     77                     78
                      A                      A                      A
 Frequencies --   1522.8731              1526.0263              1532.9080
 Red. masses --      1.1655                 1.1001                 1.1127
 Frc consts  --      1.5925                 1.5095                 1.5405
 IR Inten    --      8.0486                 1.0882                 8.5273

                     79                     80                     81
                      A                      A                      A
 Frequencies --   1540.5544              1552.7846              1634.1526
 Red. masses --      2.1287                 1.1019                 5.7664
 Frc consts  --      2.9766                 1.5654                 9.0728
 IR Inten    --      5.4127                 5.0778                 0.8138

                     82                     83                     84
                      A                      A                      A
 Frequencies --   1666.2141              1752.2202              3044.9316
 Red. masses --      5.7315                 7.2096                 1.0853
 Frc consts  --      9.3752                13.0418                 5.9286
 IR Inten    --      5.7414               299.4532                18.3866

                     85                     86                     87
                      A                      A                      A
 Frequencies --   3056.6776              3060.6926              3064.1596
 Red. masses --      1.0362                 1.0598                 1.0656
 Frc consts  --      5.7041                 5.8492                 5.8950
 IR Inten    --     18.1550                37.1852                21.3197

                     88                     89                     90
                      A                      A                      A
 Frequencies --   3077.2638              3079.0487              3099.9723
 Red. masses --      1.0664                 1.0735                 1.0860
 Frc consts  --      5.9496                 5.9966                 6.1489
 IR Inten    --     17.3341                56.2733                68.8550

                     91                     92                     93
                      A                      A                      A
 Frequencies --   3107.8357              3112.6395              3113.2852
 Red. masses --      1.1067                 1.0905                 1.0973
 Frc consts  --      6.2981                 6.2249                 6.2665
 IR Inten    --     33.7727                35.4060                 5.7934

                     94                     95                     96
                      A                      A                      A
 Frequencies --   3114.7942              3127.1764              3133.0161
 Red. masses --      1.1001                 1.1023                 1.1030
 Frc consts  --      6.2881                 6.3513                 6.3790
 IR Inten    --     16.8378                51.2809                17.5888

                     97                     98                     99
                      A                      A                      A
 Frequencies --   3180.0219              3192.3012              3193.0843
 Red. masses --      1.0866                 1.0886                 1.0902
 Frc consts  --      6.4742                 6.5360                 6.5489
 IR Inten    --      7.1434                 7.8471                 2.1485

                    100                    101                    102
                      A                      A                      A
 Frequencies --   3203.2182              3214.2656              3539.2691
 Red. masses --      1.0924                 1.0971                 1.0739
 Frc consts  --      6.6041                 6.6781                 7.9260
 IR Inten    --     25.4496                16.9932                12.5642

 - Thermochemistry -
 -------------------
 Temperature   298.150 Kelvin.  Pressure   1.00000 Atm.
 Atom     1 has atomic number  6 and mass  12.00000

 Molecular mass:   229.14666 amu.
 Principal axes and moments of inertia in atomic units:
                           1         2         3
     Eigenvalues --  2430.581074579.047545056.97892
           X            0.99991  -0.00006   0.01340
           Y           -0.00132   0.99465   0.10330
           Z           -0.01333  -0.10330   0.99456
 This molecule is an asymmetric top.
 Rotational symmetry number  1.
 Warning -- assumption of classical behavior for rotation
           may cause significant error
 Rotational temperatures (Kelvin)      0.03564     0.01892     0.01713
 Rotational constants (GHZ):           0.74251     0.39413     0.35688
 Zero-point vibrational energy     827652.6 (Joules/Mol)
                                  197.81372 (Kcal/Mol)
 Warning -- explicit consideration of  21 degrees of freedom as
           vibrations may cause significant error
 Vibrational temperatures:     46.65    67.92   103.32   117.01   170.85
          (Kelvin)            176.15   239.66   253.90   360.55   391.85
                              416.14   490.61   527.77   579.39   609.55
                              654.47   673.72   697.25   782.27   811.49
                              859.13   953.39  1010.13  1028.48  1073.44
                             1098.34  1104.00  1135.94  1151.61  1175.45
                             1191.95  1201.47  1229.05  1274.25  1290.53
                             1349.30  1366.70  1387.58  1394.74  1398.11
                             1417.82  1420.31  1455.65  1473.10  1541.03
                             1550.85  1554.71  1567.84  1595.97  1631.40
                             1657.30  1671.79  1694.90  1723.16  1732.35
                             1754.52  1786.12  1803.83  1849.60  1868.19
                             1879.88  1896.13  1904.72  1933.40  1938.84
                             1941.13  1960.53  1984.68  1990.12  2063.71
                             2081.72  2147.74  2177.25  2179.72  2186.36
                             2191.07  2195.61  2205.51  2216.51  2234.11
                             2351.18  2397.31  2521.05  4380.98  4397.88
                             4403.65  4408.64  4427.50  4430.06  4460.17
                             4471.48  4478.39  4479.32  4481.49  4499.31
                             4507.71  4575.34  4593.01  4594.14  4608.72
                             4624.61  5092.22

 Zero-point correction=                           0.315236 (Hartree/Particle)
 Thermal correction to Energy=                    0.329899
 Thermal correction to Enthalpy=                  0.330844
 Thermal correction to Gibbs Free Energy=         0.272874
 Sum of electronic and zero-point Energies=           -712.779833
 Sum of electronic and thermal Energies=              -712.765170
 Sum of electronic and thermal Enthalpies=            -712.764226
 Sum of electronic and thermal Free Energies=         -712.822196

                     E (Thermal)             CV                S
                      KCal/Mol        Cal/Mol-Kelvin    Cal/Mol-Kelvin
 Total                  207.015             58.706            122.008
 Electronic               0.000              0.000              0.000
 Translational            0.889              2.981             42.190
 Rotational               0.889              2.981             32.398
 Vibrational            205.238             52.744             47.420
 Vibration     1          0.594              1.983              5.675
 Vibration     2          0.595              1.979              4.931
 Vibration     3          0.598              1.967              4.103
 Vibration     4          0.600              1.962              3.859
 Vibration     5          0.609              1.934              3.121
 Vibration     6          0.610              1.930              3.062
 Vibration     7          0.624              1.884              2.474
 Vibration     8          0.628              1.871              2.365
 Vibration     9          0.663              1.762              1.726
 Vibration    10          0.675              1.724              1.581
 Vibration    11          0.686              1.694              1.478
 Vibration    12          0.721              1.594              1.207
 Vibration    13          0.740              1.540              1.093
 Vibration    14          0.768              1.464              0.953
 Vibration    15          0.786              1.419              0.880
 Vibration    16          0.813              1.350              0.781
 Vibration    17          0.825              1.320              0.742
 Vibration    18          0.841              1.284              0.698
 Vibration    19          0.899              1.153              0.557
 Vibration    20          0.920              1.109              0.516
 Vibration    21          0.955              1.038              0.455

 Optimization completed.
    -- Stationary point found.
 Normal termination of Gaussian 16 at Mon Dec 14 13:38:50 2020.

 ----------------------------------------------------------------------
 # B3LYP/6-311++G(d,p) empiricaldispersion=gd3bj scf=xqc pop=npa geom=c
 heck
 ----------------------------------------------------------------------

 -------------------------------------
 CID_2896501_JID_7218_Energie_neutraal
 -------------------------------------
 Structure from the checkpoint file:  "JID_7218.chk"
 Charge =  0 Multiplicity = 1

 SCF Done:  E(RB3LYP) =  -713.286448398     A.U. after   15 cycles
 Normal termination of Gaussian 16 at Mon Dec 14 13:46:26 2020.

 ----------------------------------------------------------------------
 # B3LYP/6-311++G(d,p) empiricaldispersion=gd3bj scf=xqc pop=npa geom=c
 heck
 ----------------------------------------------------------------------

 -----------------------------------
 CID_2896501_JID_7218_Energie_kation
 -----------------------------------
 Structure from the checkpoint file:  "JID_7218.chk"
 Charge =  1 Multiplicity = 2

 SCF Done:  E(UB3LYP) =  -712.977877500     A.U. after   33 cycles
 SCF Done:  E(UB3LYP) =  -712.977877500     a.u. after    1 cycles
 Normal termination of Gaussian 16 at Mon Dec 14 14:09:38 2020.
 Gaussian 16:  ES64L-G16RevA.03 25-Dec-2016

 ----------------------------------------------------------------------
 # B3LYP/6-311++G(d,p) empiricaldispersion=gd3bj scf=xqc pop=npa geom=c
 heck
 ----------------------------------------------------------------------

 ----------------------------------
 CID_2896501_JID_7218_Energie_anion
 ----------------------------------
 Structure from the checkpoint file:  "JID_7218.chk"
 Charge = -1 Multiplicity = 2

                         Standard orientation:
 ---------------------------------------------------------------------
 Center     Atomic      Atomic             Coordinates (Angstroms)
 Number     Number       Type             X           Y           Z
 ---------------------------------------------------------------------
      1          6           0        1.970383    1.514502    1.734751
      2          6           0        2.104158    0.370119    0.759392
      3          6           0        2.958036   -0.702173    1.039489
      4          6           0        3.103202   -1.768878    0.152451
      5          6           0        2.409552   -1.765943   -1.057043
      6          6           0        1.567640   -0.697782   -1.360735
      7          6           0        1.384293    0.346271   -0.450520
      8          6           0        0.515854    1.500766   -0.864204
      9          8           0        0.862690    2.216734   -1.800276
     10          7           0       -0.615013    1.808324   -0.142363
     11          6           0       -1.608190    1.005815    0.583153
     12          6           0       -1.148280   -0.240897    1.407375
     13          6           0       -2.148757   -1.336175    0.972232
     14          6           0       -1.767896   -1.796525   -0.451645
     15          6           0       -2.150765   -0.563096   -1.329900
     16          6           0       -2.743486    0.428086   -0.308175
     17          6           0       -3.427585   -0.517154    0.698577
     18          1           0        2.068050    2.481336    1.230099
     19          1           0        0.992587    1.511162    2.229344
     20          1           0        2.740564    1.453561    2.509233
     21          1           0        3.521887   -0.694917    1.968954
     22          1           0        3.767767   -2.591682    0.400475
     23          1           0        2.530787   -2.581490   -1.763891
     24          1           0        1.040950   -0.666968   -2.309561
     25          1           0       -1.027206    2.646833   -0.542187
     26          1           0       -2.071574    1.715568    1.277872
     27          1           0       -0.122947   -0.542115    1.208767
     28          1           0       -1.228884   -0.029246    2.478503
     29          1           0       -2.240725   -2.152517    1.693409
     30          1           0       -0.708388   -2.056067   -0.529945
     31          1           0       -2.349151   -2.679258   -0.740031
     32          1           0       -1.297635   -0.139392   -1.866506
     33          1           0       -2.900958   -0.825920   -2.082744
     34          1           0       -3.370695    1.207107   -0.752180
     35          1           0       -4.234837   -1.108619    0.252951
     36          1           0       -3.814972   -0.001126    1.584999
 ---------------------------------------------------------------------

 SCF Done:  E(UB3LYP) =  -713.277317793     A.U. after   33 cycles
 SCF Done:  E(UB3LYP) =  -713.277317793     a.u. after    1 cycles

 The electronic state is 2-A.
 Alpha  occ. eigenvalues --  -18.98237 -14.22723 -10.16652 -10.10780 -10.08713
 Alpha  occ. eigenvalues --  -10.07965 -10.07866 -10.07738 -10.07695 -10.07651
 Alpha  occ. eigenvalues --  -10.06996 -10.06876 -10.06839 -10.06212 -10.06018
 Alpha  occ. eigenvalues --  -10.05962 -10.05953  -0.93299  -0.81716  -0.76522
 Alpha  occ. eigenvalues --   -0.76116  -0.67911  -0.66033  -0.63933  -0.62236
 Alpha  occ. eigenvalues --   -0.59432  -0.59139  -0.54334  -0.51194  -0.49815
 Alpha  occ. eigenvalues --   -0.46420  -0.45859  -0.43827  -0.41510  -0.39930
 Alpha  occ. eigenvalues --   -0.39541  -0.37929  -0.37476  -0.36102  -0.34085
 Alpha  occ. eigenvalues --   -0.32507  -0.32143  -0.31737  -0.31068  -0.29850
 Alpha  occ. eigenvalues --   -0.29242  -0.28855  -0.27994  -0.26467  -0.26030
 Alpha  occ. eigenvalues --   -0.25365  -0.24895  -0.24568  -0.23908  -0.23656
 Alpha  occ. eigenvalues --   -0.21968  -0.21163  -0.20075  -0.16960  -0.15327
 Alpha  occ. eigenvalues --   -0.14657  -0.14007   0.04245
 Alpha virt. eigenvalues --    0.06425   0.06574   0.07099   0.07781   0.08068
 Alpha virt. eigenvalues --    0.08366   0.08701   0.09745   0.09997   0.10353
 Alpha virt. eigenvalues --    0.10765   0.11172   0.11976   0.12269   0.12930

  Beta  occ. eigenvalues --  -18.98184 -14.22714 -10.16614 -10.10753 -10.08658
  Beta  occ. eigenvalues --  -10.07904 -10.07849 -10.07735 -10.07661 -10.07591
  Beta  occ. eigenvalues --  -10.06986 -10.06868 -10.06832 -10.06202 -10.05994
  Beta  occ. eigenvalues --  -10.05953 -10.05935  -0.93195  -0.81658  -0.76423
  Beta  occ. eigenvalues --   -0.76069  -0.67797  -0.65911  -0.63888  -0.62199
  Beta  occ. eigenvalues --   -0.59370  -0.59086  -0.54215  -0.51116  -0.49753
  Beta  occ. eigenvalues --   -0.46348  -0.45797  -0.43783  -0.41449  -0.39873
  Beta  occ. eigenvalues --   -0.39479  -0.37855  -0.37412  -0.36033  -0.34022
  Beta  occ. eigenvalues --   -0.32398  -0.32084  -0.31689  -0.31008  -0.29799
  Beta  occ. eigenvalues --   -0.29205  -0.28785  -0.27860  -0.26361  -0.25914
  Beta  occ. eigenvalues --   -0.25314  -0.24852  -0.24522  -0.23856  -0.23602
  Beta  occ. eigenvalues --   -0.21923  -0.21122  -0.20021  -0.16791  -0.15134
  Beta  occ. eigenvalues --   -0.14435  -0.13763
  Beta virt. eigenvalues --    0.06375   0.07022   0.07289   0.07602   0.08147
  Beta virt. eigenvalues --    0.08415   0.08891   0.08938   0.10156   0.10273
  Beta virt. eigenvalues --    0.10892   0.11093   0.11317   0.12228   0.12682

 Mulliken charges and spin densities:
               1          2
     1  C    0.352207  -1.021495
     2  C   -0.122413   0.635702
     3  C   -0.133145  -0.103238
     4  C   -0.025675  -0.249543
     5  C   -0.250732  -0.101100
     6  C   -0.207068   0.122772
     7  C    0.568575   0.104175
     8  C   -0.907420   0.104767
     9  O   -0.259968   0.023208
    10  N   -0.184906   0.058866
    11  C    0.671459  -0.973741
    12  C    0.853441  -1.366326
    13  C   -0.935296   1.240736
    14  C    0.367416  -0.946161
    15  C   -0.217856  -0.153604
    16  C   -0.165159   0.515964
    17  C    0.338826  -1.100273
    18  H    0.143709   0.036466
    19  H   -0.049175   0.247180
    20  H   -0.010326   0.136797
    21  H   -0.057301   0.213180
    22  H    0.012006   0.130900
    23  H    0.076578   0.074239
    24  H    0.117061   0.039125
    25  H    0.113467   0.181406
    26  H   -0.459520   0.707059
    27  H    0.323925  -0.145365
    28  H   -0.191514   0.385508
    29  H   -0.312999   0.539277
    30  H    0.247210  -0.102152
    31  H   -0.075023   0.245822
    32  H    0.308475  -0.120313
    33  H   -0.113281   0.295513
    34  H   -0.219770   0.454324
    35  H   -0.199800   0.349352
    36  H   -0.396008   0.540974
 Sum of Mulliken charges =  -1.00000   1.00000

 Dipole moment (field-independent basis, Debye):
    X=              4.4546    Y=             -2.3516    Z=             -1.6255  Tot=              5.2930
 Quadrupole moment (field-independent basis, Debye-Ang):
   XX=           -165.4812   YY=           -143.4628   ZZ=           -143.9767
   XY=             -3.2791   XZ=              9.8977   YZ=              3.7329

 Summary of Natural Population Analysis:

                                       Natural Population
                Natural  -----------------------------------------------
    Atom  No    Charge         Core      Valence    Rydberg      Total
 -----------------------------------------------------------------------
      C    1   -0.29583      0.99963     2.29087    0.00533     3.29583
      C    2   -0.00009      0.99948     1.99131    0.00930     3.00009
      C    3   -0.10775      0.99951     2.09869    0.00955     3.10775
      C    4   -0.08700      0.99957     2.07790    0.00953     3.08700
      C    5   -0.10549      0.99956     2.09643    0.00950     3.10549
      C    6   -0.08671      0.99952     2.07886    0.00833     3.08671
      C    7   -0.04867      0.99940     2.03784    0.01144     3.04867
      C    8    0.34423      0.99960     1.63270    0.02347     2.65577
      O    9   -0.31694      0.99988     3.31187    0.00519     4.31694
      N   10   -0.31620      0.99966     2.80521    0.01134     3.81620
      C   11   -0.00857      0.99954     1.99307    0.01596     3.00857
      C   12   -0.19820      0.99960     2.18897    0.00963     3.19820
      C   13   -0.10869      0.99960     2.09703    0.01206     3.10869
      C   14   -0.19382      0.99962     2.18583    0.00836     3.19382
      C   15   -0.19613      0.99962     2.18819    0.00832     3.19613
      C   16   -0.11122      0.99958     2.09942    0.01223     3.11122
      C   17   -0.19037      0.99961     2.18160    0.00916     3.19037
      H   18    0.10718      0.00000     0.39200    0.00081     0.39282
      H   19    0.11177      0.00000     0.38693    0.00130     0.38823
      H   20    0.09863      0.00000     0.40062    0.00075     0.40137
      H   21    0.09783      0.00000     0.40128    0.00089     0.40217
      H   22    0.09692      0.00000     0.40231    0.00077     0.40308
      H   23    0.09797      0.00000     0.40124    0.00079     0.40203
      H   24    0.10361      0.00000     0.39512    0.00127     0.39639
      H   25    0.19133      0.00000     0.30644    0.00224     0.30867
      H   26    0.10170      0.00000     0.39544    0.00286     0.39830
      H   27    0.10897      0.00000     0.38839    0.00264     0.39103
      H   28    0.10438      0.00000     0.39379    0.00183     0.39562
      H   29    0.10151      0.00000     0.39745    0.00104     0.39849
      H   30    0.10276      0.00000     0.39588    0.00136     0.39724
      H   31    0.09688      0.00000     0.40207    0.00105     0.40312
      H   32    0.10048      0.00000     0.39824    0.00128     0.39952
      H   33    0.10013      0.00000     0.39888    0.00099     0.39987
      H   34    0.10237      0.00000     0.39631    0.00132     0.39763
      H   35    0.10052      0.00000     0.39802    0.00146     0.39948
      H   36    0.10253      0.00000     0.39562    0.00186     0.39747
 =======================================================================
   * Total *   -0.00000     16.99299    44.80181    0.20520    62.00000

 Normal termination of Gaussian 16 at Mon Dec 14 14:33:03 2020.
