 Gaussian 16, Revision A.03,

 -----------------------------------------------------------
 # opt freq B3LYP/6-31G(d) empiricaldispersion=gd3bj scf=xqc
 -----------------------------------------------------------

 -------------------------------
 CID_116061958_JID_8384_neutraal
 -------------------------------
 Symbolic Z-matrix:
 Charge =  0 Multiplicity = 1

 SCF Done:  E(RB3LYP) =  -1114.88926505     A.U. after   14 cycles
 SCF Done:  E(RB3LYP) =  -1114.82408145     A.U. after   15 cycles
 SCF Done:  E(RB3LYP) =  -1114.89214201     A.U. after   12 cycles
 SCF Done:  E(RB3LYP) =  -1114.89411888     A.U. after   12 cycles
 SCF Done:  E(RB3LYP) =  -1114.89480349     A.U. after   13 cycles
 SCF Done:  E(RB3LYP) =  -1114.89523352     A.U. after   12 cycles
 SCF Done:  E(RB3LYP) =  -1114.89547971     A.U. after   12 cycles
 SCF Done:  E(RB3LYP) =  -1114.89612428     A.U. after   11 cycles
 SCF Done:  E(RB3LYP) =  -1114.89562413     A.U. after   12 cycles
 SCF Done:  E(RB3LYP) =  -1114.89620020     A.U. after   11 cycles
 SCF Done:  E(RB3LYP) =  -1114.89635698     A.U. after    8 cycles
 SCF Done:  E(RB3LYP) =  -1114.89635791     A.U. after    8 cycles
 SCF Done:  E(RB3LYP) =  -1114.89635863     A.U. after    8 cycles
 SCF Done:  E(RB3LYP) =  -1114.89635902     A.U. after    7 cycles
 SCF Done:  E(RB3LYP) =  -1114.89635913     A.U. after    7 cycles
 Optimization completed.
    -- Stationary point found.
 Normal termination of Gaussian 16 at Fri Dec 11 20:37:58 2020.

 --------------------------------------------------------------------
 #N Geom=AllCheck Guess=TCheck SCRF=Check GenChk RB3LYP/6-31G(d) Freq
 --------------------------------------------------------------------

 Structure from the checkpoint file:  "JID_8384.chk"
 -------------------------------
 CID_116061958_JID_8384_neutraal
 -------------------------------
 Charge =  0 Multiplicity = 1

 SCF Done:  E(RB3LYP) =  -1114.89635913     A.U. after    1 cycles

  Exact polarizability: 210.997  -0.408 153.117   1.747   5.504 167.278
 Approx polarizability: 306.053  -3.126 215.692   3.290  16.370 286.664

                      1                      2                      3
                      A                      A                      A
 Frequencies --     18.1255                27.4018                52.6674
 Red. masses --      4.1868                 3.2979                 4.7157
 Frc consts  --      0.0008                 0.0015                 0.0077
 IR Inten    --      0.1935                 0.1298                 1.4209

                      4                      5                      6
                      A                      A                      A
 Frequencies --     60.5859                66.4184                81.6301
 Red. masses --      4.6139                 3.9437                 3.0806
 Frc consts  --      0.0100                 0.0103                 0.0121
 IR Inten    --      0.2178                 0.9067                 0.8657

                      7                      8                      9
                      A                      A                      A
 Frequencies --     96.9610               116.2787               142.1129
 Red. masses --      3.1810                 4.8445                 3.0472
 Frc consts  --      0.0176                 0.0386                 0.0363
 IR Inten    --      0.4135                 0.1552                 2.1380

                     10                     11                     12
                      A                      A                      A
 Frequencies --    170.2402               177.8907               201.2951
 Red. masses --      1.7713                 1.4167                 3.0528
 Frc consts  --      0.0302                 0.0264                 0.0729
 IR Inten    --      0.2057                 0.1791                 0.2279

                     13                     14                     15
                      A                      A                      A
 Frequencies --    204.3077               243.1779               250.7075
 Red. masses --      2.8944                 3.3499                 1.2810
 Frc consts  --      0.0712                 0.1167                 0.0474
 IR Inten    --      0.6755                 0.8199                 1.8659

                     16                     17                     18
                      A                      A                      A
 Frequencies --    268.3556               299.2322               324.9160
 Red. masses --      1.2586                 2.8687                 2.1810
 Frc consts  --      0.0534                 0.1513                 0.1357
 IR Inten    --      0.3173                 0.3800                 3.4577

                     19                     20                     21
                      A                      A                      A
 Frequencies --    346.4954               349.9682               363.1950
 Red. masses --      2.0975                 1.2699                 2.1463
 Frc consts  --      0.1484                 0.0916                 0.1668
 IR Inten    --      4.7435               119.6040                12.7422

                     22                     23                     24
                      A                      A                      A
 Frequencies --    367.8555               397.0097               418.1895
 Red. masses --      2.6787                 2.9242                 3.0816
 Frc consts  --      0.2136                 0.2716                 0.3175
 IR Inten    --      4.7491                 0.8428                 4.5847

                     25                     26                     27
                      A                      A                      A
 Frequencies --    432.2533               436.4271               457.4035
 Red. masses --      3.1135                 2.6041                 2.4485
 Frc consts  --      0.3427                 0.2922                 0.3018
 IR Inten    --      6.0629                 1.6570                 0.9736

                     28                     29                     30
                      A                      A                      A
 Frequencies --    484.1037               491.0201               553.0176
 Red. masses --      3.9216                 2.2625                 2.4109
 Frc consts  --      0.5415                 0.3214                 0.4344
 IR Inten    --      7.5758                 9.1063                14.0331

                     31                     32                     33
                      A                      A                      A
 Frequencies --    596.1591               659.7371               663.5177
 Red. masses --      2.4208                 6.7547                 2.9883
 Frc consts  --      0.5069                 1.7322                 0.7751
 IR Inten    --      2.7699                 0.6369                 6.8245

                     34                     35                     36
                      A                      A                      A
 Frequencies --    706.4711               720.9908               723.4077
 Red. masses --      2.4898                 5.0339                 2.8887
 Frc consts  --      0.7322                 1.5417                 0.8907
 IR Inten    --     13.8228                 2.7114                27.2823

                     37                     38                     39
                      A                      A                      A
 Frequencies --    739.8912               801.5426               813.4423
 Red. masses --      3.2083                 2.3759                 1.3409
 Frc consts  --      1.0348                 0.8994                 0.5228
 IR Inten    --     17.8854                 6.4092                21.9010

                     40                     41                     42
                      A                      A                      A
 Frequencies --    837.1644               841.6374               858.3010
 Red. masses --      1.5933                 2.0529                 4.6973
 Frc consts  --      0.6579                 0.8568                 2.0388
 IR Inten    --     27.7278                 2.1511                 6.3866

                     43                     44                     45
                      A                      A                      A
 Frequencies --    875.5736               910.4462               927.0976
 Red. masses --      2.2210                 1.7872                 1.4404
 Frc consts  --      1.0032                 0.8729                 0.7294
 IR Inten    --      0.7717                 2.5375                 2.1334

                     46                     47                     48
                      A                      A                      A
 Frequencies --    943.4293               949.4163               956.6911
 Red. masses --      1.6237                 1.4234                 1.6088
 Frc consts  --      0.8515                 0.7560                 0.8675
 IR Inten    --      0.8449                 0.4881                 0.3032

                     49                     50                     51
                      A                      A                      A
 Frequencies --    969.0630               982.4699               985.4783
 Red. masses --      1.8014                 1.2761                 1.2039
 Frc consts  --      0.9967                 0.7257                 0.6889
 IR Inten    --      1.0590                 4.6082                 2.5090

                     52                     53                     54
                      A                      A                      A
 Frequencies --   1000.8673              1017.1534              1038.6493
 Red. masses --      1.8975                 1.7109                 2.6747
 Frc consts  --      1.1199                 1.0429                 1.7001
 IR Inten    --      4.5162                 1.4386                 0.5870

                     55                     56                     57
                      A                      A                      A
 Frequencies --   1064.0217              1075.7244              1102.1484
 Red. masses --      1.8054                 1.7446                 1.8391
 Frc consts  --      1.2043                 1.1894                 1.3163
 IR Inten    --     15.0441                 5.8982                 2.5039

                     58                     59                     60
                      A                      A                      A
 Frequencies --   1134.6447              1146.3900              1149.8850
 Red. masses --      1.5883                 1.7875                 1.9781
 Frc consts  --      1.2048                 1.3841                 1.5411
 IR Inten    --     12.7485                 8.8551                 7.0990

                     61                     62                     63
                      A                      A                      A
 Frequencies --   1165.5143              1205.7034              1208.9038
 Red. masses --      2.4858                 1.7395                 1.2584
 Frc consts  --      1.9895                 1.4899                 1.0835
 IR Inten    --     32.9541                29.2985                13.3825

                     64                     65                     66
                      A                      A                      A
 Frequencies --   1213.7612              1225.1445              1240.2094
 Red. masses --      1.4906                 1.2932                 2.3763
 Frc consts  --      1.2938                 1.1436                 2.1535
 IR Inten    --     69.7291                67.0690                 1.0896

                     67                     68                     69
                      A                      A                      A
 Frequencies --   1253.0336              1277.7898              1294.4769
 Red. masses --      1.2905                 1.1589                 1.2788
 Frc consts  --      1.1938                 1.1149                 1.2626
 IR Inten    --      7.0649                 2.6233                 8.9155

                     70                     71                     72
                      A                      A                      A
 Frequencies --   1307.2040              1319.8926              1348.2307
 Red. masses --      3.6972                 1.2015                 1.5067
 Frc consts  --      3.7222                 1.2333                 1.6136
 IR Inten    --     72.2114                21.9116                 8.9366

                     73                     74                     75
                      A                      A                      A
 Frequencies --   1366.1299              1371.7655              1384.3953
 Red. masses --      1.4261                 1.2376                 1.2841
 Frc consts  --      1.5682                 1.3722                 1.4500
 IR Inten    --      6.6437                 3.0902                 4.3986

                     76                     77                     78
                      A                      A                      A
 Frequencies --   1385.7147              1386.7484              1394.6629
 Red. masses --      1.9226                 1.5194                 1.4176
 Frc consts  --      2.1752                 1.7215                 1.6246
 IR Inten    --     30.3130                 7.8028                 0.2709

                     79                     80                     81
                      A                      A                      A
 Frequencies --   1405.3543              1416.4533              1428.9450
 Red. masses --      1.3789                 1.2795                 1.3027
 Frc consts  --      1.6046                 1.5125                 1.5672
 IR Inten    --      2.5345                31.1060                 3.0803

                     82                     83                     84
                      A                      A                      A
 Frequencies --   1438.0737              1441.6018              1490.7826
 Red. masses --      1.2777                 1.2622                 2.6306
 Frc consts  --      1.5568                 1.5455                 3.4445
 IR Inten    --     12.7509                19.9711                24.5815

                     85                     86                     87
                      A                      A                      A
 Frequencies --   1500.4551              1509.1373              1513.3028
 Red. masses --      1.0566                 1.0815                 1.0838
 Frc consts  --      1.4016                 1.4512                 1.4623
 IR Inten    --      7.9337                 1.8812                 4.5727

                     88                     89                     90
                      A                      A                      A
 Frequencies --   1516.2570              1518.1701              1521.6995
 Red. masses --      1.1031                 1.0617                 1.1122
 Frc consts  --      1.4942                 1.4418                 1.5174
 IR Inten    --     11.6583                10.5473                 0.0272

                     91                     92                     93
                      A                      A                      A
 Frequencies --   1525.7800              1527.0852              1528.5098
 Red. masses --      1.1127                 1.0712                 1.0791
 Frc consts  --      1.5261                 1.4718                 1.4855
 IR Inten    --      0.1656                 7.8649                 9.2125

                     94                     95                     96
                      A                      A                      A
 Frequencies --   1537.4802              1540.8776              1569.0205
 Red. masses --      1.0700                 1.0681                 2.6963
 Frc consts  --      1.4903                 1.4942                 3.9110
 IR Inten    --      7.7789                 2.6022                81.1920

                     97                     98                     99
                      A                      A                      A
 Frequencies --   1655.1916              1679.2530              2931.0248
 Red. masses --      5.8122                 5.9808                 1.0744
 Frc consts  --      9.3818                 9.9367                 5.4383
 IR Inten    --     10.2009                31.6061                90.4426

                    100                    101                    102
                      A                      A                      A
 Frequencies --   2958.1741              3030.3726              3043.4006
 Red. masses --      1.0827                 1.0671                 1.0591
 Frc consts  --      5.5820                 5.7734                 5.7797
 IR Inten    --     51.8012                28.4246                20.6678

                    103                    104                    105
                      A                      A                      A
 Frequencies --   3044.4327              3048.2452              3050.7938
 Red. masses --      1.0442                 1.0406                 1.0553
 Frc consts  --      5.7022                 5.6969                 5.7871
 IR Inten    --     19.1686                20.1549                56.5121

                    106                    107                    108
                      A                      A                      A
 Frequencies --   3062.0188              3074.2704              3081.7443
 Red. masses --      1.0314                 1.0921                 1.0989
 Frc consts  --      5.6975                 6.0813                 6.1487
 IR Inten    --     38.0836                 4.8959                24.9127

                    109                    110                    111
                      A                      A                      A
 Frequencies --   3090.9792              3095.3172              3107.4694
 Red. masses --      1.0964                 1.0959                 1.0991
 Frc consts  --      6.1715                 6.1863                 6.2532
 IR Inten    --     76.1607                30.0915                33.6250

                    112                    113                    114
                      A                      A                      A
 Frequencies --   3110.3765              3122.6313              3140.1205
 Red. masses --      1.1015                 1.1018                 1.1059
 Frc consts  --      6.2786                 6.3300                 6.4248
 IR Inten    --     38.2933                28.4465                18.8748

                    115                    116                    117
                      A                      A                      A
 Frequencies --   3143.0788              3150.0885              3172.4651
 Red. masses --      1.1006                 1.1036                 1.0834
 Frc consts  --      6.4061                 6.4519                 6.4243
 IR Inten    --      7.5974                11.3276                 1.2324

                    118                    119                    120
                      A                      A                      A
 Frequencies --   3175.9081              3191.6841              3193.3590
 Red. masses --      1.0868                 1.0918                 1.0904
 Frc consts  --      6.4586                 6.5528                 6.5516
 IR Inten    --     13.3969                24.8406                 4.2208

                    121                    122                    123
                      A                      A                      A
 Frequencies --   3215.1840              3528.5613              3749.9732
 Red. masses --      1.0939                 1.0752                 1.0658
 Frc consts  --      6.6625                 7.8874                 8.8308
 IR Inten    --      9.6884                 0.1893                41.2696

 - Thermochemistry -
 -------------------
 Temperature   298.150 Kelvin.  Pressure   1.00000 Atm.
 Atom     1 has atomic number  6 and mass  12.00000

 Molecular mass:   267.16569 amu.
 Principal axes and moments of inertia in atomic units:
                           1         2         3
     Eigenvalues --  4153.610765423.050897461.97909
           X            0.99926   0.03836  -0.00354
           Y           -0.03841   0.99915  -0.01506
           Z            0.00296   0.01519   0.99988
 This molecule is an asymmetric top.
 Rotational symmetry number  1.
 Warning -- assumption of classical behavior for rotation
           may cause significant error
 Rotational temperatures (Kelvin)      0.02085     0.01597     0.01161
 Rotational constants (GHZ):           0.43450     0.33279     0.24186
 Zero-point vibrational energy    1000168.1 (Joules/Mol)
                                  239.04590 (Kcal/Mol)
 Warning -- explicit consideration of  31 degrees of freedom as
           vibrations may cause significant error
 Vibrational temperatures:     26.08    39.43    75.78    87.17    95.56
          (Kelvin)            117.45   139.51   167.30   204.47   244.94
                              255.95   289.62   293.95   349.88   360.71
                              386.10   430.53   467.48   498.53   503.53
                              522.56   529.26   571.21   601.68   621.92
                              627.92   658.10   696.52   706.47   795.67
                              857.74   949.21   954.65  1016.45  1037.34
                             1040.82  1064.54  1153.24  1170.36  1204.49
                             1210.93  1234.90  1259.76  1309.93  1333.89
                             1357.38  1366.00  1376.47  1394.27  1413.56
                             1417.88  1440.02  1463.46  1494.38  1530.89
                             1547.73  1585.75  1632.50  1649.40  1654.43
                             1676.92  1734.74  1739.34  1746.33  1762.71
                             1784.38  1802.84  1838.45  1862.46  1880.77
                             1899.03  1939.80  1965.56  1973.66  1991.84
                             1993.73  1995.22  2006.61  2021.99  2037.96
                             2055.93  2069.07  2074.14  2144.90  2158.82
                             2171.31  2177.31  2181.56  2184.31  2189.39
                             2195.26  2197.14  2199.18  2212.09  2216.98
                             2257.47  2381.45  2416.07  4217.09  4256.15
                             4360.03  4378.77  4380.26  4385.74  4389.41
                             4405.56  4423.19  4433.94  4447.23  4453.47
                             4470.96  4475.14  4492.77  4517.93  4522.19
                             4532.27  4564.47  4569.42  4592.12  4594.53
                             4625.93  5076.81  5395.37

 Zero-point correction=                           0.380944 (Hartree/Particle)
 Thermal correction to Energy=                    0.401094
 Thermal correction to Enthalpy=                  0.402038
 Thermal correction to Gibbs Free Energy=         0.331270
 Sum of electronic and zero-point Energies=          -1114.515415
 Sum of electronic and thermal Energies=             -1114.495265
 Sum of electronic and thermal Enthalpies=           -1114.494321
 Sum of electronic and thermal Free Energies=        -1114.565089

                     E (Thermal)             CV                S
                      KCal/Mol        Cal/Mol-Kelvin    Cal/Mol-Kelvin
 Total                  251.690             76.506            148.944
 Electronic               0.000              0.000              0.000
 Translational            0.889              2.981             42.647
 Rotational               0.889              2.981             33.485
 Vibrational            249.913             70.545             72.811
 Vibration     1          0.593              1.986              6.830
 Vibration     2          0.593              1.984              6.009
 Vibration     3          0.596              1.977              4.715
 Vibration     4          0.597              1.973              4.438
 Vibration     5          0.598              1.970              4.257
 Vibration     6          0.600              1.962              3.851
 Vibration     7          0.603              1.951              3.515
 Vibration     8          0.608              1.936              3.161
 Vibration     9          0.616              1.911              2.775
 Vibration    10          0.625              1.879              2.433
 Vibration    11          0.628              1.870              2.350
 Vibration    12          0.638              1.838              2.121
 Vibration    13          0.640              1.834              2.094
 Vibration    14          0.659              1.774              1.780
 Vibration    15          0.663              1.762              1.726
 Vibration    16          0.673              1.731              1.607
 Vibration    17          0.692              1.675              1.421
 Vibration    18          0.709              1.626              1.285
 Vibration    19          0.724              1.582              1.182
 Vibration    20          0.727              1.575              1.166
 Vibration    21          0.737              1.548              1.108
 Vibration    22          0.740              1.538              1.089
 Vibration    23          0.764              1.477              0.974
 Vibration    24          0.781              1.431              0.898
 Vibration    25          0.793              1.400              0.851
 Vibration    26          0.797              1.391              0.838
 Vibration    27          0.816              1.345              0.774
 Vibration    28          0.840              1.285              0.699
 Vibration    29          0.847              1.270              0.681
 Vibration    30          0.908              1.133              0.538
 Vibration    31          0.954              1.040              0.456

                           ! Non-Optimized Parameters !
 Normal termination of Gaussian 16 at Fri Dec 11 21:02:38 2020.

 ----------------------------------------------------------------------
 # B3LYP/6-311++G(d,p) empiricaldispersion=gd3bj scf=xqc pop=npa geom=c
 heck
 ----------------------------------------------------------------------

 ---------------------------------------
 CID_116061958_JID_8384_Energie_neutraal
 ---------------------------------------
 Structure from the checkpoint file:  "JID_8384.chk"
 Charge =  0 Multiplicity = 1

 SCF Done:  E(RB3LYP) =  -1115.13027106     A.U. after   15 cycles
 Normal termination of Gaussian 16 at Fri Dec 11 21:14:56 2020.

 ----------------------------------------------------------------------
 # B3LYP/6-311++G(d,p) empiricaldispersion=gd3bj scf=xqc pop=npa geom=c
 heck
 ----------------------------------------------------------------------

 -------------------------------------
 CID_116061958_JID_8384_Energie_kation
 -------------------------------------
 Structure from the checkpoint file:  "JID_8384.chk"
 Charge =  1 Multiplicity = 2

 SCF Done:  E(UB3LYP) =  -1114.86309595     A.U. after   24 cycles
 Normal termination of Gaussian 16 at Fri Dec 11 21:43:22 2020.
 Gaussian 16:  ES64L-G16RevA.03 25-Dec-2016

 ----------------------------------------------------------------------
 # B3LYP/6-311++G(d,p) empiricaldispersion=gd3bj scf=xqc pop=npa geom=c
 heck
 ----------------------------------------------------------------------

 ------------------------------------
 CID_116061958_JID_8384_Energie_anion
 ------------------------------------
 Structure from the checkpoint file:  "JID_8384.chk"
 Charge = -1 Multiplicity = 2

                         Standard orientation:
 ---------------------------------------------------------------------
 Center     Atomic      Atomic             Coordinates (Angstroms)
 Number     Number       Type             X           Y           Z
 ---------------------------------------------------------------------
      1          6           0       -4.309030    0.312655   -0.342574
      2          6           0       -2.950014    0.830617    0.141517
      3          6           0       -2.440429    0.047131    1.370070
      4          6           0       -2.217021   -1.474796    1.191512
      5          6           0       -0.869377   -1.841802    0.615174
      6          6           0        0.265070   -1.844548    1.433362
      7          6           0        1.537630   -2.077015    0.913613
      8          6           0        1.692947   -2.311043   -0.454119
      9          6           0        0.568028   -2.362878   -1.281605
     10          6           0       -0.693677   -2.129432   -0.743553
     11          8           0        2.921018   -2.480984   -1.038243
     12          7           0       -1.994891    0.844842   -0.979496
     13          6           0       -1.286059    2.104922   -1.197125
     14          6           0       -0.098335    2.304147   -0.245812
     15          6           0        0.949223    1.187953   -0.334493
     16          6           0        1.650163    1.101540   -1.690446
     17         16           0        2.156044    1.264180    1.062534
     18          6           0        2.902670    2.915742    0.827293
     19          1           0       -4.212187   -0.676466   -0.805721
     20          1           0       -4.737502    0.992003   -1.088453
     21          1           0       -5.020152    0.223899    0.485486
     22          1           0       -3.104131    1.868212    0.486248
     23          1           0       -1.505671    0.498713    1.721710
     24          1           0       -3.177922    0.199510    2.170418
     25          1           0       -2.314125   -1.941822    2.179622
     26          1           0       -3.016693   -1.904176    0.577420
     27          1           0        0.160888   -1.631673    2.494453
     28          1           0        2.408403   -2.043497    1.563663
     29          1           0        0.703486   -2.556319   -2.340807
     30          1           0       -1.558205   -2.132849   -1.400725
     31          1           0        3.603056   -2.296528   -0.373803
     32          1           0       -2.477609    0.590010   -1.834915
     33          1           0       -0.925776    2.104883   -2.231678
     34          1           0       -1.956558    2.980294   -1.096123
     35          1           0        0.357119    3.276880   -0.474855
     36          1           0       -0.465386    2.366975    0.785306
     37          1           0        0.439750    0.242765   -0.149869
     38          1           0        2.166618    2.035889   -1.941972
     39          1           0        2.379231    0.287441   -1.694670
     40          1           0        0.922007    0.897491   -2.483529
     41          1           0        3.366911    3.012048   -0.158246
     42          1           0        2.172236    3.717170    0.967685
     43          1           0        3.680873    3.017090    1.588347
 ---------------------------------------------------------------------

 SCF Done:  E(UB3LYP) =  -1115.11776128     A.U. after   33 cycles
 SCF Done:  E(UB3LYP) =  -1115.11776128     a.u. after    1 cycles

 The electronic state is 2-A.
 Alpha  occ. eigenvalues --  -88.73407 -19.06643 -14.19626 -10.14304 -10.10425
 Alpha  occ. eigenvalues --  -10.09630 -10.09565 -10.09379 -10.08326 -10.08272
 Alpha  occ. eigenvalues --  -10.08184 -10.08077 -10.07897 -10.07771 -10.07061
 Alpha  occ. eigenvalues --  -10.06968 -10.06633 -10.06176  -7.82008  -5.78410
 Alpha  occ. eigenvalues --   -5.78034  -5.77375  -0.97529  -0.81185  -0.76629
 Alpha  occ. eigenvalues --   -0.72326  -0.69892  -0.66810  -0.65939  -0.64827
 Alpha  occ. eigenvalues --   -0.61982  -0.60613  -0.56303  -0.55620  -0.53306
 Alpha  occ. eigenvalues --   -0.51694  -0.50049  -0.47041  -0.45626  -0.44904
 Alpha  occ. eigenvalues --   -0.40469  -0.39483  -0.38318  -0.37249  -0.36818
 Alpha  occ. eigenvalues --   -0.35739  -0.35045  -0.34804  -0.33358  -0.33153
 Alpha  occ. eigenvalues --   -0.32470  -0.31926  -0.31159  -0.30981  -0.30156
 Alpha  occ. eigenvalues --   -0.29903  -0.29503  -0.28548  -0.27671  -0.27379
 Alpha  occ. eigenvalues --   -0.26626  -0.25316  -0.25199  -0.24511  -0.23985
 Alpha  occ. eigenvalues --   -0.23065  -0.22754  -0.21918  -0.20131  -0.16604
 Alpha  occ. eigenvalues --   -0.14027  -0.12290  -0.12110   0.04013
 Alpha virt. eigenvalues --    0.05552   0.06169   0.06653   0.07367   0.07478
 Alpha virt. eigenvalues --    0.07932   0.08297   0.08781   0.09036   0.09527
 Alpha virt. eigenvalues --    0.10079   0.10307   0.10476   0.11016   0.11268

  Beta  occ. eigenvalues --  -88.73403 -19.06627 -14.19610 -10.14297 -10.10417
  Beta  occ. eigenvalues --  -10.09629 -10.09544 -10.09345 -10.08321 -10.08268
  Beta  occ. eigenvalues --  -10.08181 -10.08063 -10.07894 -10.07762 -10.07052
  Beta  occ. eigenvalues --  -10.06958 -10.06593 -10.06159  -7.82005  -5.78404
  Beta  occ. eigenvalues --   -5.78026  -5.77372  -0.97498  -0.81160  -0.76614
  Beta  occ. eigenvalues --   -0.72307  -0.69868  -0.66779  -0.65923  -0.64793
  Beta  occ. eigenvalues --   -0.61948  -0.60570  -0.56255  -0.55577  -0.53280
  Beta  occ. eigenvalues --   -0.51651  -0.50017  -0.47007  -0.45592  -0.44872
  Beta  occ. eigenvalues --   -0.40441  -0.39443  -0.38284  -0.37223  -0.36788
  Beta  occ. eigenvalues --   -0.35711  -0.35023  -0.34783  -0.33340  -0.33120
  Beta  occ. eigenvalues --   -0.32442  -0.31899  -0.31133  -0.30953  -0.30129
  Beta  occ. eigenvalues --   -0.29868  -0.29476  -0.28518  -0.27640  -0.27349
  Beta  occ. eigenvalues --   -0.26590  -0.25297  -0.25168  -0.24494  -0.23959
  Beta  occ. eigenvalues --   -0.23036  -0.22729  -0.21897  -0.20102  -0.16582
  Beta  occ. eigenvalues --   -0.14000  -0.12272  -0.12074
  Beta virt. eigenvalues --    0.05911   0.06422   0.06709   0.07190   0.07541
  Beta virt. eigenvalues --    0.07808   0.08326   0.08683   0.08941   0.09202
  Beta virt. eigenvalues --    0.09731   0.10411   0.10736   0.10782   0.11277

 Mulliken charges and spin densities:
               1          2
     1  C    1.310374  -1.943512
     2  C   -1.280291   0.921876
     3  C    0.071834  -0.124715
     4  C    1.561315  -2.128676
     5  C   -0.326312   0.839977
     6  C   -0.654628   0.256486
     7  C   -0.266646   0.452057
     8  C    0.294663  -1.085284
     9  C   -0.092230  -0.019956
    10  C   -0.613191   0.569168
    11  O   -0.205711   0.032788
    12  N   -0.129687   0.173659
    13  C    0.571390  -1.311416
    14  C   -1.231694   0.930320
    15  C    0.932131   0.296810
    16  C   -0.051451  -0.687282
    17  S   -0.687233   0.499048
    18  C    0.283088  -0.817958
    19  H   -0.098608   0.245326
    20  H   -0.471434   0.633357
    21  H   -0.139986   0.283433
    22  H    0.030626   0.112054
    23  H    0.304823  -0.167296
    24  H   -0.261694   0.440798
    25  H    0.036218   0.133054
    26  H    0.153357  -0.014344
    27  H    0.022450   0.134342
    28  H   -0.230576   0.380879
    29  H    0.048996   0.140826
    30  H   -0.333477   0.507759
    31  H    0.131077   0.134010
    32  H    0.220751   0.051270
    33  H   -0.416133   0.544875
    34  H   -0.178859   0.337389
    35  H    0.027038   0.115568
    36  H   -0.032264   0.206136
    37  H    0.950796  -1.281930
    38  H   -0.117187   0.276355
    39  H    0.141598   0.052240
    40  H    0.148718  -0.045032
    41  H   -0.025764   0.188826
    42  H   -0.102214   0.264761
    43  H   -0.293969   0.471956
 Sum of Mulliken charges =  -1.00000   1.00000

 Dipole moment (field-independent basis, Debye):
    X=              2.5203    Y=             -2.6913    Z=              1.5153  Tot=              3.9864
 Quadrupole moment (field-independent basis, Debye-Ang):
   XX=           -200.6555   YY=           -175.7974   ZZ=           -161.1458
   XY=             -0.1317   XZ=             -5.1666   YZ=              0.5533

 Summary of Natural Population Analysis:

                                       Natural Population
                Natural  -----------------------------------------------
    Atom  No    Charge         Core      Valence    Rydberg      Total
 -----------------------------------------------------------------------
      C    1   -0.29101      0.99964     2.28554    0.00583     3.29101
      C    2   -0.00888      0.99960     1.99661    0.01268     3.00888
      C    3   -0.18583      0.99959     2.17729    0.00895     3.18583
      C    4   -0.19904      0.99959     2.18943    0.01002     3.19904
      C    5   -0.02991      0.99951     2.01997    0.01043     3.02991
      C    6   -0.08230      0.99951     2.07650    0.00628     3.08230
      C    7   -0.14382      0.99953     2.13211    0.01217     3.14382
      C    8    0.15141      0.99938     1.83620    0.01302     2.84859
      C    9   -0.12701      0.99951     2.11839    0.00911     3.12701
      C   10   -0.08059      0.99951     2.07203    0.00905     3.08059
      O   11   -0.34246      0.99988     3.33613    0.00646     4.34246
      N   12   -0.34760      0.99972     2.83463    0.01325     3.84760
      C   13   -0.08075      0.99961     2.06900    0.01214     3.08075
      C   14   -0.19793      0.99959     2.18840    0.00994     3.19793
      C   15   -0.18249      0.99954     2.16844    0.01450     3.18249
      C   16   -0.29018      0.99962     2.28369    0.00687     3.29018
      S   17    0.08616      4.99962     2.89610    0.01811     7.91384
      C   18   -0.35556      0.99962     2.34932    0.00662     3.35556
      H   19    0.09664      0.00000     0.40182    0.00153     0.40336
      H   20    0.10294      0.00000     0.39563    0.00143     0.39706
      H   21    0.10197      0.00000     0.39685    0.00118     0.39803
      H   22    0.08418      0.00000     0.41360    0.00222     0.41582
      H   23    0.10014      0.00000     0.39805    0.00181     0.39986
      H   24    0.09580      0.00000     0.40314    0.00106     0.40420
      H   25    0.10076      0.00000     0.39822    0.00102     0.39924
      H   26    0.10066      0.00000     0.39781    0.00153     0.39934
      H   27    0.09945      0.00000     0.39911    0.00144     0.40055
      H   28    0.10281      0.00000     0.39585    0.00134     0.39719
      H   29    0.10547      0.00000     0.39334    0.00119     0.39453
      H   30    0.10196      0.00000     0.39651    0.00154     0.39804
      H   31    0.23460      0.00000     0.26230    0.00311     0.26540
      H   32    0.17640      0.00000     0.32014    0.00346     0.32360
      H   33    0.09367      0.00000     0.40504    0.00129     0.40633
      H   34    0.08091      0.00000     0.41752    0.00157     0.41909
      H   35    0.09767      0.00000     0.40090    0.00143     0.40233
      H   36    0.10038      0.00000     0.39799    0.00164     0.39962
      H   37    0.12161      0.00000     0.37311    0.00528     0.37839
      H   38    0.09499      0.00000     0.40401    0.00100     0.40501
      H   39    0.10659      0.00000     0.39198    0.00143     0.39341
      H   40    0.10097      0.00000     0.39785    0.00118     0.39903
      H   41    0.10069      0.00000     0.39780    0.00152     0.39931
      H   42    0.10017      0.00000     0.39837    0.00146     0.39983
      H   43    0.10641      0.00000     0.39249    0.00110     0.39359
 =======================================================================
   * Total *    0.00003     21.99258    50.77922    0.22817    72.99997

 Normal termination of Gaussian 16 at Fri Dec 11 22:22:05 2020.
