 Gaussian 16, Revision A.03,

 -----------------------------------------------------------
 # opt freq B3LYP/6-31G(d) empiricaldispersion=gd3bj scf=xqc
 -----------------------------------------------------------

 -------------------------------
 CID_149851071_JID_3142_neutraal
 -------------------------------
 Symbolic Z-matrix:
 Charge =  0 Multiplicity = 1

 SCF Done:  E(RB3LYP) =  -607.432125009     A.U. after   16 cycles
 SCF Done:  E(RB3LYP) =  -607.438995359     A.U. after   16 cycles
 SCF Done:  E(RB3LYP) =  -607.443056123     A.U. after   15 cycles
 SCF Done:  E(RB3LYP) =  -607.442754614     A.U. after   15 cycles
 SCF Done:  E(RB3LYP) =  -607.445121834     A.U. after   15 cycles
 SCF Done:  E(RB3LYP) =  -607.446136069     A.U. after   14 cycles
 SCF Done:  E(RB3LYP) =  -607.446823919     A.U. after   16 cycles
 SCF Done:  E(RB3LYP) =  -607.447170959     A.U. after   16 cycles
 SCF Done:  E(RB3LYP) =  -607.447310714     A.U. after   14 cycles
 SCF Done:  E(RB3LYP) =  -607.447430852     A.U. after   14 cycles
 SCF Done:  E(RB3LYP) =  -607.451045560     A.U. after   13 cycles
 SCF Done:  E(RB3LYP) =  -607.451049080     A.U. after   12 cycles
 SCF Done:  E(RB3LYP) =  -607.451049864     A.U. after   10 cycles
 SCF Done:  E(RB3LYP) =  -607.451050000     A.U. after    9 cycles
 SCF Done:  E(RB3LYP) =  -607.451050256     A.U. after    8 cycles
 Optimization completed.
    -- Stationary point found.
 Normal termination of Gaussian 16 at Wed Dec  9 22:40:15 2020.

 --------------------------------------------------------------------
 #N Geom=AllCheck Guess=TCheck SCRF=Check GenChk RB3LYP/6-31G(d) Freq
 --------------------------------------------------------------------

 Structure from the checkpoint file:  "JID_3142.chk"
 -------------------------------
 CID_149851071_JID_3142_neutraal
 -------------------------------
 Charge =  0 Multiplicity = 1

 SCF Done:  E(RB3LYP) =  -607.451050256     A.U. after    1 cycles

  Exact polarizability: 154.709   1.973  91.859   5.520   2.344  89.766
 Approx polarizability: 222.028  -2.826 135.218  10.320   6.669 147.497

                      1                      2                      3
                      A                      A                      A
 Frequencies --     24.7780                39.0459                69.4962
 Red. masses --      8.7450                 7.3812                 4.9303
 Frc consts  --      0.0032                 0.0066                 0.0140
 IR Inten    --      0.4508                 1.2633                 2.7461

                      4                      5                      6
                      A                      A                      A
 Frequencies --     78.9803               129.6476               147.9947
 Red. masses --      4.7825                 7.1938                 2.2297
 Frc consts  --      0.0176                 0.0712                 0.0288
 IR Inten    --      2.5431                 3.0135                 2.7961

                      7                      8                      9
                      A                      A                      A
 Frequencies --    200.8030               223.2439               280.3923
 Red. masses --      3.0156                 3.3309                 3.5558
 Frc consts  --      0.0716                 0.0978                 0.1647
 IR Inten    --      1.4181                 5.7779                 1.1307

                     10                     11                     12
                      A                      A                      A
 Frequencies --    289.3376               304.7953               354.0258
 Red. masses --      3.0054                 3.0023                 2.2783
 Frc consts  --      0.1482                 0.1643                 0.1682
 IR Inten    --      1.6940                 1.4629                 1.3100

                     13                     14                     15
                      A                      A                      A
 Frequencies --    420.4170               440.0646               455.9515
 Red. masses --      2.4210                 2.2073                 2.8908
 Frc consts  --      0.2521                 0.2519                 0.3541
 IR Inten    --      0.4960                 1.0353                 7.1846

                     16                     17                     18
                      A                      A                      A
 Frequencies --    511.2572               564.8341               640.8595
 Red. masses --      3.2502                12.7508                 3.7583
 Frc consts  --      0.5005                 2.3968                 0.9094
 IR Inten    --      3.0049                11.5481                 6.6116

                     19                     20                     21
                      A                      A                      A
 Frequencies --    680.4173               695.0603               722.2677
 Red. masses --      3.1294                 1.7395                 2.3544
 Frc consts  --      0.8536                 0.4951                 0.7237
 IR Inten    --     28.2792                 9.0955                16.3352

                     22                     23                     24
                      A                      A                      A
 Frequencies --    794.4795               807.4062               842.4717
 Red. masses --      1.5035                 3.3490                 2.6256
 Frc consts  --      0.5591                 1.2863                 1.0980
 IR Inten    --      1.3579                 7.8443                 1.2325

                     25                     26                     27
                      A                      A                      A
 Frequencies --    889.1130               911.0696               922.0696
 Red. masses --      3.8862                 2.7304                 2.2964
 Frc consts  --      1.8100                 1.3353                 1.1503
 IR Inten    --      9.5200                17.4244                 7.6946

                     28                     29                     30
                      A                      A                      A
 Frequencies --    956.6632               964.8933               985.5378
 Red. masses --      1.4827                 2.8083                 1.5362
 Frc consts  --      0.7995                 1.5405                 0.8791
 IR Inten    --      1.2407                27.1917                12.0357

                     31                     32                     33
                      A                      A                      A
 Frequencies --   1005.2554              1024.3309              1057.1877
 Red. masses --      2.1951                 1.6042                 1.8177
 Frc consts  --      1.3069                 0.9917                 1.1970
 IR Inten    --      5.2423                 7.3759                13.6282

                     34                     35                     36
                      A                      A                      A
 Frequencies --   1103.1611              1106.3741              1124.3256
 Red. masses --      1.5301                 1.9052                 2.1495
 Frc consts  --      1.0971                 1.3741                 1.6009
 IR Inten    --      2.9196                 2.4941                15.2904

                     37                     38                     39
                      A                      A                      A
 Frequencies --   1168.0231              1182.1808              1214.8155
 Red. masses --      2.2656                 1.6120                 1.4706
 Frc consts  --      1.8211                 1.3274                 1.2787
 IR Inten    --      2.0895                 2.1311                 2.3378

                     40                     41                     42
                      A                      A                      A
 Frequencies --   1231.5844              1256.1198              1293.1127
 Red. masses --      1.8321                 2.2795                 1.3389
 Frc consts  --      1.6373                 2.1191                 1.3190
 IR Inten    --     19.8982                42.7825                11.9458

                     43                     44                     45
                      A                      A                      A
 Frequencies --   1305.5091              1326.3580              1354.1327
 Red. masses --      1.2558                 1.2837                 1.3463
 Frc consts  --      1.2610                 1.3306                 1.4545
 IR Inten    --      5.6978                10.5817                 0.9037

                     46                     47                     48
                      A                      A                      A
 Frequencies --   1364.4564              1373.2458              1393.8480
 Red. masses --      1.4533                 1.5012                 1.4006
 Frc consts  --      1.5941                 1.6680                 1.6032
 IR Inten    --      1.2712                 5.2672                 2.9842

                     49                     50                     51
                      A                      A                      A
 Frequencies --   1396.1146              1402.5145              1412.0603
 Red. masses --      1.4148                 1.5709                 1.4140
 Frc consts  --      1.6248                 1.8206                 1.6611
 IR Inten    --      1.9074                 5.3776                 8.7242

                     52                     53                     54
                      A                      A                      A
 Frequencies --   1429.3062              1438.9454              1475.1274
 Red. masses --      1.5452                 1.2217                 1.1085
 Frc consts  --      1.8599                 1.4905                 1.4211
 IR Inten    --      6.3814                 9.2091                16.1452

                     55                     56                     57
                      A                      A                      A
 Frequencies --   1504.7263              1507.6388              1519.3470
 Red. masses --      1.1025                 1.1201                 1.0935
 Frc consts  --      1.4708                 1.5000                 1.4873
 IR Inten    --      8.0530                16.8265                15.8142

                     58                     59                     60
                      A                      A                      A
 Frequencies --   1526.8378              1539.9696              1831.0462
 Red. masses --      1.1002                 1.0944                 9.6075
 Frc consts  --      1.5112                 1.5291                18.9783
 IR Inten    --      7.6114                 9.0619               122.3157

                     61                     62                     63
                      A                      A                      A
 Frequencies --   2228.5054              2898.1719              3005.6483
 Red. masses --     13.9507                 1.0836                 1.0684
 Frc consts  --     40.8199                 5.3624                 5.6865
 IR Inten    --    544.1783               178.8632                20.2460

                     64                     65                     66
                      A                      A                      A
 Frequencies --   3008.1644              3014.2757              3030.2558
 Red. masses --      1.0670                 1.0693                 1.0892
 Frc consts  --      5.6886                 5.7244                 5.8929
 IR Inten    --     17.3850                29.1233                 5.5218

                     67                     68                     69
                      A                      A                      A
 Frequencies --   3041.8113              3045.3714              3046.2595
 Red. masses --      1.0803                 1.0710                 1.0716
 Frc consts  --      5.8891                 5.8522                 5.8588
 IR Inten    --      8.8891                 6.0485                40.2897

                     70                     71                     72
                      A                      A                      A
 Frequencies --   3065.0355              3070.9373              3100.3276
 Red. masses --      1.0901                 1.0870                 1.1004
 Frc consts  --      6.0339                 6.0396                 6.2321
 IR Inten    --     44.3308                79.5361                29.7744

                     73                     74                     75
                      A                      A                      A
 Frequencies --   3104.1464              3115.1388              3497.1358
 Red. masses --      1.0974                 1.0901                 1.0737
 Frc consts  --      6.2299                 6.2324                 7.7368
 IR Inten    --     28.3437                17.0899                 1.5555

 - Thermochemistry -
 -------------------
 Temperature   298.150 Kelvin.  Pressure   1.00000 Atm.
 Atom     1 has atomic number  6 and mass  12.00000

 Molecular mass:   182.11676 amu.
 Principal axes and moments of inertia in atomic units:
                           1         2         3
     Eigenvalues --   878.765345379.553755712.50721
           X            0.99994   0.00121   0.01121
           Y           -0.00122   1.00000   0.00129
           Z           -0.01121  -0.00131   0.99994
 This molecule is an asymmetric top.
 Rotational symmetry number  1.
 Warning -- assumption of classical behavior for rotation
           may cause significant error
 Rotational temperatures (Kelvin)      0.09856     0.01610     0.01516
 Rotational constants (GHZ):           2.05372     0.33548     0.31593
 Zero-point vibrational energy     601041.0 (Joules/Mol)
                                  143.65226 (Kcal/Mol)
 Warning -- explicit consideration of  17 degrees of freedom as
           vibrations may cause significant error
 Vibrational temperatures:     35.65    56.18    99.99   113.64   186.53
          (Kelvin)            212.93   288.91   321.20   403.42   416.29
                              438.53   509.36   604.89   633.15   656.01
                              735.59   812.67   922.05   978.97  1000.04
                             1039.18  1143.08  1161.68  1212.13  1279.24
                             1310.83  1326.65  1376.42  1388.27  1417.97
                             1446.34  1473.78  1521.06  1587.20  1591.83
                             1617.65  1680.52  1700.89  1747.85  1771.98
                             1807.28  1860.50  1878.34  1908.33  1948.29
                             1963.15  1975.79  2005.44  2008.70  2017.91
                             2031.64  2056.45  2070.32  2122.38  2164.97
                             2169.16  2186.00  2196.78  2215.67  2634.47
                             3206.32  4169.82  4324.46  4328.08  4336.87
                             4359.86  4376.49  4381.61  4382.89  4409.90
                             4418.39  4460.68  4466.17  4481.99  5031.60

 Zero-point correction=                           0.228924 (Hartree/Particle)
 Thermal correction to Energy=                    0.241719
 Thermal correction to Enthalpy=                  0.242663
 Thermal correction to Gibbs Free Energy=         0.187912
 Sum of electronic and zero-point Energies=           -607.222126
 Sum of electronic and thermal Energies=              -607.209332
 Sum of electronic and thermal Enthalpies=            -607.208387
 Sum of electronic and thermal Free Energies=         -607.263139

                     E (Thermal)             CV                S
                      KCal/Mol        Cal/Mol-Kelvin    Cal/Mol-Kelvin
 Total                  151.681             47.197            115.234
 Electronic               0.000              0.000              0.000
 Translational            0.889              2.981             41.505
 Rotational               0.889              2.981             31.669
 Vibrational            149.903             41.236             42.060
 Vibration     1          0.593              1.985              6.209
 Vibration     2          0.594              1.981              5.307
 Vibration     3          0.598              1.969              4.168
 Vibration     4          0.600              1.963              3.916
 Vibration     5          0.612              1.924              2.951
 Vibration     6          0.617              1.905              2.698
 Vibration     7          0.638              1.839              2.126
 Vibration     8          0.649              1.806              1.933
 Vibration     9          0.680              1.710              1.531
 Vibration    10          0.686              1.694              1.478
 Vibration    11          0.696              1.665              1.390
 Vibration    12          0.730              1.567              1.148
 Vibration    13          0.783              1.426              0.891
 Vibration    14          0.800              1.383              0.826
 Vibration    15          0.814              1.348              0.778
 Vibration    16          0.866              1.225              0.631
 Vibration    17          0.921              1.107              0.514

                           ! Non-Optimized Parameters !
 Normal termination of Gaussian 16 at Wed Dec  9 22:46:42 2020.

 ----------------------------------------------------------------------
 # B3LYP/6-311++G(d,p) empiricaldispersion=gd3bj scf=xqc pop=npa geom=c
 heck
 ----------------------------------------------------------------------

 ---------------------------------------
 CID_149851071_JID_3142_Energie_neutraal
 ---------------------------------------
 Structure from the checkpoint file:  "JID_3142.chk"
 Charge =  0 Multiplicity = 1

 SCF Done:  E(RB3LYP) =  -607.624769842     A.U. after   15 cycles
 Normal termination of Gaussian 16 at Wed Dec  9 22:49:46 2020.

 ----------------------------------------------------------------------
 # B3LYP/6-311++G(d,p) empiricaldispersion=gd3bj scf=xqc pop=npa geom=c
 heck
 ----------------------------------------------------------------------

 -------------------------------------
 CID_149851071_JID_3142_Energie_kation
 -------------------------------------
 Structure from the checkpoint file:  "JID_3142.chk"
 Charge =  1 Multiplicity = 2

 SCF Done:  E(UB3LYP) =  -607.305674590     A.U. after   27 cycles
 Normal termination of Gaussian 16 at Wed Dec  9 22:58:40 2020.
 Gaussian 16:  ES64L-G16RevA.03 25-Dec-2016

 ----------------------------------------------------------------------
 # B3LYP/6-311++G(d,p) empiricaldispersion=gd3bj scf=xqc pop=npa geom=c
 heck
 ----------------------------------------------------------------------

 ------------------------------------
 CID_149851071_JID_3142_Energie_anion
 ------------------------------------
 Structure from the checkpoint file:  "JID_3142.chk"
 Charge = -1 Multiplicity = 2

                         Standard orientation:
 ---------------------------------------------------------------------
 Center     Atomic      Atomic             Coordinates (Angstroms)
 Number     Number       Type             X           Y           Z
 ---------------------------------------------------------------------
      1          6           0        0.894115   -0.851595   -0.072469
      2          6           0       -0.294572   -0.748462   -1.036622
      3          6           0       -1.180844    0.474500   -0.744989
      4          6           0       -0.339918    1.759750   -0.700466
      5          6           0        0.860660    1.651795    0.251695
      6          6           0        1.740204    0.433017   -0.069305
      7          6           0        2.922411    0.335849    0.896966
      8          6           0        4.017882   -0.615141    0.473084
      9          8           0        4.049214   -1.216942   -0.578261
     10          7           0       -1.949226    0.393563    0.521292
     11          7           0       -2.751669   -0.826575    0.547594
     12          7           0       -3.954210   -0.569133    0.340559
     13          7           0       -5.077124   -0.505726    0.150516
     14          1           0        1.518920   -1.706339   -0.346080
     15          1           0        0.531864   -1.044719    0.949707
     16          1           0        0.083238   -0.663078   -2.064401
     17          1           0       -0.902807   -1.657682   -0.993694
     18          1           0       -1.933550    0.573202   -1.535762
     19          1           0       -0.979111    2.603807   -0.420285
     20          1           0        0.030217    1.953229   -1.715663
     21          1           0        0.513363    1.586179    1.294222
     22          1           0        1.456382    2.571790    0.193876
     23          1           0        2.148718    0.561803   -1.081591
     24          1           0        3.402608    1.318747    1.034996
     25          1           0        2.592496    0.041428    1.905935
     26          1           0        4.846589   -0.725617    1.209220
     27          1           0       -1.296664    0.239595    1.288507
 ---------------------------------------------------------------------

 SCF Done:  E(UB3LYP) =  -607.623855656     A.U. after   33 cycles
 SCF Done:  E(UB3LYP) =  -607.623855661     a.u. after    2 cycles

 The electronic state is 2-A.
 Alpha  occ. eigenvalues --  -19.00922 -14.31333 -14.23245 -14.22572 -14.21332
 Alpha  occ. eigenvalues --  -10.14425 -10.08962 -10.07282 -10.07005 -10.06379
 Alpha  occ. eigenvalues --  -10.06346 -10.05557 -10.05468  -0.99182  -0.94013
 Alpha  occ. eigenvalues --   -0.86273  -0.76094  -0.71723  -0.65819  -0.63969
 Alpha  occ. eigenvalues --   -0.59881  -0.51190  -0.50755  -0.45765  -0.44752
 Alpha  occ. eigenvalues --   -0.42434  -0.38885  -0.37286  -0.36610  -0.35984
 Alpha  occ. eigenvalues --   -0.35153  -0.34156  -0.33101  -0.32653  -0.31354
 Alpha  occ. eigenvalues --   -0.30668  -0.28506  -0.27745  -0.27013  -0.26092
 Alpha  occ. eigenvalues --   -0.24949  -0.24387  -0.22249  -0.21781  -0.20263
 Alpha  occ. eigenvalues --   -0.19848  -0.14921  -0.13092  -0.10855   0.04537
 Alpha virt. eigenvalues --    0.06273   0.06812   0.07760   0.08636   0.09170
 Alpha virt. eigenvalues --    0.10319   0.10897   0.11005   0.11953   0.12288
 Alpha virt. eigenvalues --    0.13309   0.13627   0.14126   0.14247   0.15017

  Beta  occ. eigenvalues --  -19.00790 -14.31000 -14.23302 -14.22075 -14.21187
  Beta  occ. eigenvalues --  -10.14274 -10.08959 -10.07269 -10.07003 -10.06359
  Beta  occ. eigenvalues --  -10.06334 -10.05540 -10.05464  -0.98511  -0.93753
  Beta  occ. eigenvalues --   -0.85939  -0.75897  -0.71587  -0.65660  -0.63941
  Beta  occ. eigenvalues --   -0.59723  -0.51144  -0.50613  -0.45570  -0.44544
  Beta  occ. eigenvalues --   -0.42170  -0.38782  -0.36615  -0.36196  -0.35566
  Beta  occ. eigenvalues --   -0.34969  -0.33882  -0.32898  -0.32429  -0.31093
  Beta  occ. eigenvalues --   -0.29730  -0.28241  -0.27663  -0.26811  -0.26002
  Beta  occ. eigenvalues --   -0.24611  -0.24328  -0.21810  -0.21629  -0.20073
  Beta  occ. eigenvalues --   -0.19634  -0.14800  -0.12860  -0.10693
  Beta virt. eigenvalues --    0.07085   0.07854   0.08073   0.08942   0.09155
  Beta virt. eigenvalues --    0.10248   0.10827   0.11045   0.11124   0.12021
  Beta virt. eigenvalues --    0.12452   0.13500   0.13741   0.14145   0.14392

 Mulliken charges and spin densities:
               1          2
     1  C    0.504297  -0.977788
     2  C   -0.635471  -0.043962
     3  C    0.152531  -0.064922
     4  C   -0.306651  -0.277791
     5  C    0.158372  -0.612679
     6  C   -0.654313   1.172705
     7  C    0.448752  -0.693886
     8  C   -0.052613  -0.090660
     9  O   -0.268238   0.032861
    10  N    0.021673   0.000309
    11  N   -0.420513  -0.007887
    12  N    0.259952   0.130667
    13  N   -0.254375   0.246830
    14  H    0.216820  -0.052117
    15  H   -0.070296   0.223709
    16  H    0.086691   0.043303
    17  H    0.131180   0.038671
    18  H    0.154325   0.053704
    19  H    0.144394   0.044103
    20  H    0.012535   0.110898
    21  H   -0.144934   0.318931
    22  H   -0.043676   0.187499
    23  H    0.176673  -0.002816
    24  H   -0.235405   0.402939
    25  H   -0.136461   0.295595
    26  H   -0.308720   0.394579
    27  H    0.063472   0.127203
 Sum of Mulliken charges =  -1.00000   1.00000

 Dipole moment (field-independent basis, Debye):
    X=              1.5963    Y=              1.0030    Z=             -2.1897  Tot=              2.8894
 Quadrupole moment (field-independent basis, Debye-Ang):
   XX=           -173.7767   YY=           -101.1541   ZZ=            -97.8320
   XY=             -1.7506   XZ=              2.5123   YZ=             -3.4025

 Summary of Natural Population Analysis:

                                       Natural Population
                Natural  -----------------------------------------------
    Atom  No    Charge         Core      Valence    Rydberg      Total
 -----------------------------------------------------------------------
      C    1   -0.19488      0.99961     2.18595    0.00932     3.19488
      C    2   -0.19925      0.99961     2.19204    0.00761     3.19925
      C    3   -0.00982      0.99959     1.99784    0.01239     3.00982
      C    4   -0.19109      0.99960     2.18312    0.00836     3.19109
      C    5   -0.18952      0.99961     2.18038    0.00952     3.18952
      C    6   -0.11452      0.99959     2.10310    0.01183     3.11452
      C    7   -0.23984      0.99959     2.23070    0.00955     3.23984
      C    8    0.24813      0.99974     1.73184    0.02028     2.75187
      O    9   -0.27209      0.99988     3.26576    0.00646     4.27209
      N   10   -0.24545      0.99973     2.73278    0.01294     3.74545
      N   11   -0.15936      0.99973     2.64365    0.01597     3.65936
      N   12    0.13843      0.99971     2.34641    0.01545     3.36157
      N   13    0.00729      0.99982     2.47851    0.01438     3.49271
      H   14    0.10823      0.00000     0.39079    0.00098     0.39177
      H   15    0.09310      0.00000     0.40530    0.00159     0.40690
      H   16    0.09345      0.00000     0.40545    0.00111     0.40655
      H   17    0.10959      0.00000     0.38929    0.00112     0.39041
      H   18    0.09358      0.00000     0.40489    0.00153     0.40642
      H   19    0.10399      0.00000     0.39472    0.00128     0.39601
      H   20    0.09494      0.00000     0.40400    0.00106     0.40506
      H   21    0.09511      0.00000     0.40341    0.00148     0.40489
      H   22    0.09797      0.00000     0.40102    0.00101     0.40203
      H   23    0.09854      0.00000     0.39970    0.00176     0.40146
      H   24    0.11076      0.00000     0.38789    0.00135     0.38924
      H   25    0.11021      0.00000     0.38748    0.00231     0.38979
      H   26    0.04050      0.00000     0.45645    0.00305     0.45950
      H   27    0.17200      0.00000     0.32427    0.00373     0.32800
 =======================================================================
   * Total *    0.00000     12.99580    35.82677    0.17743    49.00000

 Normal termination of Gaussian 16 at Wed Dec  9 23:16:33 2020.
