 Gaussian 16, Revision A.03,

 -----------------------------------------------------------
 # opt freq B3LYP/6-31G(d) empiricaldispersion=gd3bj scf=xqc
 -----------------------------------------------------------

 ------------------------------
 CID_79567114_JID_2125_neutraal
 ------------------------------
 Symbolic Z-matrix:
 Charge =  0 Multiplicity = 1

 SCF Done:  E(RB3LYP) =  -900.028829059     A.U. after   15 cycles
 SCF Done:  E(RB3LYP) =  -900.033153095     A.U. after   12 cycles
 SCF Done:  E(RB3LYP) =  -900.033681782     A.U. after   13 cycles
 SCF Done:  E(RB3LYP) =  -900.035031492     A.U. after   12 cycles
 SCF Done:  E(RB3LYP) =  -900.035359925     A.U. after   12 cycles
 SCF Done:  E(RB3LYP) =  -900.035736642     A.U. after   13 cycles
 SCF Done:  E(RB3LYP) =  -900.036274991     A.U. after   12 cycles
 SCF Done:  E(RB3LYP) =  -900.036833916     A.U. after   12 cycles
 SCF Done:  E(RB3LYP) =  -900.036973112     A.U. after   12 cycles
 SCF Done:  E(RB3LYP) =  -900.036940795     A.U. after   14 cycles
 SCF Done:  E(RB3LYP) =  -900.037217063     A.U. after   10 cycles
 SCF Done:  E(RB3LYP) =  -900.037219935     A.U. after   10 cycles
 SCF Done:  E(RB3LYP) =  -900.037220350     A.U. after    8 cycles
 SCF Done:  E(RB3LYP) =  -900.037220638     A.U. after    7 cycles
 SCF Done:  E(RB3LYP) =  -900.037220811     A.U. after    8 cycles
 Optimization completed.
    -- Stationary point found.
 Normal termination of Gaussian 16 at Wed Dec  9 16:53:18 2020.

 --------------------------------------------------------------------
 #N Geom=AllCheck Guess=TCheck SCRF=Check GenChk RB3LYP/6-31G(d) Freq
 --------------------------------------------------------------------

 Structure from the checkpoint file:  "JID_2125.chk"
 ------------------------------
 CID_79567114_JID_2125_neutraal
 ------------------------------
 Charge =  0 Multiplicity = 1

 SCF Done:  E(RB3LYP) =  -900.037220811     A.U. after    1 cycles

  Exact polarizability: 109.835  14.225 111.207  -5.978   5.292 114.994
 Approx polarizability: 149.942  30.383 172.184 -16.799  12.987 195.879

                      1                      2                      3
                      A                      A                      A
 Frequencies --     40.2805                53.6224                68.5609
 Red. masses --      3.6972                 3.4271                 3.8537
 Frc consts  --      0.0035                 0.0058                 0.0107
 IR Inten    --      0.1212                 0.6038                 1.7640

                      4                      5                      6
                      A                      A                      A
 Frequencies --     91.6888               135.8838               140.3525
 Red. masses --      2.6074                 2.0218                 1.4522
 Frc consts  --      0.0129                 0.0220                 0.0169
 IR Inten    --      0.5374                 2.1793                 1.5932

                      7                      8                      9
                      A                      A                      A
 Frequencies --    187.0461               204.1431               248.9347
 Red. masses --      2.7707                 5.2061                 1.4140
 Frc consts  --      0.0571                 0.1278                 0.0516
 IR Inten    --      2.4267                 1.6161                 0.3024

                     10                     11                     12
                      A                      A                      A
 Frequencies --    256.1256               293.8744               337.8133
 Red. masses --      2.5127                 2.3837                 1.5044
 Frc consts  --      0.0971                 0.1213                 0.1012
 IR Inten    --      0.4838                29.5838                79.4996

                     13                     14                     15
                      A                      A                      A
 Frequencies --    346.6037               377.1359               422.5783
 Red. masses --      2.6956                 2.9799                 3.8266
 Frc consts  --      0.1908                 0.2497                 0.4026
 IR Inten    --      5.4819                25.0113                13.8189

                     16                     17                     18
                      A                      A                      A
 Frequencies --    465.2232               495.8523               537.9385
 Red. masses --      2.5027                 4.5262                 4.9835
 Frc consts  --      0.3191                 0.6557                 0.8497
 IR Inten    --      4.4128                 4.2365                 7.0043

                     19                     20                     21
                      A                      A                      A
 Frequencies --    546.4695               640.4502               655.5637
 Red. masses --      4.7292                 2.8744                 4.4193
 Frc consts  --      0.8321                 0.6946                 1.1190
 IR Inten    --      8.8501                 3.6210                 5.1492

                     22                     23                     24
                      A                      A                      A
 Frequencies --    724.4158               742.8874               812.1432
 Red. masses --      1.4587                 4.0067                 1.1170
 Frc consts  --      0.4510                 1.3028                 0.4341
 IR Inten    --     35.5060                 9.8897                 1.6557

                     25                     26                     27
                      A                      A                      A
 Frequencies --    845.0374               873.7509               889.5407
 Red. masses --      4.6314                 2.5492                 1.2614
 Frc consts  --      1.9485                 1.1466                 0.5881
 IR Inten    --      8.1562                 9.0915                 0.8431

                     28                     29                     30
                      A                      A                      A
 Frequencies --    943.7275               984.1522              1011.1748
 Red. masses --      3.1995                 2.8254                 3.0070
 Frc consts  --      1.6789                 1.6123                 1.8115
 IR Inten    --      9.9676                12.7281                15.5616

                     31                     32                     33
                      A                      A                      A
 Frequencies --   1021.0926              1062.0995              1078.4265
 Red. masses --      1.6797                 2.8261                 1.5712
 Frc consts  --      1.0318                 1.8783                 1.0766
 IR Inten    --     12.9656               117.1134                17.5844

                     34                     35                     36
                      A                      A                      A
 Frequencies --   1085.0216              1114.0081              1118.6293
 Red. masses --      2.1184                 1.4665                 1.9377
 Frc consts  --      1.4694                 1.0723                 1.4286
 IR Inten    --      4.6966                 2.1822                 9.6669

                     37                     38                     39
                      A                      A                      A
 Frequencies --   1149.3831              1198.5434              1214.5432
 Red. masses --      2.7176                 2.6792                 1.9352
 Frc consts  --      2.1152                 2.2676                 1.6819
 IR Inten    --     80.1809                14.8761                60.0558

                     40                     41                     42
                      A                      A                      A
 Frequencies --   1261.4397              1267.2395              1302.7887
 Red. masses --      1.7682                 1.2884                 1.1735
 Frc consts  --      1.6578                 1.2191                 1.1735
 IR Inten    --      2.8008                47.7233                 3.8148

                     43                     44                     45
                      A                      A                      A
 Frequencies --   1350.8964              1375.0044              1401.6675
 Red. masses --      1.1243                 1.2222                 1.5163
 Frc consts  --      1.2088                 1.3614                 1.7552
 IR Inten    --      2.8365                13.8238                 4.0021

                     46                     47                     48
                      A                      A                      A
 Frequencies --   1414.2869              1431.7904              1438.8722
 Red. masses --      1.7149                 1.3335                 1.3927
 Frc consts  --      2.0210                 1.6107                 1.6989
 IR Inten    --      9.3327                 4.2003                18.6163

                     49                     50                     51
                      A                      A                      A
 Frequencies --   1440.3864              1446.9448              1487.0695
 Red. masses --      1.4719                 1.3762                 4.1340
 Frc consts  --      1.7993                 1.6976                 5.3862
 IR Inten    --     12.0478                26.9701                 8.9219

                     52                     53                     54
                      A                      A                      A
 Frequencies --   1517.4141              1519.6259              1523.1970
 Red. masses --      1.0559                 1.0577                 1.2109
 Frc consts  --      1.4324                 1.4391                 1.6553
 IR Inten    --      3.0718                 1.3588                 3.2218

                     55                     56                     57
                      A                      A                      A
 Frequencies --   1531.5072              1538.0119              1545.2403
 Red. masses --      1.0624                 1.0500                 1.0881
 Frc consts  --      1.4681                 1.4634                 1.5307
 IR Inten    --      1.9571                 6.5445                 3.2594

                     58                     59                     60
                      A                      A                      A
 Frequencies --   1616.3295              3007.3554              3040.6308
 Red. masses --      5.2030                 1.0838                 1.0450
 Frc consts  --      8.0088                 5.7754                 5.6921
 IR Inten    --      2.7573                31.2601                20.0338

                     61                     62                     63
                      A                      A                      A
 Frequencies --   3042.9365              3048.9301              3054.1074
 Red. masses --      1.0568                 1.0433                 1.0550
 Frc consts  --      5.7655                 5.7142                 5.7978
 IR Inten    --     48.5297                20.6420                16.0666

                     64                     65                     66
                      A                      A                      A
 Frequencies --   3091.1939              3098.3338              3100.4831
 Red. masses --      1.0977                 1.1017                 1.1075
 Frc consts  --      6.1802                 6.2311                 6.2727
 IR Inten    --     25.7344                 4.7271                44.3988

                     67                     68                     69
                      A                      A                      A
 Frequencies --   3117.6910              3132.5819              3165.6917
 Red. masses --      1.1010                 1.1040                 1.0973
 Frc consts  --      6.3055                 6.3830                 6.4789
 IR Inten    --     41.4232                42.4083                 1.6551

                     70                     71                     72
                      A                      A                      A
 Frequencies --   3209.5872              3269.7369              3742.0490
 Red. masses --      1.0911                 1.0964                 1.0662
 Frc consts  --      6.6221                 6.9064                 8.7965
 IR Inten    --      9.2656                 1.0068                16.3299

 - Thermochemistry -
 -------------------
 Temperature   298.150 Kelvin.  Pressure   1.00000 Atm.
 Atom     1 has atomic number  6 and mass  12.00000

 Molecular mass:   186.07145 amu.
 Principal axes and moments of inertia in atomic units:
                           1         2         3
     Eigenvalues --  1869.042312842.365923197.39094
           X            0.99937  -0.03523   0.00352
           Y            0.03528   0.99921  -0.01816
           Z           -0.00288   0.01827   0.99983
 This molecule is an asymmetric top.
 Rotational symmetry number  1.
 Warning -- assumption of classical behavior for rotation
           may cause significant error
 Rotational temperatures (Kelvin)      0.04634     0.03047     0.02709
 Rotational constants (GHZ):           0.96560     0.63494     0.56444
 Zero-point vibrational energy     573883.0 (Joules/Mol)
                                  137.16132 (Kcal/Mol)
 Warning -- explicit consideration of  19 degrees of freedom as
           vibrations may cause significant error
 Vibrational temperatures:     57.95    77.15    98.64   131.92   195.51
          (Kelvin)            201.94   269.12   293.72   358.16   368.51
                              422.82   486.04   498.69   542.61   608.00
                              669.35   713.42   773.97   786.25   921.46
                              943.21  1042.27  1068.85  1168.49  1215.82
                             1257.13  1279.85  1357.81  1415.98  1454.85
                             1469.12  1528.12  1551.62  1561.10  1602.81
                             1609.46  1653.71  1724.44  1747.46  1814.93
                             1823.28  1874.42  1943.64  1978.32  2016.69
                             2034.84  2060.03  2070.22  2072.39  2081.83
                             2139.56  2183.22  2186.40  2191.54  2203.50
                             2212.86  2223.26  2325.54  4326.91  4374.79
                             4378.11  4386.73  4394.18  4447.54  4457.81
                             4460.90  4485.66  4507.09  4554.72  4617.88
                             4704.42  5383.97

 Zero-point correction=                           0.218580 (Hartree/Particle)
 Thermal correction to Energy=                    0.231922
 Thermal correction to Enthalpy=                  0.232866
 Thermal correction to Gibbs Free Energy=         0.178034
 Sum of electronic and zero-point Energies=           -899.818640
 Sum of electronic and thermal Energies=              -899.805299
 Sum of electronic and thermal Enthalpies=            -899.804355
 Sum of electronic and thermal Free Energies=         -899.859187

                     E (Thermal)             CV                S
                      KCal/Mol        Cal/Mol-Kelvin    Cal/Mol-Kelvin
 Total                  145.533             48.717            115.404
 Electronic               0.000              0.000              0.000
 Translational            0.889              2.981             41.569
 Rotational               0.889              2.981             31.208
 Vibrational            143.756             42.755             42.627
 Vibration     1          0.594              1.981              5.245
 Vibration     2          0.596              1.976              4.679
 Vibration     3          0.598              1.969              4.194
 Vibration     4          0.602              1.955              3.624
 Vibration     5          0.614              1.918              2.861
 Vibration     6          0.615              1.913              2.799
 Vibration     7          0.632              1.858              2.257
 Vibration     8          0.640              1.834              2.095
 Vibration     9          0.662              1.765              1.738
 Vibration    10          0.666              1.752              1.688
 Vibration    11          0.689              1.685              1.452
 Vibration    12          0.718              1.600              1.222
 Vibration    13          0.725              1.582              1.182
 Vibration    14          0.748              1.519              1.051
 Vibration    15          0.785              1.421              0.883
 Vibration    16          0.823              1.327              0.751
 Vibration    17          0.851              1.259              0.669
 Vibration    18          0.893              1.166              0.570
 Vibration    19          0.902              1.147              0.552

 Optimization completed.
    -- Stationary point found.
 Normal termination of Gaussian 16 at Wed Dec  9 16:59:12 2020.

 ----------------------------------------------------------------------
 # B3LYP/6-311++G(d,p) empiricaldispersion=gd3bj scf=xqc pop=npa geom=c
 heck
 ----------------------------------------------------------------------

 --------------------------------------
 CID_79567114_JID_2125_Energie_neutraal
 --------------------------------------
 Structure from the checkpoint file:  "JID_2125.chk"
 Charge =  0 Multiplicity = 1

 SCF Done:  E(RB3LYP) =  -900.215776894     A.U. after   15 cycles
 Normal termination of Gaussian 16 at Wed Dec  9 17:01:42 2020.

 ----------------------------------------------------------------------
 # B3LYP/6-311++G(d,p) empiricaldispersion=gd3bj scf=xqc pop=npa geom=c
 heck
 ----------------------------------------------------------------------

 ------------------------------------
 CID_79567114_JID_2125_Energie_kation
 ------------------------------------
 Structure from the checkpoint file:  "JID_2125.chk"
 Charge =  1 Multiplicity = 2

 SCF Done:  E(UB3LYP) =  -899.915949092     A.U. after   25 cycles
 Normal termination of Gaussian 16 at Wed Dec  9 17:07:05 2020.
 Gaussian 16:  ES64L-G16RevA.03 25-Dec-2016

 ----------------------------------------------------------------------
 # B3LYP/6-311++G(d,p) empiricaldispersion=gd3bj scf=xqc pop=npa geom=c
 heck
 ----------------------------------------------------------------------

 -----------------------------------
 CID_79567114_JID_2125_Energie_anion
 -----------------------------------
 Structure from the checkpoint file:  "JID_2125.chk"
 Charge = -1 Multiplicity = 2

                         Standard orientation:
 ---------------------------------------------------------------------
 Center     Atomic      Atomic             Coordinates (Angstroms)
 Number     Number       Type             X           Y           Z
 ---------------------------------------------------------------------
      1          6           0        3.254106   -1.284663    1.020324
      2          6           0        2.048030   -1.298860    0.087018
      3          8           0        2.097631   -0.241380   -0.869708
      4          6           0        1.651147    1.017172   -0.404192
      5          6           0        0.222695    1.298618   -0.894553
      6          6           0       -0.793656    0.350502   -0.312224
      7          6           0       -1.286747    0.275699    0.972898
      8          6           0       -2.197904   -0.819804    1.132435
      9          6           0       -2.377495   -1.554321   -0.005646
     10         16           0       -1.439823   -0.923025   -1.317024
     11          6           0       -0.906996    1.191645    2.107665
     12          8           0       -0.044138    2.661601   -0.554986
     13          1           0        4.182897   -1.341155    0.443620
     14          1           0        3.217157   -2.137346    1.708724
     15          1           0        3.282135   -0.368840    1.621789
     16          1           0        2.031997   -2.221122   -0.502394
     17          1           0        1.110614   -1.257912    0.656690
     18          1           0        1.685730    1.090130    0.690135
     19          1           0        2.312527    1.788379   -0.814428
     20          1           0        0.233702    1.174709   -1.987984
     21          1           0       -2.697112   -1.040723    2.070663
     22          1           0       -3.008292   -2.420706   -0.150899
     23          1           0       -1.791556    1.482688    2.686315
     24          1           0       -0.220360    0.690952    2.803053
     25          1           0       -0.421193    2.096396    1.739902
     26          1           0       -0.988108    2.815253   -0.717595
 ---------------------------------------------------------------------

 SCF Done:  E(UB3LYP) =  -900.200086788     A.U. after   33 cycles
 SCF Done:  E(UB3LYP) =  -900.200086788     a.u. after    1 cycles

 The electronic state is 2-A.
 Alpha  occ. eigenvalues --  -88.77259 -19.02951 -19.02670 -10.13626 -10.12031
 Alpha  occ. eigenvalues --  -10.11631 -10.09631 -10.09561 -10.08182 -10.07141
 Alpha  occ. eigenvalues --  -10.06495 -10.06064  -7.85889  -5.82171  -5.81809
 Alpha  occ. eigenvalues --   -5.81497  -0.94236  -0.92956  -0.78105  -0.68096
 Alpha  occ. eigenvalues --   -0.66409  -0.64872  -0.61017  -0.57318  -0.53950
 Alpha  occ. eigenvalues --   -0.49926  -0.46787  -0.44529  -0.40988  -0.39320
 Alpha  occ. eigenvalues --   -0.38289  -0.36895  -0.36090  -0.33714  -0.31736
 Alpha  occ. eigenvalues --   -0.31543  -0.31166  -0.29799  -0.28746  -0.28330
 Alpha  occ. eigenvalues --   -0.26829  -0.26332  -0.25642  -0.25213  -0.23661
 Alpha  occ. eigenvalues --   -0.21675  -0.18875  -0.16705  -0.14753  -0.12878
 Alpha  occ. eigenvalues --    0.04623
 Alpha virt. eigenvalues --    0.06599   0.06913   0.07598   0.07883   0.09114
 Alpha virt. eigenvalues --    0.09437   0.09903   0.10022   0.10928   0.11787
 Alpha virt. eigenvalues --    0.12113   0.12465   0.13273   0.13836   0.14310

  Beta  occ. eigenvalues --  -88.77252 -19.02910 -19.02663 -10.13620 -10.12023
  Beta  occ. eigenvalues --  -10.11619 -10.09624 -10.09524 -10.08165 -10.07126
  Beta  occ. eigenvalues --  -10.06468 -10.06026  -7.85883  -5.82167  -5.81804
  Beta  occ. eigenvalues --   -5.81478  -0.94203  -0.92883  -0.78066  -0.68061
  Beta  occ. eigenvalues --   -0.66358  -0.64832  -0.60975  -0.57255  -0.53891
  Beta  occ. eigenvalues --   -0.49878  -0.46729  -0.44467  -0.40953  -0.39263
  Beta  occ. eigenvalues --   -0.38254  -0.36854  -0.36060  -0.33673  -0.31682
  Beta  occ. eigenvalues --   -0.31497  -0.31119  -0.29771  -0.28706  -0.28279
  Beta  occ. eigenvalues --   -0.26794  -0.26268  -0.25610  -0.25168  -0.23624
  Beta  occ. eigenvalues --   -0.21651  -0.18833  -0.16676  -0.14678  -0.12773
  Beta virt. eigenvalues --    0.06880   0.07419   0.07756   0.07912   0.08449
  Beta virt. eigenvalues --    0.09457   0.09972   0.10355   0.10439   0.11055
  Beta virt. eigenvalues --    0.12304   0.12399   0.12759   0.13514   0.13964

 Mulliken charges and spin densities:
               1          2
     1  C    0.593446  -1.056575
     2  C   -0.807868   0.490408
     3  O   -0.071780   0.011384
     4  C   -0.048841  -0.050084
     5  C    0.614761  -1.444996
     6  C   -0.656534   1.320339
     7  C   -2.028337   2.084147
     8  C    1.036654  -1.261828
     9  C   -0.255024  -0.154639
    10  S    0.300297  -0.240268
    11  C    2.512538  -3.169244
    12  O   -0.181597   0.004863
    13  H   -0.011785   0.156674
    14  H   -0.426672   0.561211
    15  H   -0.155756   0.281778
    16  H   -0.085040   0.222403
    17  H    0.687580  -0.493683
    18  H    0.266441  -0.115596
    19  H    0.145120   0.032644
    20  H    0.056514   0.141032
    21  H   -0.955046   1.140564
    22  H   -0.748195   0.986178
    23  H   -0.423561   0.569659
    24  H   -0.201027   0.382450
    25  H   -0.031003   0.217859
    26  H   -0.125284   0.383318
 Sum of Mulliken charges =  -1.00000   1.00000

 Dipole moment (field-independent basis, Debye):
    X=              2.9832    Y=              0.6406    Z=             -4.9075  Tot=              5.7788
 Quadrupole moment (field-independent basis, Debye-Ang):
   XX=           -138.6358   YY=           -128.1436   ZZ=           -123.2560
   XY=              1.8647   XZ=              5.7807   YZ=              3.8366

 Summary of Natural Population Analysis:

                                       Natural Population
                Natural  -----------------------------------------------
    Atom  No    Charge         Core      Valence    Rydberg      Total
 -----------------------------------------------------------------------
      C    1   -0.29983      0.99967     2.29504    0.00512     3.29983
      C    2   -0.01236      0.99959     2.00000    0.01278     3.01236
      O    3   -0.30468      0.99989     3.29561    0.00918     4.30468
      C    4   -0.00823      0.99954     1.99639    0.01230     3.00823
      C    5    0.04006      0.99948     1.94501    0.01546     2.95994
      C    6   -0.12420      0.99940     2.10768    0.01712     3.12420
      C    7   -0.03593      0.99942     2.02340    0.01312     3.03593
      C    8   -0.12042      0.99948     2.10913    0.01181     3.12042
      C    9   -0.18633      0.99954     2.17477    0.01203     3.18633
      S   10    0.20922      4.99939     2.77098    0.02041     7.79078
      C   11   -0.29801      0.99962     2.29192    0.00647     3.29801
      O   12   -0.37026      0.99989     3.36387    0.00650     4.37026
      H   13    0.09697      0.00000     0.40198    0.00106     0.40303
      H   14    0.10193      0.00000     0.39672    0.00135     0.39807
      H   15    0.09717      0.00000     0.40168    0.00115     0.40283
      H   16    0.08744      0.00000     0.41119    0.00137     0.41256
      H   17    0.08738      0.00000     0.41053    0.00209     0.41262
      H   18    0.08602      0.00000     0.41246    0.00152     0.41398
      H   19    0.08942      0.00000     0.40941    0.00118     0.41058
      H   20    0.08349      0.00000     0.41446    0.00205     0.41651
      H   21    0.10947      0.00000     0.38803    0.00250     0.39053
      H   22    0.11071      0.00000     0.38778    0.00151     0.38929
      H   23    0.10676      0.00000     0.39136    0.00188     0.39324
      H   24    0.10486      0.00000     0.39378    0.00136     0.39514
      H   25    0.11370      0.00000     0.38465    0.00165     0.38630
      H   26    0.23567      0.00000     0.25923    0.00509     0.26433
 =======================================================================
   * Total *   -0.00000     15.99491    33.83704    0.16805    50.00000

 Normal termination of Gaussian 16 at Wed Dec  9 17:14:19 2020.
