 Gaussian 16, Revision A.03,

 -----------------------------------------------------------
 # opt freq B3LYP/6-31G(d) empiricaldispersion=gd3bj scf=xqc
 -----------------------------------------------------------

 -------------------------------
 CID_111430233_JID_9110_neutraal
 -------------------------------
 Symbolic Z-matrix:
 Charge =  0 Multiplicity = 1

 SCF Done:  E(RB3LYP) =  -879.552619485     A.U. after   15 cycles
 SCF Done:  E(RB3LYP) =  -879.552112142     A.U. after   14 cycles
 SCF Done:  E(RB3LYP) =  -879.557803778     A.U. after   12 cycles
 SCF Done:  E(RB3LYP) =  -879.560406254     A.U. after   15 cycles
 SCF Done:  E(RB3LYP) =  -879.563126252     A.U. after   15 cycles
 SCF Done:  E(RB3LYP) =  -879.564804408     A.U. after   13 cycles
 SCF Done:  E(RB3LYP) =  -879.565985594     A.U. after   13 cycles
 SCF Done:  E(RB3LYP) =  -879.566426952     A.U. after   13 cycles
 SCF Done:  E(RB3LYP) =  -879.566808348     A.U. after   12 cycles
 SCF Done:  E(RB3LYP) =  -879.567071224     A.U. after   12 cycles
 SCF Done:  E(RB3LYP) =  -879.567508953     A.U. after    9 cycles
 SCF Done:  E(RB3LYP) =  -879.567509320     A.U. after    8 cycles
 SCF Done:  E(RB3LYP) =  -879.567509382     A.U. after    7 cycles
 SCF Done:  E(RB3LYP) =  -879.567509417     A.U. after    7 cycles
 SCF Done:  E(RB3LYP) =  -879.567509444     A.U. after    7 cycles
 Optimization completed.
    -- Stationary point found.
 Normal termination of Gaussian 16 at Sun Dec 13 20:29:53 2020.

 --------------------------------------------------------------------
 #N Geom=AllCheck Guess=TCheck SCRF=Check GenChk RB3LYP/6-31G(d) Freq
 --------------------------------------------------------------------

 Structure from the checkpoint file:  "JID_9110.chk"
 -------------------------------
 CID_111430233_JID_9110_neutraal
 -------------------------------
 Charge =  0 Multiplicity = 1

 SCF Done:  E(RB3LYP) =  -879.567509445     A.U. after    1 cycles

  Exact polarizability: 218.571   2.125 159.397   2.481 -12.742 109.953
 Approx polarizability: 275.883  11.448 278.232   3.549 -27.806 169.885

                      1                      2                      3
                      A                      A                      A
 Frequencies --     20.4016                25.1036                32.3152
 Red. masses --      4.8385                 4.7276                 1.7067
 Frc consts  --      0.0012                 0.0018                 0.0011
 IR Inten    --      0.2002                 0.3689                 0.3025

                      4                      5                      6
                      A                      A                      A
 Frequencies --     45.6564                48.8816                58.5946
 Red. masses --      5.0520                 5.0067                 5.3698
 Frc consts  --      0.0062                 0.0070                 0.0109
 IR Inten    --      1.1806                 0.6414                 1.1687

                      7                      8                      9
                      A                      A                      A
 Frequencies --     94.7450               132.2050               147.3406
 Red. masses --      5.3015                 4.1944                 5.1728
 Frc consts  --      0.0280                 0.0432                 0.0662
 IR Inten    --      1.7037                 1.3832                 3.9085

                     10                     11                     12
                      A                      A                      A
 Frequencies --    178.5015               213.6907               215.4347
 Red. masses --      3.6049                 2.7758                 1.3095
 Frc consts  --      0.0677                 0.0747                 0.0358
 IR Inten    --      0.5044                16.1826                64.4862

                     13                     14                     15
                      A                      A                      A
 Frequencies --    263.8550               269.4552               276.8015
 Red. masses --      4.5184                 4.0678                 5.7866
 Frc consts  --      0.1853                 0.1740                 0.2612
 IR Inten    --      6.3181                 3.9837                22.2145

                     16                     17                     18
                      A                      A                      A
 Frequencies --    372.0119               388.3144               410.5012
 Red. masses --      8.0419                 3.0102                 2.3212
 Frc consts  --      0.6557                 0.2674                 0.2305
 IR Inten    --      1.0227                 5.1724                 0.7458

                     19                     20                     21
                      A                      A                      A
 Frequencies --    416.6240               436.5345               447.8939
 Red. masses --      2.9748                 3.7302                 3.7204
 Frc consts  --      0.3042                 0.4188                 0.4397
 IR Inten    --      0.0101                14.3978                13.2256

                     22                     23                     24
                      A                      A                      A
 Frequencies --    481.4270               510.3422               540.8194
 Red. masses --      2.1925                 5.0899                 2.3891
 Frc consts  --      0.2994                 0.7811                 0.4117
 IR Inten    --      8.9662                17.2476               108.0710

                     25                     26                     27
                      A                      A                      A
 Frequencies --    601.3375               610.3805               634.6827
 Red. masses --      2.0486                 5.5371                 6.3455
 Frc consts  --      0.4365                 1.2154                 1.5060
 IR Inten    --    141.0673                61.9088                 0.9394

                     28                     29                     30
                      A                      A                      A
 Frequencies --    653.1031               670.0362               702.0218
 Red. masses --      2.6861                 1.1734                 3.4998
 Frc consts  --      0.6751                 0.3104                 1.0162
 IR Inten    --      6.4980                67.4336                 4.9223

                     31                     32                     33
                      A                      A                      A
 Frequencies --    708.2422               718.8322               725.2055
 Red. masses --      3.5762                 1.7594                 1.8897
 Frc consts  --      1.0569                 0.5357                 0.5855
 IR Inten    --     14.7813                65.0345                 4.9705

                     34                     35                     36
                      A                      A                      A
 Frequencies --    774.0115               788.3482               808.1802
 Red. masses --      3.3160                 3.1802                 2.2892
 Frc consts  --      1.1705                 1.1645                 0.8810
 IR Inten    --      9.0411                 7.7452                 5.0861

                     37                     38                     39
                      A                      A                      A
 Frequencies --    811.4244               831.5308               861.2637
 Red. masses --      2.3468                 2.4477                 1.2510
 Frc consts  --      0.9104                 0.9971                 0.5467
 IR Inten    --      3.9972                 9.6349                 1.5193

                     40                     41                     42
                      A                      A                      A
 Frequencies --    886.8041               893.9842               918.0739
 Red. masses --      4.0385                 2.7850                 2.4860
 Frc consts  --      1.8712                 1.3114                 1.2346
 IR Inten    --      3.2358                 1.8943                19.2324

                     43                     44                     45
                      A                      A                      A
 Frequencies --    943.9714               947.7340               975.8045
 Red. masses --      1.4345                 1.7622                 1.3762
 Frc consts  --      0.7531                 0.9326                 0.7721
 IR Inten    --      1.9099                 1.3716                 1.9338

                     46                     47                     48
                      A                      A                      A
 Frequencies --    978.1915              1002.0783              1023.4965
 Red. masses --      2.1151                 1.2653                 6.1606
 Frc consts  --      1.1924                 0.7486                 3.8023
 IR Inten    --      2.3334                 0.0939                 0.8897

                     49                     50                     51
                      A                      A                      A
 Frequencies --   1030.4781              1048.0031              1048.8815
 Red. masses --      2.2554                 1.9194                 1.6613
 Frc consts  --      1.4111                 1.2421                 1.0769
 IR Inten    --      0.7062                 5.9830                13.4722

                     52                     53                     54
                      A                      A                      A
 Frequencies --   1058.4788              1082.9646              1114.9874
 Red. masses --      2.4496                 1.8766                 1.6342
 Frc consts  --      1.6170                 1.2967                 1.1970
 IR Inten    --      6.9399                28.2653                11.7011

                     55                     56                     57
                      A                      A                      A
 Frequencies --   1135.5409              1140.3666              1185.4268
 Red. masses --      2.5939                 2.1493                 1.5971
 Frc consts  --      1.9706                 1.6468                 1.3223
 IR Inten    --     15.0959                 5.6298                22.2259

                     58                     59                     60
                      A                      A                      A
 Frequencies --   1195.6017              1215.8065              1224.1214
 Red. masses --      1.0976                 1.1389                 1.3026
 Frc consts  --      0.9244                 0.9919                 1.1501
 IR Inten    --      0.0800                15.4381                15.1792

                     61                     62                     63
                      A                      A                      A
 Frequencies --   1242.8950              1251.3335              1266.0968
 Red. masses --      1.3737                 3.2315                 1.2232
 Frc consts  --      1.2503                 2.9813                 1.1552
 IR Inten    --      2.1867                18.7209                11.6334

                     64                     65                     66
                      A                      A                      A
 Frequencies --   1286.7206              1310.1295              1328.8755
 Red. masses --      1.5134                 1.7010                 1.4345
 Frc consts  --      1.4763                 1.7203                 1.4925
 IR Inten    --      8.5991               218.5080                38.2686

                     67                     68                     69
                      A                      A                      A
 Frequencies --   1342.4100              1349.0073              1350.0751
 Red. masses --      1.4606                 1.6298                 1.6852
 Frc consts  --      1.5508                 1.7475                 1.8098
 IR Inten    --     54.1101                26.4714                 5.3471

                     70                     71                     72
                      A                      A                      A
 Frequencies --   1353.7001              1367.8766              1376.9010
 Red. masses --      1.4402                 2.6862                 2.0571
 Frc consts  --      1.5549                 2.9613                 2.2978
 IR Inten    --     18.9053                 2.9289               262.0493

                     73                     74                     75
                      A                      A                      A
 Frequencies --   1416.0738              1424.1370              1464.0442
 Red. masses --      1.9682                 2.4563                 1.5641
 Frc consts  --      2.3254                 2.9351                 1.9753
 IR Inten    --     24.0405                37.5081                36.3588

                     76                     77                     78
                      A                      A                      A
 Frequencies --   1484.2928              1497.9688              1502.0969
 Red. masses --      1.6024                 1.8192                 1.2984
 Frc consts  --      2.0800                 2.4051                 1.7261
 IR Inten    --     37.4146                43.4420                15.1289

                     79                     80                     81
                      A                      A                      A
 Frequencies --   1504.6422              1517.5311              1530.1734
 Red. masses --      1.0995                 1.0948                 1.0791
 Frc consts  --      1.4666                 1.4854                 1.4886
 IR Inten    --      5.2802                 9.1701                 2.0753

                     82                     83                     84
                      A                      A                      A
 Frequencies --   1544.8092              1552.2789              1640.9549
 Red. masses --      2.2575                 1.0963                 5.5400
 Frc consts  --      3.1742                 1.5563                 8.7892
 IR Inten    --      2.0969                 2.1301                 5.5179

                     85                     86                     87
                      A                      A                      A
 Frequencies --   1664.5187              1767.2297              1799.3127
 Red. masses --      5.5677                 8.9896                 8.6967
 Frc consts  --      9.0888                16.5415                16.5889
 IR Inten    --      9.9211               267.6596               297.4087

                     88                     89                     90
                      A                      A                      A
 Frequencies --   3044.1880              3060.5700              3070.3112
 Red. masses --      1.0730                 1.0648                 1.0665
 Frc consts  --      5.8584                 5.8764                 5.9234
 IR Inten    --     28.3271                13.0155                44.4145

                     91                     92                     93
                      A                      A                      A
 Frequencies --   3075.4300              3093.0184              3102.0812
 Red. masses --      1.0679                 1.0589                 1.0950
 Frc consts  --      5.9508                 5.9687                 6.2083
 IR Inten    --     12.4508                 9.6159                13.4720

                     94                     95                     96
                      A                      A                      A
 Frequencies --   3116.6756              3125.2528              3141.9310
 Red. masses --      1.0968                 1.1024                 1.1004
 Frc consts  --      6.2772                 6.3437                 6.4002
 IR Inten    --     10.5811                44.8210                11.9629

                     97                     98                     99
                      A                      A                      A
 Frequencies --   3145.7569              3186.8266              3198.5265
 Red. masses --      1.1047                 1.0856                 1.0900
 Frc consts  --      6.4406                 6.4960                 6.5703
 IR Inten    --     19.9497                 0.2513                15.7332

                    100                    101                    102
                      A                      A                      A
 Frequencies --   3209.6755              3227.0602              3247.0492
 Red. masses --      1.0952                 1.0933                 1.0915
 Frc consts  --      6.6477                 6.7079                 6.7806
 IR Inten    --     28.3391                 6.8920                 7.2741

                    103                    104                    105
                      A                      A                      A
 Frequencies --   3531.1094              3539.8989              3761.1274
 Red. masses --      1.0775                 1.0764                 1.0659
 Frc consts  --      7.9156                 7.9471                 8.8837
 IR Inten    --     18.0569               148.3845                13.9094

 - Thermochemistry -
 -------------------
 Temperature   298.150 Kelvin.  Pressure   1.00000 Atm.
 Atom     1 has atomic number  6 and mass  12.00000

 Molecular mass:   262.13174 amu.
 Principal axes and moments of inertia in atomic units:
                           1         2         3
     Eigenvalues --  1937.11902********************
           X            0.99998  -0.00625  -0.00296
           Y            0.00619   0.99977  -0.02076
           Z            0.00309   0.02074   0.99978
 This molecule is an asymmetric top.
 Rotational symmetry number  1.
 Warning -- assumption of classical behavior for rotation
           may cause significant error
 Rotational temperatures (Kelvin)      0.04471     0.00835     0.00772
 Rotational constants (GHZ):           0.93166     0.17403     0.16078
 Zero-point vibrational energy     813397.4 (Joules/Mol)
                                  194.40664 (Kcal/Mol)
 Warning -- explicit consideration of  26 degrees of freedom as
           vibrations may cause significant error
 Vibrational temperatures:     29.35    36.12    46.49    65.69    70.33
          (Kelvin)             84.30   136.32   190.21   211.99   256.82
                              307.45   309.96   379.63   387.69   398.26
                              535.24   558.70   590.62   599.43   628.08
                              644.42   692.67   734.27   778.12   865.19
                              878.20   913.17   939.67   964.03  1010.05
                             1019.00  1034.24  1043.41  1113.63  1134.26
                             1162.79  1167.46  1196.39  1239.17  1275.91
                             1286.24  1320.90  1358.16  1363.58  1403.97
                             1407.40  1441.77  1472.58  1482.63  1507.84
                             1509.11  1522.91  1558.14  1604.22  1633.79
                             1640.73  1705.56  1720.20  1749.27  1761.24
                             1788.25  1800.39  1821.63  1851.30  1884.98
                             1911.96  1931.43  1940.92  1942.46  1947.67
                             1968.07  1981.05  2037.41  2049.02  2106.43
                             2135.57  2155.24  2161.18  2164.84  2183.39
                             2201.58  2222.64  2233.38  2360.97  2394.87
                             2542.65  2588.81  4379.91  4403.48  4417.49
                             4424.86  4450.16  4463.20  4484.20  4496.54
                             4520.54  4526.04  4585.13  4601.97  4618.01
                             4643.02  4671.78  5080.48  5093.12  5411.42

 Zero-point correction=                           0.309807 (Hartree/Particle)
 Thermal correction to Energy=                    0.327827
 Thermal correction to Enthalpy=                  0.328771
 Thermal correction to Gibbs Free Energy=         0.260589
 Sum of electronic and zero-point Energies=           -879.257703
 Sum of electronic and thermal Energies=              -879.239682
 Sum of electronic and thermal Enthalpies=            -879.238738
 Sum of electronic and thermal Free Energies=         -879.306921

                     E (Thermal)             CV                S
                      KCal/Mol        Cal/Mol-Kelvin    Cal/Mol-Kelvin
 Total                  205.715             68.247            143.502
 Electronic               0.000              0.000              0.000
 Translational            0.889              2.981             42.591
 Rotational               0.889              2.981             33.777
 Vibrational            203.937             62.285             67.134
 Vibration     1          0.593              1.986              6.595
 Vibration     2          0.593              1.985              6.183
 Vibration     3          0.594              1.983              5.682
 Vibration     4          0.595              1.979              4.997
 Vibration     5          0.595              1.978              4.862
 Vibration     6          0.596              1.974              4.504
 Vibration     7          0.603              1.953              3.560
 Vibration     8          0.612              1.921              2.914
 Vibration     9          0.617              1.906              2.706
 Vibration    10          0.629              1.869              2.344
 Vibration    11          0.644              1.820              2.012
 Vibration    12          0.645              1.817              1.997
 Vibration    13          0.670              1.739              1.636
 Vibration    14          0.674              1.729              1.600
 Vibration    15          0.678              1.716              1.553
 Vibration    16          0.744              1.530              1.071
 Vibration    17          0.756              1.495              1.007
 Vibration    18          0.775              1.447              0.925
 Vibration    19          0.780              1.434              0.904
 Vibration    20          0.797              1.391              0.838
 Vibration    21          0.807              1.366              0.802
 Vibration    22          0.838              1.291              0.706
 Vibration    23          0.865              1.227              0.633
 Vibration    24          0.896              1.160              0.564
 Vibration    25          0.960              1.029              0.447
 Vibration    26          0.969              1.010              0.432

                           ! Non-Optimized Parameters !
 Normal termination of Gaussian 16 at Sun Dec 13 20:48:41 2020.

 ----------------------------------------------------------------------
 # B3LYP/6-311++G(d,p) empiricaldispersion=gd3bj scf=xqc pop=npa geom=c
 heck
 ----------------------------------------------------------------------

 ---------------------------------------
 CID_111430233_JID_9110_Energie_neutraal
 ---------------------------------------
 Structure from the checkpoint file:  "JID_9110.chk"
 Charge =  0 Multiplicity = 1

 SCF Done:  E(RB3LYP) =  -879.827999854     A.U. after   15 cycles
 Normal termination of Gaussian 16 at Sun Dec 13 20:57:26 2020.

 ----------------------------------------------------------------------
 # B3LYP/6-311++G(d,p) empiricaldispersion=gd3bj scf=xqc pop=npa geom=c
 heck
 ----------------------------------------------------------------------

 -------------------------------------
 CID_111430233_JID_9110_Energie_kation
 -------------------------------------
 Structure from the checkpoint file:  "JID_9110.chk"
 Charge =  1 Multiplicity = 2

 SCF Done:  E(UB3LYP) =  -879.508305675     A.U. after   33 cycles
 SCF Done:  E(UB3LYP) =  -879.510734912     a.u. after   14 cycles
 Normal termination of Gaussian 16 at Mon Dec 14 01:19:02 2020.
 Gaussian 16:  ES64L-G16RevA.03 25-Dec-2016

 ----------------------------------------------------------------------
 # B3LYP/6-311++G(d,p) empiricaldispersion=gd3bj scf=xqc pop=npa geom=c
 heck
 ----------------------------------------------------------------------

 ------------------------------------
 CID_111430233_JID_9110_Energie_anion
 ------------------------------------
 Structure from the checkpoint file:  "JID_9110.chk"
 Charge = -1 Multiplicity = 2

                         Standard orientation:
 ---------------------------------------------------------------------
 Center     Atomic      Atomic             Coordinates (Angstroms)
 Number     Number       Type             X           Y           Z
 ---------------------------------------------------------------------
      1          6           0        5.059745    0.074267    0.275413
      2          6           0        4.873715   -0.842469   -0.974280
      3          6           0        3.437365   -0.570273   -1.485505
      4          6           0        2.693571    0.027055   -0.278916
      5          6           0        3.767600    0.914080    0.372691
      6          6           0        1.399041    0.755833   -0.661226
      7          6           0        0.689450    1.283973    0.573598
      8          8           0        1.000947    2.327157    1.127835
      9          7           0       -0.340791    0.512030    1.073675
     10          7           0       -0.522559   -0.803478    0.690852
     11          6           0       -1.724141   -1.364906    0.313212
     12          8           0       -1.812055   -2.585829    0.255865
     13          6           0       -2.886375   -0.475784   -0.008182
     14          6           0       -4.159384   -1.009849    0.234449
     15          6           0       -5.302571   -0.279368   -0.076168
     16          6           0       -5.185683    0.984188   -0.659199
     17          6           0       -3.921940    1.510057   -0.930865
     18          6           0       -2.775106    0.788776   -0.602436
     19          8           0        2.293809   -1.022932    0.632345
     20          1           0        5.197913   -0.530233    1.180929
     21          1           0        5.948255    0.706838    0.198019
     22          1           0        5.000139   -1.897085   -0.706181
     23          1           0        5.616550   -0.631056   -1.748430
     24          1           0        2.927589   -1.462754   -1.859958
     25          1           0        3.455127    0.168930   -2.295133
     26          1           0        3.865971    1.836208   -0.210852
     27          1           0        3.495932    1.203396    1.390176
     28          1           0        1.652097    1.618583   -1.282262
     29          1           0        0.757096    0.078960   -1.231013
     30          1           0       -0.649396    0.771565    2.006668
     31          1           0        0.246045   -1.440886    0.882890
     32          1           0       -4.228875   -2.004505    0.661377
     33          1           0       -6.284055   -0.697523    0.127986
     34          1           0       -6.076605    1.554274   -0.907474
     35          1           0       -3.826583    2.485301   -1.399503
     36          1           0       -1.800865    1.206459   -0.820499
     37          1           0        3.093783   -1.446994    0.977692
 ---------------------------------------------------------------------

 SCF Done:  E(UB3LYP) =  -879.830296383     A.U. after   32 cycles

 The electronic state is 2-A.
 Alpha  occ. eigenvalues --  -19.03658 -18.99610 -18.96605 -14.26927 -14.25033
 Alpha  occ. eigenvalues --  -10.17845 -10.14958 -10.14336 -10.08427 -10.07797
 Alpha  occ. eigenvalues --  -10.07776 -10.07568 -10.07148 -10.06504 -10.06491
 Alpha  occ. eigenvalues --  -10.06322 -10.06200 -10.05918 -10.05895  -0.95724
 Alpha  occ. eigenvalues --   -0.93863  -0.92667  -0.88312  -0.74623  -0.74280
 Alpha  occ. eigenvalues --   -0.72036  -0.67444  -0.64634  -0.63753  -0.62548
 Alpha  occ. eigenvalues --   -0.59055  -0.53289  -0.50599  -0.49850  -0.48621
 Alpha  occ. eigenvalues --   -0.48489  -0.47761  -0.45369  -0.42172  -0.41059
 Alpha  occ. eigenvalues --   -0.39355  -0.38745  -0.37300  -0.36434  -0.34388
 Alpha  occ. eigenvalues --   -0.34337  -0.32833  -0.32581  -0.31814  -0.31431
 Alpha  occ. eigenvalues --   -0.31188  -0.30176  -0.29573  -0.28896  -0.27163
 Alpha  occ. eigenvalues --   -0.26483  -0.25543  -0.25390  -0.25189  -0.24788
 Alpha  occ. eigenvalues --   -0.23674  -0.23574  -0.23312  -0.19687  -0.18820
 Alpha  occ. eigenvalues --   -0.16825  -0.15483  -0.15149  -0.14316  -0.13647
 Alpha  occ. eigenvalues --    0.03636
 Alpha virt. eigenvalues --    0.05146   0.06877   0.07352   0.08100   0.08276
 Alpha virt. eigenvalues --    0.08906   0.09052   0.09632   0.10204   0.10280
 Alpha virt. eigenvalues --    0.10683   0.10778   0.11270   0.11971   0.12427

  Beta  occ. eigenvalues --  -19.03622 -18.99573 -18.96435 -14.26929 -14.25012
  Beta  occ. eigenvalues --  -10.17812 -10.14813 -10.14329 -10.08426 -10.07767
  Beta  occ. eigenvalues --  -10.07747 -10.07555 -10.07140 -10.06536 -10.06513
  Beta  occ. eigenvalues --  -10.06237 -10.06081 -10.05800 -10.05692  -0.95651
  Beta  occ. eigenvalues --   -0.93788  -0.92440  -0.88168  -0.74390  -0.74236
  Beta  occ. eigenvalues --   -0.71939  -0.67400  -0.64276  -0.63567  -0.62506
  Beta  occ. eigenvalues --   -0.58995  -0.52857  -0.50528  -0.49770  -0.48551
  Beta  occ. eigenvalues --   -0.48418  -0.47607  -0.45306  -0.42104  -0.40975
  Beta  occ. eigenvalues --   -0.39301  -0.38696  -0.37094  -0.36344  -0.34298
  Beta  occ. eigenvalues --   -0.34225  -0.32714  -0.32445  -0.31739  -0.31377
  Beta  occ. eigenvalues --   -0.31126  -0.29985  -0.28891  -0.28804  -0.27126
  Beta  occ. eigenvalues --   -0.26431  -0.25345  -0.25224  -0.24882  -0.24663
  Beta  occ. eigenvalues --   -0.23627  -0.23501  -0.23267  -0.19472  -0.18734
  Beta  occ. eigenvalues --   -0.16738  -0.14842  -0.14699  -0.13946  -0.13034
  Beta virt. eigenvalues --    0.05911   0.07275   0.07471   0.07712   0.08395
  Beta virt. eigenvalues --    0.08444   0.09001   0.09095   0.09739   0.10246
  Beta virt. eigenvalues --    0.10374   0.10810   0.10967   0.11373   0.11981

 Mulliken charges and spin densities:
               1          2
     1  C    0.155986  -0.594668
     2  C    0.210796  -0.618374
     3  C   -0.180525  -0.271467
     4  C   -0.245028   0.639707
     5  C   -0.349631  -0.193827
     6  C    0.350147  -0.434868
     7  C   -0.235454   0.014028
     8  O   -0.292248   0.015952
     9  N   -0.212725   0.031740
    10  N   -0.263276  -0.010146
    11  C   -0.188017  -0.021812
    12  O   -0.314304   0.062167
    13  C    1.061322   0.097599
    14  C    0.345584   0.045753
    15  C   -0.396918  -0.004263
    16  C   -0.197171   0.158097
    17  C   -0.369501  -0.044601
    18  C   -1.031359   0.145257
    19  O   -0.172913  -0.005050
    20  H   -0.153934   0.304356
    21  H   -0.169324   0.327966
    22  H   -0.064522   0.229463
    23  H   -0.213733   0.363810
    24  H    0.140853   0.028580
    25  H   -0.054310   0.212947
    26  H    0.020552   0.155536
    27  H    0.249058  -0.036184
    28  H    0.013692   0.206787
    29  H    0.202433   0.023488
    30  H    0.291307   0.002689
    31  H    0.342465   0.061433
    32  H    0.178541  -0.005763
    33  H    0.125165   0.002560
    34  H    0.111018  -0.015347
    35  H    0.147037   0.014174
    36  H    0.026965  -0.026398
    37  H    0.131973   0.138681
 Sum of Mulliken charges =  -1.00000   1.00000

 Dipole moment (field-independent basis, Debye):
    X=             -1.3870    Y=              1.4071    Z=              0.4986  Tot=              2.0377
 Quadrupole moment (field-independent basis, Debye-Ang):
   XX=           -199.7743   YY=           -152.5628   ZZ=           -130.7104
   XY=             -7.5543   XZ=              1.2151   YZ=             -3.5522

 Summary of Natural Population Analysis:

                                       Natural Population
                Natural  -----------------------------------------------
    Atom  No    Charge         Core      Valence    Rydberg      Total
 -----------------------------------------------------------------------
      C    1   -0.19918      0.99965     2.19083    0.00869     3.19918
      C    2   -0.19820      0.99965     2.19042    0.00813     3.19820
      C    3   -0.20185      0.99958     2.19276    0.00952     3.20185
      C    4    0.14201      0.99951     1.84278    0.01570     2.85799
      C    5   -0.20626      0.99957     2.19677    0.00991     3.20626
      C    6   -0.24366      0.99952     2.23447    0.00967     3.24366
      C    7    0.35143      0.99968     1.62503    0.02386     2.64857
      O    8   -0.31693      0.99987     3.31130    0.00575     4.31693
      N    9   -0.22458      0.99965     2.71325    0.01168     3.72458
      N   10   -0.23650      0.99966     2.72566    0.01118     3.73650
      C   11    0.35241      0.99962     1.62567    0.02230     2.64759
      O   12   -0.30617      0.99988     3.30092    0.00537     4.30617
      C   13   -0.05370      0.99947     2.04497    0.00926     3.05370
      C   14   -0.06399      0.99954     2.05579    0.00866     3.06399
      C   15   -0.11917      0.99957     2.11047    0.00913     3.11917
      C   16   -0.06160      0.99958     2.05280    0.00923     3.06160
      C   17   -0.11656      0.99958     2.10797    0.00901     3.11656
      C   18   -0.07128      0.99954     2.06401    0.00773     3.07128
      O   19   -0.38976      0.99988     3.38297    0.00691     4.38976
      H   20    0.09450      0.00000     0.40419    0.00131     0.40550
      H   21    0.10375      0.00000     0.39514    0.00111     0.39625
      H   22    0.09762      0.00000     0.40116    0.00122     0.40238
      H   23    0.10244      0.00000     0.39625    0.00131     0.39756
      H   24    0.10626      0.00000     0.39272    0.00102     0.39374
      H   25    0.10137      0.00000     0.39746    0.00117     0.39863
      H   26    0.10381      0.00000     0.39507    0.00112     0.39619
      H   27    0.11121      0.00000     0.38774    0.00104     0.38879
      H   28    0.11520      0.00000     0.38378    0.00102     0.38480
      H   29    0.11544      0.00000     0.38324    0.00132     0.38456
      H   30    0.18825      0.00000     0.30965    0.00210     0.31175
      H   31    0.20439      0.00000     0.29281    0.00280     0.29561
      H   32    0.10562      0.00000     0.39331    0.00108     0.39438
      H   33    0.09358      0.00000     0.40544    0.00098     0.40642
      H   34    0.09030      0.00000     0.40874    0.00096     0.40970
      H   35    0.09495      0.00000     0.40412    0.00094     0.40505
      H   36    0.09948      0.00000     0.39885    0.00167     0.40052
      H   37    0.23538      0.00000     0.26169    0.00293     0.26462
 =======================================================================
   * Total *   -0.00000     18.99300    50.78021    0.22679    70.00000

 Normal termination of Gaussian 16 at Mon Dec 14 01:42:57 2020.
