 Gaussian 16, Revision A.03,

 -----------------------------------------------------------
 # opt freq B3LYP/6-31G(d) empiricaldispersion=gd3bj scf=xqc
 -----------------------------------------------------------

 ------------------------------
 CID_133622782_JID_162_neutraal
 ------------------------------
 Symbolic Z-matrix:
 Charge =  0 Multiplicity = 1

 SCF Done:  E(RB3LYP) =  -510.631220863     A.U. after   15 cycles
 SCF Done:  E(RB3LYP) =  -510.637572520     A.U. after   12 cycles
 SCF Done:  E(RB3LYP) =  -510.638132856     A.U. after   12 cycles
 SCF Done:  E(RB3LYP) =  -510.638315165     A.U. after   11 cycles
 SCF Done:  E(RB3LYP) =  -510.638422013     A.U. after   10 cycles
 SCF Done:  E(RB3LYP) =  -510.638470720     A.U. after   11 cycles
 SCF Done:  E(RB3LYP) =  -510.638487611     A.U. after   11 cycles
 SCF Done:  E(RB3LYP) =  -510.638498362     A.U. after   10 cycles
 SCF Done:  E(RB3LYP) =  -510.638501758     A.U. after    9 cycles
 SCF Done:  E(RB3LYP) =  -510.638502474     A.U. after    8 cycles
 SCF Done:  E(RB3LYP) =  -510.638502983     A.U. after    8 cycles
 SCF Done:  E(RB3LYP) =  -510.638503134     A.U. after    8 cycles
 Optimization completed.
    -- Stationary point found.
 Normal termination of Gaussian 16 at Tue Dec  8 10:18:23 2020.

 --------------------------------------------------------------------
 #N Geom=AllCheck Guess=TCheck SCRF=Check GenChk RB3LYP/6-31G(d) Freq
 --------------------------------------------------------------------

 Structure from the checkpoint file:  "JID_162.chk"
 ------------------------------
 CID_133622782_JID_162_neutraal
 ------------------------------
 Charge =  0 Multiplicity = 1

 SCF Done:  E(RB3LYP) =  -510.638503134     A.U. after    1 cycles

  Exact polarizability:  99.826  -5.966  81.780  -0.885  -1.093  48.168
 Approx polarizability: 136.211 -17.188 118.636  -0.317  -1.658  73.317

                      1                      2                      3
                      A                      A                      A
 Frequencies --     56.6433                95.2699               133.4625
 Red. masses --      5.1541                 3.3728                 2.8784
 Frc consts  --      0.0097                 0.0180                 0.0302
 IR Inten    --      3.8241                 2.4557                 4.0892

                      4                      5                      6
                      A                      A                      A
 Frequencies --    158.1867               200.0024               262.9842
 Red. masses --      5.1188                 2.6840                 5.3186
 Frc consts  --      0.0755                 0.0633                 0.2167
 IR Inten    --      3.5273                17.0169                 3.4304

                      7                      8                      9
                      A                      A                      A
 Frequencies --    295.0284               381.1768               398.3960
 Red. masses --      3.4444                 1.2655                 5.2653
 Frc consts  --      0.1766                 0.1083                 0.4924
 IR Inten    --      3.7394                94.8128                 1.6367

                     10                     11                     12
                      A                      A                      A
 Frequencies --    419.5795               482.4233               526.1292
 Red. masses --      1.1053                 2.5737                 3.5065
 Frc consts  --      0.1146                 0.3529                 0.5719
 IR Inten    --     49.9465                31.0428                15.5147

                     13                     14                     15
                      A                      A                      A
 Frequencies --    534.4039               573.3245               649.9123
 Red. masses --      4.4352                 1.3264                 3.0273
 Frc consts  --      0.7463                 0.2569                 0.7534
 IR Inten    --      5.0557               170.7666                21.9149

                     16                     17                     18
                      A                      A                      A
 Frequencies --    675.9879               771.2286               807.2796
 Red. masses --      3.3997                 8.2988                 2.1177
 Frc consts  --      0.9153                 2.9082                 0.8131
 IR Inten    --     15.7521                54.2959                 2.8589

                     19                     20                     21
                      A                      A                      A
 Frequencies --    850.7719               898.1718               969.4608
 Red. masses --      4.3584                 2.1047                 7.5754
 Frc consts  --      1.8587                 1.0004                 4.1948
 IR Inten    --      4.3385                 0.6644               136.9032

                     22                     23                     24
                      A                      A                      A
 Frequencies --    987.3074              1003.0543              1093.4335
 Red. masses --      1.8926                 1.7421                 1.9795
 Frc consts  --      1.0869                 1.0327                 1.3944
 IR Inten    --     24.3884                 4.6750                 3.0435

                     25                     26                     27
                      A                      A                      A
 Frequencies --   1095.8866              1150.3157              1191.4556
 Red. masses --      2.1687                 1.7392                 1.5174
 Frc consts  --      1.5346                 1.3559                 1.2691
 IR Inten    --      5.5153                41.1391                 5.4076

                     28                     29                     30
                      A                      A                      A
 Frequencies --   1221.6115              1227.0326              1249.8506
 Red. masses --      1.1801                 1.7069                 3.1194
 Frc consts  --      1.0376                 1.5141                 2.8710
 IR Inten    --      1.7106                 3.7768                46.5791

                     31                     32                     33
                      A                      A                      A
 Frequencies --   1277.2158              1323.9540              1355.2774
 Red. masses --      1.9290                 1.4622                 1.5869
 Frc consts  --      1.8540                 1.5101                 1.7173
 IR Inten    --     35.5391                 5.8138                 4.8088

                     34                     35                     36
                      A                      A                      A
 Frequencies --   1384.6742              1420.2571              1458.3764
 Red. masses --      1.4680                 1.4519                 4.5140
 Frc consts  --      1.6584                 1.7255                 5.6565
 IR Inten    --     16.5266                76.3756               351.3029

                     37                     38                     39
                      A                      A                      A
 Frequencies --   1502.7300              1526.0881              1552.6674
 Red. masses --      1.0983                 1.0796                 1.0895
 Frc consts  --      1.4613                 1.4814                 1.5475
 IR Inten    --      2.3631                 5.5408                 4.3784

                     40                     41                     42
                      A                      A                      A
 Frequencies --   1656.5400              1777.9099              1798.5152
 Red. masses --      1.2141                 8.9814                 7.9573
 Frc consts  --      1.9630                16.7269                15.1652
 IR Inten    --    155.3141                 4.6914               372.7552

                     43                     44                     45
                      A                      A                      A
 Frequencies --   3017.5299              3034.4631              3047.9062
 Red. masses --      1.0611                 1.0745                 1.1002
 Frc consts  --      5.6925                 5.8293                 6.0215
 IR Inten    --     28.4450                28.1870                15.4566

                     46                     47                     48
                      A                      A                      A
 Frequencies --   3053.4340              3139.3019              3146.4482
 Red. masses --      1.0696                 1.0935                 1.0948
 Frc consts  --      5.8756                 6.3492                 6.3860
 IR Inten    --     23.7885                11.4748                14.6599

                     49                     50                     51
                      A                      A                      A
 Frequencies --   3564.8872              3677.6035              3761.6894
 Red. masses --      1.0475                 1.0999                 1.0678
 Frc consts  --      7.8429                 8.7645                 8.9023
 IR Inten    --     17.5885                25.6603                78.2030

 - Thermochemistry -
 -------------------
 Temperature   298.150 Kelvin.  Pressure   1.00000 Atm.
 Atom     1 has atomic number  6 and mass  12.00000

 Molecular mass:   143.06948 amu.
 Principal axes and moments of inertia in atomic units:
                           1         2         3
     Eigenvalues --   661.422042185.873192773.86664
           X            0.99992   0.01225  -0.00308
           Y           -0.01227   0.99990  -0.00684
           Z            0.00300   0.00688   0.99997
 This molecule is an asymmetric top.
 Rotational symmetry number  1.
 Warning -- assumption of classical behavior for rotation
           may cause significant error
 Rotational temperatures (Kelvin)      0.13095     0.03962     0.03122
 Rotational constants (GHZ):           2.72858     0.82564     0.65062
 Zero-point vibrational energy     405756.8 (Joules/Mol)
                                   96.97820 (Kcal/Mol)
 Warning -- explicit consideration of  14 degrees of freedom as
           vibrations may cause significant error
 Vibrational temperatures:     81.50   137.07   192.02   227.60   287.76
          (Kelvin)            378.38   424.48   548.43   573.20   603.68
                              694.10   756.98   768.89   824.89   935.08
                              972.60  1109.63  1161.50  1224.07  1292.27
                             1394.84  1420.52  1443.17  1573.21  1576.74
                             1655.05  1714.24  1757.63  1765.43  1798.26
                             1837.63  1904.87  1949.94  1992.24  2043.43
                             2098.28  2162.09  2195.70  2233.94  2383.39
                             2558.02  2587.66  4341.55  4365.92  4385.26
                             4393.21  4516.76  4527.04  5129.08  5291.25
                             5412.23

 Zero-point correction=                           0.154545 (Hartree/Particle)
 Thermal correction to Energy=                    0.164307
 Thermal correction to Enthalpy=                  0.165251
 Thermal correction to Gibbs Free Energy=         0.119218
 Sum of electronic and zero-point Energies=           -510.483959
 Sum of electronic and thermal Energies=              -510.474196
 Sum of electronic and thermal Enthalpies=            -510.473252
 Sum of electronic and thermal Free Energies=         -510.519285

                     E (Thermal)             CV                S
                      KCal/Mol        Cal/Mol-Kelvin    Cal/Mol-Kelvin
 Total                  103.104             36.105             96.885
 Electronic               0.000              0.000              0.000
 Translational            0.889              2.981             40.786
 Rotational               0.889              2.981             29.774
 Vibrational            101.327             30.143             26.325
 Vibration     1          0.596              1.975              4.571
 Vibration     2          0.603              1.953              3.549
 Vibration     3          0.613              1.920              2.896
 Vibration     4          0.621              1.893              2.571
 Vibration     5          0.638              1.840              2.133
 Vibration     6          0.670              1.741              1.642
 Vibration     7          0.689              1.683              1.445
 Vibration     8          0.751              1.510              1.034
 Vibration     9          0.765              1.474              0.969
 Vibration    10          0.782              1.428              0.893
 Vibration    11          0.839              1.289              0.704
 Vibration    12          0.881              1.192              0.596
 Vibration    13          0.889              1.174              0.577
 Vibration    14          0.930              1.089              0.498

                           ! Non-Optimized Parameters !
 Normal termination of Gaussian 16 at Tue Dec  8 10:21:19 2020.

 ----------------------------------------------------------------------
 # B3LYP/6-311++G(d,p) empiricaldispersion=gd3bj scf=xqc pop=npa geom=c
 heck
 ----------------------------------------------------------------------

 --------------------------------------
 CID_133622782_JID_162_Energie_neutraal
 --------------------------------------
 Structure from the checkpoint file:  "JID_162.chk"
 Charge =  0 Multiplicity = 1

 SCF Done:  E(RB3LYP) =  -510.804198947     A.U. after   14 cycles
 Normal termination of Gaussian 16 at Tue Dec  8 10:22:25 2020.

 ----------------------------------------------------------------------
 # B3LYP/6-311++G(d,p) empiricaldispersion=gd3bj scf=xqc pop=npa geom=c
 heck
 ----------------------------------------------------------------------

 ------------------------------------
 CID_133622782_JID_162_Energie_kation
 ------------------------------------
 Structure from the checkpoint file:  "JID_162.chk"
 Charge =  1 Multiplicity = 2

 SCF Done:  E(UB3LYP) =  -510.475983598     A.U. after   26 cycles
 Normal termination of Gaussian 16 at Tue Dec  8 10:25:16 2020.
 Gaussian 16:  ES64L-G16RevA.03 25-Dec-2016

 ----------------------------------------------------------------------
 # B3LYP/6-311++G(d,p) empiricaldispersion=gd3bj scf=xqc pop=npa geom=c
 heck
 ----------------------------------------------------------------------

 -----------------------------------
 CID_133622782_JID_162_Energie_anion
 -----------------------------------
 Structure from the checkpoint file:  "JID_162.chk"
 Charge = -1 Multiplicity = 2

                         Standard orientation:
 ---------------------------------------------------------------------
 Center     Atomic      Atomic             Coordinates (Angstroms)
 Number     Number       Type             X           Y           Z
 ---------------------------------------------------------------------
      1          6           0        0.969061    1.724581    0.273343
      2          6           0       -0.497069    1.573933   -0.156248
      3          7           0       -0.802878    0.177726    0.177485
      4          6           0        0.386091   -0.670629    0.130670
      5          6           0        1.516494    0.329909    0.093992
      6          7           0        2.753142    0.086388   -0.088707
      7          8           0        2.966484   -1.306730   -0.208513
      8          6           0       -2.086476   -0.279224   -0.021366
      9          8           0       -3.013986    0.467529   -0.310608
     10          7           0       -2.243543   -1.656968    0.095747
     11          1           0        1.026703    2.005891    1.333008
     12          1           0        1.521593    2.468314   -0.304643
     13          1           0       -1.180297    2.240820    0.371094
     14          1           0       -0.620052    1.753326   -1.233508
     15          1           0        0.414749   -1.323136   -0.753335
     16          1           0        0.473760   -1.319277    1.014554
     17          1           0        3.919463   -1.353164   -0.381119
     18          1           0       -1.634322   -2.157630    0.729911
     19          1           0       -3.217231   -1.922976    0.162980
 ---------------------------------------------------------------------

 SCF Done:  E(UB3LYP) =  -510.793858859     A.U. after   32 cycles

 The electronic state is 2-A.
 Alpha  occ. eigenvalues --  -19.05567 -18.97268 -14.25422 -14.23096 -14.21401
 Alpha  occ. eigenvalues --  -10.18414 -10.11217 -10.10780 -10.10537 -10.08479
 Alpha  occ. eigenvalues --   -0.97512  -0.93967  -0.84597  -0.78974  -0.76319
 Alpha  occ. eigenvalues --   -0.66687  -0.62574  -0.54443  -0.47052  -0.44828
 Alpha  occ. eigenvalues --   -0.43860  -0.41003  -0.39340  -0.39117  -0.35253
 Alpha  occ. eigenvalues --   -0.33806  -0.32530  -0.31803  -0.29735  -0.28452
 Alpha  occ. eigenvalues --   -0.28390  -0.27553  -0.26754  -0.18176  -0.17285
 Alpha  occ. eigenvalues --   -0.15688  -0.15413  -0.13853   0.04599
 Alpha virt. eigenvalues --    0.07064   0.07525   0.08427   0.10129   0.10225
 Alpha virt. eigenvalues --    0.11163   0.11643   0.12417   0.14114   0.14288
 Alpha virt. eigenvalues --    0.15451   0.16379   0.16558   0.17834   0.18370

  Beta  occ. eigenvalues --  -19.05519 -18.97259 -14.25367 -14.23095 -14.21335
  Beta  occ. eigenvalues --  -10.18408 -10.11206 -10.10727 -10.10523 -10.08464
  Beta  occ. eigenvalues --   -0.97409  -0.93946  -0.84573  -0.78878  -0.76220
  Beta  occ. eigenvalues --   -0.66637  -0.62487  -0.54389  -0.46966  -0.44731
  Beta  occ. eigenvalues --   -0.43772  -0.40936  -0.39254  -0.39061  -0.35202
  Beta  occ. eigenvalues --   -0.33761  -0.32459  -0.31763  -0.29696  -0.28410
  Beta  occ. eigenvalues --   -0.28306  -0.27502  -0.26709  -0.18071  -0.17230
  Beta  occ. eigenvalues --   -0.15631  -0.15290  -0.13829
  Beta virt. eigenvalues --    0.07269   0.08264   0.08500   0.08811   0.10395
  Beta virt. eigenvalues --    0.11236   0.11291   0.12235   0.12726   0.14206
  Beta virt. eigenvalues --    0.14914   0.15674   0.16438   0.16557   0.17942

 Mulliken charges and spin densities:
               1          2
     1  C    1.449568  -1.877692
     2  C    0.116934  -0.381301
     3  N   -0.076899   0.093581
     4  C   -0.532723  -0.265011
     5  C    0.623594  -0.288191
     6  N   -0.376725   0.130088
     7  O   -0.060124  -0.030634
     8  C    0.324929  -0.076011
     9  O   -0.416398   0.006403
    10  N   -0.368807  -0.006981
    11  H   -0.300820   0.481924
    12  H   -0.006106   0.161070
    13  H    0.025823   0.168125
    14  H    0.094052   0.079782
    15  H   -0.038363   0.279790
    16  H   -0.708417   0.951476
    17  H   -0.209034   0.484502
    18  H   -0.349008   0.601544
    19  H   -0.191474   0.487534
 Sum of Mulliken charges =  -1.00000   1.00000

 Dipole moment (field-independent basis, Debye):
    X=              0.3477    Y=              4.2492    Z=             -2.2916  Tot=              4.8403
 Quadrupole moment (field-independent basis, Debye-Ang):
   XX=           -117.0888   YY=            -96.5784   ZZ=            -84.1150
   XY=              3.1668   XZ=             -0.2780   YZ=              2.8606

 Summary of Natural Population Analysis:

                                       Natural Population
                Natural  -----------------------------------------------
    Atom  No    Charge         Core      Valence    Rydberg      Total
 -----------------------------------------------------------------------
      C    1   -0.20963      0.99959     2.20251    0.00753     3.20963
      C    2   -0.07447      0.99963     2.06574    0.00911     3.07447
      N    3   -0.27134      0.99965     2.75976    0.01193     3.77134
      C    4   -0.11576      0.99956     2.10464    0.01155     3.11576
      C    5    0.11892      0.99961     1.86354    0.01794     2.88108
      N    6   -0.08153      0.99957     2.56756    0.01441     3.58153
      O    7   -0.28647      0.99990     3.27955    0.00702     4.28647
      C    8    0.40918      0.99968     1.56796    0.02318     2.59082
      O    9   -0.34313      0.99988     3.33767    0.00558     4.34313
      N   10   -0.41554      0.99972     2.90721    0.00861     3.91554
      H   11    0.10995      0.00000     0.38777    0.00227     0.39005
      H   12    0.10933      0.00000     0.38933    0.00135     0.39067
      H   13    0.10673      0.00000     0.39185    0.00142     0.39327
      H   14    0.08965      0.00000     0.40894    0.00141     0.41035
      H   15    0.11061      0.00000     0.38766    0.00173     0.38939
      H   16    0.11612      0.00000     0.37813    0.00575     0.38388
      H   17    0.23658      0.00000     0.25382    0.00961     0.26342
      H   18    0.19706      0.00000     0.29293    0.01001     0.30294
      H   19    0.19374      0.00000     0.30410    0.00215     0.30626
 =======================================================================
   * Total *   -0.00000      9.99680    27.85066    0.15254    38.00000

 Normal termination of Gaussian 16 at Tue Dec  8 10:28:47 2020.
