 Gaussian 16, Revision A.03,

 -----------------------------------------------------------
 # opt freq B3LYP/6-31G(d) empiricaldispersion=gd3bj scf=xqc
 -----------------------------------------------------------

 -------------------------------
 CID_113793378_JID_9975_neutraal
 -------------------------------
 Symbolic Z-matrix:
 Charge =  0 Multiplicity = 1

 SCF Done:  E(RB3LYP) =  -865.928482409     A.U. after   15 cycles
 SCF Done:  E(RB3LYP) =  -865.934632631     A.U. after   13 cycles
 SCF Done:  E(RB3LYP) =  -865.933467088     A.U. after   14 cycles
 SCF Done:  E(RB3LYP) =  -865.935655164     A.U. after   13 cycles
 SCF Done:  E(RB3LYP) =  -865.937435673     A.U. after   13 cycles
 SCF Done:  E(RB3LYP) =  -865.937979389     A.U. after   12 cycles
 SCF Done:  E(RB3LYP) =  -865.938299770     A.U. after   13 cycles
 SCF Done:  E(RB3LYP) =  -865.939040627     A.U. after   12 cycles
 SCF Done:  E(RB3LYP) =  -865.939231013     A.U. after   12 cycles
 SCF Done:  E(RB3LYP) =  -865.939294858     A.U. after   12 cycles
 SCF Done:  E(RB3LYP) =  -865.939426435     A.U. after    7 cycles
 SCF Done:  E(RB3LYP) =  -865.939426554     A.U. after    8 cycles
 SCF Done:  E(RB3LYP) =  -865.939426709     A.U. after    8 cycles
 SCF Done:  E(RB3LYP) =  -865.939426750     A.U. after    7 cycles
 SCF Done:  E(RB3LYP) =  -865.939426772     A.U. after    7 cycles
 Optimization completed.
    -- Stationary point found.
 Normal termination of Gaussian 16 at Sun Dec 13 12:54:55 2020.

 --------------------------------------------------------------------
 #N Geom=AllCheck Guess=TCheck SCRF=Check GenChk RB3LYP/6-31G(d) Freq
 --------------------------------------------------------------------

 Structure from the checkpoint file:  "JID_9975.chk"
 -------------------------------
 CID_113793378_JID_9975_neutraal
 -------------------------------
 Charge =  0 Multiplicity = 1

 SCF Done:  E(RB3LYP) =  -865.939426772     A.U. after    1 cycles

  Exact polarizability: 206.421  18.089 174.159  -5.294  11.923 131.415
 Approx polarizability: 277.879  19.789 250.141  -7.866  32.633 210.694

 ******    1 imaginary frequencies (negative Signs) ******

                      1                      2                      3
                      A                      A                      A
 Frequencies --    -10.0387                18.1132                24.7894
 Red. masses --      1.0336                 3.8955                 4.2641
 Frc consts  --      0.0001                 0.0008                 0.0015
 IR Inten    --      0.1509                 1.1884                 0.2402

                      4                      5                      6
                      A                      A                      A
 Frequencies --     40.9262                48.3681                73.0022
 Red. masses --      3.1300                 3.7030                 4.1180
 Frc consts  --      0.0031                 0.0051                 0.0129
 IR Inten    --      0.1973                 0.1223                 1.9029

                      7                      8                      9
                      A                      A                      A
 Frequencies --     87.7033                92.0716               101.8370
 Red. masses --      3.6041                 3.2480                 6.8460
 Frc consts  --      0.0163                 0.0162                 0.0418
 IR Inten    --      0.3751                 0.6261                 4.0511

                     10                     11                     12
                      A                      A                      A
 Frequencies --    122.4253               150.0992               180.3137
 Red. masses --      3.6494                 3.0781                 2.7066
 Frc consts  --      0.0322                 0.0409                 0.0518
 IR Inten    --      1.1910                 1.0513                 3.3274

                     13                     14                     15
                      A                      A                      A
 Frequencies --    188.4529               222.4889               230.2852
 Red. masses --      3.3399                 2.5038                 1.3794
 Frc consts  --      0.0699                 0.0730                 0.0431
 IR Inten    --      3.9675                 0.7289                 2.1759

                     16                     17                     18
                      A                      A                      A
 Frequencies --    256.1065               279.4246               289.7537
 Red. masses --      1.4329                 2.8044                 2.4814
 Frc consts  --      0.0554                 0.1290                 0.1227
 IR Inten    --      0.3482                 1.1074                 5.8623

                     19                     20                     21
                      A                      A                      A
 Frequencies --    309.4779               324.7012               357.3083
 Red. masses --      2.2391                 2.6606                 2.9358
 Frc consts  --      0.1263                 0.1653                 0.2208
 IR Inten    --      2.5272                 1.8462                12.6808

                     22                     23                     24
                      A                      A                      A
 Frequencies --    362.0021               400.9823               415.5287
 Red. masses --      2.8512                 3.0858                 3.1416
 Frc consts  --      0.2201                 0.2923                 0.3196
 IR Inten    --      5.3473                 0.3580                 3.7607

                     25                     26                     27
                      A                      A                      A
 Frequencies --    421.0838               460.0082               513.0505
 Red. masses --      3.1339                 3.0547                 5.3745
 Frc consts  --      0.3274                 0.3808                 0.8335
 IR Inten    --      4.9536                 2.1337                 3.6036

                     28                     29                     30
                      A                      A                      A
 Frequencies --    538.5639               550.0441               572.8046
 Red. masses --      3.1534                 2.3001                 2.9907
 Frc consts  --      0.5389                 0.4100                 0.5781
 IR Inten    --      7.9878                 1.2173                 3.0422

                     31                     32                     33
                      A                      A                      A
 Frequencies --    591.9419               659.7863               703.3994
 Red. masses --      3.3662                 6.7824                 3.8953
 Frc consts  --      0.6949                 1.7396                 1.1355
 IR Inten    --     14.5802                 0.5338                16.3048

                     34                     35                     36
                      A                      A                      A
 Frequencies --    730.7504               743.1075               765.6012
 Red. masses --      3.5378                 2.7088                 1.6674
 Frc consts  --      1.1131                 0.8813                 0.5758
 IR Inten    --      0.8624                 4.9569                98.1553

                     37                     38                     39
                      A                      A                      A
 Frequencies --    801.7808               829.9417               834.5005
 Red. masses --      1.4284                 3.3661                 1.5102
 Frc consts  --      0.5410                 1.3661                 0.6196
 IR Inten    --      8.9328                 7.1640                20.2373

                     40                     41                     42
                      A                      A                      A
 Frequencies --    863.2418               867.1025               872.8023
 Red. masses --      1.3714                 2.1031                 2.6582
 Frc consts  --      0.6021                 0.9317                 1.1931
 IR Inten    --      6.0708                20.4649                 5.2034

                     43                     44                     45
                      A                      A                      A
 Frequencies --    891.6928               932.7153               956.2045
 Red. masses --      1.7292                 2.7769                 2.0455
 Frc consts  --      0.8101                 1.4234                 1.1019
 IR Inten    --      8.5957                11.2291                 3.4968

                     46                     47                     48
                      A                      A                      A
 Frequencies --    958.8395               979.8694              1003.8873
 Red. masses --      1.3133                 1.2924                 2.4061
 Frc consts  --      0.7114                 0.7311                 1.4287
 IR Inten    --      0.0733                 3.0087                31.5093

                     49                     50                     51
                      A                      A                      A
 Frequencies --   1019.3922              1040.0170              1041.2819
 Red. masses --      1.4461                 2.7961                 2.8345
 Frc consts  --      0.8854                 1.7819                 1.8108
 IR Inten    --      4.4362                33.8864                 3.7331

                     52                     53                     54
                      A                      A                      A
 Frequencies --   1060.8911              1064.7076              1076.0472
 Red. masses --      3.0660                 1.9517                 1.5162
 Frc consts  --      2.0331                 1.3036                 1.0343
 IR Inten    --     32.8233                15.9175                 5.6761

                     55                     56                     57
                      A                      A                      A
 Frequencies --   1087.8157              1103.0635              1131.8205
 Red. masses --      2.1895                 2.2505                 1.9947
 Frc consts  --      1.5265                 1.6134                 1.5055
 IR Inten    --      0.3886                13.0658                30.0772

                     58                     59                     60
                      A                      A                      A
 Frequencies --   1139.1080              1153.4929              1164.5663
 Red. masses --      2.4925                 1.8603                 2.0565
 Frc consts  --      1.9055                 1.4583                 1.6433
 IR Inten    --     14.3901                43.2298                27.8821

                     61                     62                     63
                      A                      A                      A
 Frequencies --   1194.6961              1214.1179              1226.5444
 Red. masses --      3.4157                 1.8259                 1.3510
 Frc consts  --      2.8724                 1.5858                 1.1975
 IR Inten    --     84.0913                 8.1938                 9.6856

                     64                     65                     66
                      A                      A                      A
 Frequencies --   1236.5209              1250.0058              1279.2487
 Red. masses --      1.6244                 2.4968                 1.3215
 Frc consts  --      1.4634                 2.2986                 1.2742
 IR Inten    --      8.4896                 1.8015                15.2933

                     67                     68                     69
                      A                      A                      A
 Frequencies --   1292.2615              1316.7170              1333.9302
 Red. masses --      1.9053                 1.5424                 1.5370
 Frc consts  --      1.8746                 1.5756                 1.6113
 IR Inten    --    162.5581                49.3627                10.4071

                     70                     71                     72
                      A                      A                      A
 Frequencies --   1343.0675              1347.2014              1359.2237
 Red. masses --      1.3805                 1.3923                 2.4529
 Frc consts  --      1.4671                 1.4888                 2.6700
 IR Inten    --     45.1771                36.3587                 7.3062

                     73                     74                     75
                      A                      A                      A
 Frequencies --   1363.2997              1383.3699              1398.1895
 Red. masses --      1.2873                 1.3311                 1.2709
 Frc consts  --      1.4096                 1.5009                 1.4638
 IR Inten    --      4.6690                28.4863                14.8523

                     76                     77                     78
                      A                      A                      A
 Frequencies --   1419.2310              1421.7632              1429.7583
 Red. masses --      1.3441                 1.3760                 1.2356
 Frc consts  --      1.5951                 1.6388                 1.4881
 IR Inten    --      1.3867                 9.2162                 9.1728

                     79                     80                     81
                      A                      A                      A
 Frequencies --   1436.9754              1442.6925              1448.9192
 Red. masses --      1.3398                 1.2509                 1.2888
 Frc consts  --      1.6300                 1.5340                 1.5942
 IR Inten    --      6.6081                 0.2337                 3.1720

                     82                     83                     84
                      A                      A                      A
 Frequencies --   1461.1895              1504.2503              1511.1676
 Red. masses --      2.3793                 1.1057                 1.0836
 Frc consts  --      2.9930                 1.4742                 1.4580
 IR Inten    --      2.0803                27.2370                 2.1172

                     85                     86                     87
                      A                      A                      A
 Frequencies --   1515.4785              1516.2167              1521.6479
 Red. masses --      1.0414                 1.0450                 1.0734
 Frc consts  --      1.4091                 1.4154                 1.4644
 IR Inten    --      8.8158                 2.8698                 7.3158

                     88                     89                     90
                      A                      A                      A
 Frequencies --   1521.8677              1524.5459              1525.1998
 Red. masses --      1.0802                 1.0610                 1.0865
 Frc consts  --      1.4740                 1.4529                 1.4891
 IR Inten    --      0.5324                 1.4257                 6.0223

                     91                     92                     93
                      A                      A                      A
 Frequencies --   1526.3869              1535.5523              1544.3266
 Red. masses --      1.0967                 1.0685                 1.1773
 Frc consts  --      1.5054                 1.4845                 1.6544
 IR Inten    --      5.8604                 8.6803                43.6303

                     94                     95                     96
                      A                      A                      A
 Frequencies --   1571.8457              1635.5800              1680.0628
 Red. masses --      2.3621                 5.3870                 5.7367
 Frc consts  --      3.4385                 8.4906                 9.5403
 IR Inten    --     10.9594                 2.6536                 1.6839

                     97                     98                     99
                      A                      A                      A
 Frequencies --   1802.2425              2985.7000              3031.2596
 Red. masses --     10.8286                 1.0698                 1.0824
 Frc consts  --     20.7227                 5.6188                 5.8600
 IR Inten    --    215.2606                50.8316                 8.2641

                    100                    101                    102
                      A                      A                      A
 Frequencies --   3031.5558              3041.5822              3045.3844
 Red. masses --      1.0667                 1.0379                 1.0353
 Frc consts  --      5.7760                 5.6570                 5.6569
 IR Inten    --     52.5869                41.2890                26.1516

                    103                    104                    105
                      A                      A                      A
 Frequencies --   3060.4238              3061.8060              3075.7348
 Red. masses --      1.0383                 1.0671                 1.0814
 Frc consts  --      5.7298                 5.8939                 6.0277
 IR Inten    --     11.1519                 8.6879                52.5695

                    106                    107                    108
                      A                      A                      A
 Frequencies --   3085.9313              3093.0102              3100.4475
 Red. masses --      1.0964                 1.1003                 1.0602
 Frc consts  --      6.1519                 6.2016                 6.0046
 IR Inten    --     18.4034                22.2644                34.8125

                    109                    110                    111
                      A                      A                      A
 Frequencies --   3114.0516              3115.2322              3123.3182
 Red. masses --      1.1075                 1.1029                 1.1020
 Frc consts  --      6.3277                 6.3063                 6.3338
 IR Inten    --     25.3711                53.5876                31.5519

                    112                    113                    114
                      A                      A                      A
 Frequencies --   3124.2283              3124.8518              3150.2880
 Red. masses --      1.1009                 1.1020                 1.1021
 Frc consts  --      6.3310                 6.3398                 6.4442
 IR Inten    --     17.2116                23.1227                 6.8103

                    115                    116                    117
                      A                      A                      A
 Frequencies --   3163.2027              3166.4315              3178.9800
 Red. masses --      1.0863                 1.1072                 1.0897
 Frc consts  --      6.4041                 6.5405                 6.4886
 IR Inten    --     14.3374                11.7912                30.1037

                    118                    119                    120
                      A                      A                      A
 Frequencies --   3182.9624              3226.1608              3520.5549
 Red. masses --      1.0938                 1.0917                 1.0738
 Frc consts  --      6.5292                 6.6947                 7.8411
 IR Inten    --     19.4852                 1.8857                 1.4900

 - Thermochemistry -
 -------------------
 Temperature   298.150 Kelvin.  Pressure   1.00000 Atm.
 Atom     1 has atomic number  6 and mass  12.00000

 Molecular mass:   265.16779 amu.
 Principal axes and moments of inertia in atomic units:
                           1         2         3
     Eigenvalues --  3261.746397710.730549629.75754
           X            0.99988   0.01508   0.00364
           Y           -0.01502   0.99978  -0.01469
           Z           -0.00386   0.01463   0.99989
 This molecule is an asymmetric top.
 Rotational symmetry number  1.
 Warning -- assumption of classical behavior for rotation
           may cause significant error
 Rotational temperatures (Kelvin)      0.02655     0.01123     0.00899
 Rotational constants (GHZ):           0.55331     0.23406     0.18741
    1 imaginary frequencies ignored.
 Zero-point vibrational energy     960239.3 (Joules/Mol)
                                  229.50271 (Kcal/Mol)
 Warning -- explicit consideration of  30 degrees of freedom as
           vibrations may cause significant error
 Vibrational temperatures:     26.06    35.67    58.88    69.59   105.03
          (Kelvin)            126.19   132.47   146.52   176.14   215.96
                              259.43   271.14   320.11   331.33   368.48
                              402.03   416.89   445.27   467.17   514.09
                              520.84   576.92   597.85   605.85   661.85
                              738.17   774.87   791.39   824.14   851.67
                              949.29  1012.03  1051.39  1069.17  1101.53
                             1153.58  1194.10  1200.66  1242.01  1247.57
                             1255.77  1282.95  1341.97  1375.77  1379.56
                             1409.81  1444.37  1466.68  1496.35  1498.17
                             1526.39  1531.88  1548.19  1565.12  1587.06
                             1628.44  1638.92  1659.62  1675.55  1718.90
                             1746.84  1764.72  1779.08  1798.48  1840.55
                             1859.28  1894.46  1919.23  1932.37  1938.32
                             1955.62  1961.48  1990.36  2011.68  2041.96
                             2045.60  2057.10  2067.49  2075.71  2084.67
                             2102.33  2164.28  2174.23  2180.44  2181.50
                             2189.31  2189.63  2193.48  2194.42  2196.13
                             2209.32  2221.94  2261.54  2353.23  2417.24
                             2593.02  4295.76  4361.31  4361.73  4376.16
                             4381.63  4403.27  4405.26  4425.30  4439.97
                             4450.15  4460.85  4480.43  4482.12  4493.76
                             4495.07  4495.96  4532.56  4551.14  4555.79
                             4573.84  4579.57  4641.73  5065.29

 Zero-point correction=                           0.365736 (Hartree/Particle)
 Thermal correction to Energy=                    0.385361
 Thermal correction to Enthalpy=                  0.386305
 Thermal correction to Gibbs Free Energy=         0.315519
 Sum of electronic and zero-point Energies=           -865.573691
 Sum of electronic and thermal Energies=              -865.554066
 Sum of electronic and thermal Enthalpies=            -865.553122
 Sum of electronic and thermal Free Energies=         -865.623907

                     E (Thermal)             CV                S
                      KCal/Mol        Cal/Mol-Kelvin    Cal/Mol-Kelvin
 Total                  241.817             73.117            148.981
 Electronic               0.000              0.000              0.000
 Translational            0.889              2.981             42.625
 Rotational               0.889              2.981             33.848
 Vibrational            240.040             67.155             72.508
 Vibration     1          0.593              1.986              6.831
 Vibration     2          0.593              1.985              6.208
 Vibration     3          0.594              1.981              5.214
 Vibration     4          0.595              1.978              4.883
 Vibration     5          0.599              1.967              4.071
 Vibration     6          0.601              1.958              3.711
 Vibration     7          0.602              1.955              3.616
 Vibration     8          0.604              1.948              3.419
 Vibration     9          0.610              1.930              3.062
 Vibration    10          0.618              1.903              2.671
 Vibration    11          0.629              1.866              2.325
 Vibration    12          0.633              1.856              2.243
 Vibration    13          0.648              1.807              1.939
 Vibration    14          0.652              1.795              1.877
 Vibration    15          0.666              1.752              1.688
 Vibration    16          0.680              1.712              1.537
 Vibration    17          0.686              1.693              1.475
 Vibration    18          0.699              1.656              1.365
 Vibration    19          0.709              1.626              1.286
 Vibration    20          0.732              1.560              1.134
 Vibration    21          0.736              1.551              1.113
 Vibration    22          0.767              1.468              0.959
 Vibration    23          0.779              1.437              0.907
 Vibration    24          0.784              1.424              0.888
 Vibration    25          0.818              1.339              0.766
 Vibration    26          0.868              1.221              0.626
 Vibration    27          0.894              1.165              0.568
 Vibration    28          0.905              1.140              0.544
 Vibration    29          0.929              1.090              0.499
 Vibration    30          0.949              1.049              0.464

                           ! Non-Optimized Parameters !
 Normal termination of Gaussian 16 at Sun Dec 13 13:19:45 2020.

 ----------------------------------------------------------------------
 # B3LYP/6-311++G(d,p) empiricaldispersion=gd3bj scf=xqc pop=npa geom=c
 heck
 ----------------------------------------------------------------------

 ---------------------------------------
 CID_113793378_JID_9975_Energie_neutraal
 ---------------------------------------
 Structure from the checkpoint file:  "JID_9975.chk"
 Charge =  0 Multiplicity = 1

 SCF Done:  E(RB3LYP) =  -866.184564049     A.U. after   14 cycles
 Normal termination of Gaussian 16 at Sun Dec 13 13:30:39 2020.

 ----------------------------------------------------------------------
 # B3LYP/6-311++G(d,p) empiricaldispersion=gd3bj scf=xqc pop=npa geom=c
 heck
 ----------------------------------------------------------------------

 -------------------------------------
 CID_113793378_JID_9975_Energie_kation
 -------------------------------------
 Structure from the checkpoint file:  "JID_9975.chk"
 Charge =  1 Multiplicity = 2

 SCF Done:  E(UB3LYP) =  -865.891688627     A.U. after   27 cycles
 Normal termination of Gaussian 16 at Sun Dec 13 14:00:49 2020.
 Gaussian 16:  ES64L-G16RevA.03 25-Dec-2016

 ----------------------------------------------------------------------
 # B3LYP/6-311++G(d,p) empiricaldispersion=gd3bj scf=xqc pop=npa geom=c
 heck
 ----------------------------------------------------------------------

 ------------------------------------
 CID_113793378_JID_9975_Energie_anion
 ------------------------------------
 Structure from the checkpoint file:  "JID_9975.chk"
 Charge = -1 Multiplicity = 2

                         Standard orientation:
 ---------------------------------------------------------------------
 Center     Atomic      Atomic             Coordinates (Angstroms)
 Number     Number       Type             X           Y           Z
 ---------------------------------------------------------------------
      1          6           0        0.742348   -2.260291    1.673210
      2          6           0        1.723577   -2.832962    0.663937
      3          8           0        2.652688   -1.801796    0.237365
      4          6           0        2.335887   -1.130118   -0.875461
      5          8           0        1.415421   -1.398737   -1.623076
      6          6           0        3.299195    0.020403   -1.163846
      7          8           0        3.929094    0.624989   -0.066070
      8          6           0        3.087957    1.137245    0.969278
      9          6           0        1.927133    2.034951    0.528549
     10          7           0        0.748913    1.271754    0.108510
     11          6           0       -0.535254    1.956824    0.289952
     12          6           0       -0.715236    3.171681   -0.643681
     13          6           0       -1.704013    0.994706    0.139305
     14          6           0       -2.947254    1.343086    0.684661
     15          6           0       -4.053725    0.512140    0.544710
     16          6           0       -3.959787   -0.701321   -0.151112
     17          6           0       -2.719322   -1.046073   -0.692059
     18          6           0       -1.604820   -0.215039   -0.552863
     19          6           0       -5.164545   -1.596809   -0.308922
     20          1           0        1.269904   -1.886856    2.556933
     21          1           0        0.041921   -3.040260    1.992879
     22          1           0        0.172778   -1.436415    1.235787
     23          1           0        2.355345   -3.608986    1.102127
     24          1           0        1.214523   -3.229200   -0.216313
     25          1           0        4.106024   -0.378871   -1.790198
     26          1           0        2.745254    0.740101   -1.783110
     27          1           0        2.680671    0.313347    1.566247
     28          1           0        3.774235    1.718022    1.593591
     29          1           0        1.635838    2.616157    1.412250
     30          1           0        2.286321    2.763315   -0.217847
     31          1           0        0.832457    0.992038   -0.865222
     32          1           0       -0.540296    2.320779    1.326421
     33          1           0       -1.667282    3.679972   -0.458566
     34          1           0        0.093038    3.898661   -0.505530
     35          1           0       -0.711308    2.841942   -1.689703
     36          1           0       -3.046303    2.276482    1.235400
     37          1           0       -5.003956    0.804243    0.986676
     38          1           0       -2.614201   -1.984218   -1.232057
     39          1           0       -0.659961   -0.536089   -0.976949
     40          1           0       -5.632842   -1.813807    0.658708
     41          1           0       -5.931526   -1.128173   -0.938727
     42          1           0       -4.893476   -2.550651   -0.772057
 ---------------------------------------------------------------------

 SCF Done:  E(UB3LYP) =  -866.170800527     A.U. after   33 cycles
 SCF Done:  E(UB3LYP) =  -866.170800527     a.u. after    1 cycles

 The electronic state is 2-A.
 Alpha  occ. eigenvalues --  -19.08802 -19.04648 -19.03267 -14.20757 -10.22279
 Alpha  occ. eigenvalues --  -10.15186 -10.14298 -10.12410 -10.11192 -10.10535
 Alpha  occ. eigenvalues --  -10.08655 -10.08197 -10.07918 -10.07670 -10.07597
 Alpha  occ. eigenvalues --  -10.07498 -10.07338 -10.07197 -10.06677  -1.02963
 Alpha  occ. eigenvalues --   -0.95769  -0.94293  -0.82277  -0.76311  -0.70109
 Alpha  occ. eigenvalues --   -0.69487  -0.66829  -0.65059  -0.64664  -0.61152
 Alpha  occ. eigenvalues --   -0.59284  -0.56919  -0.53037  -0.52234  -0.50788
 Alpha  occ. eigenvalues --   -0.47866  -0.47744  -0.43285  -0.42920  -0.42029
 Alpha  occ. eigenvalues --   -0.41312  -0.38999  -0.38737  -0.37733  -0.36959
 Alpha  occ. eigenvalues --   -0.35996  -0.35134  -0.34206  -0.33472  -0.33203
 Alpha  occ. eigenvalues --   -0.32913  -0.32375  -0.32222  -0.31147  -0.30523
 Alpha  occ. eigenvalues --   -0.29537  -0.29342  -0.29013  -0.28311  -0.27890
 Alpha  occ. eigenvalues --   -0.27023  -0.26160  -0.25121  -0.24820  -0.24014
 Alpha  occ. eigenvalues --   -0.23536  -0.22476  -0.20508  -0.17863  -0.15924
 Alpha  occ. eigenvalues --   -0.14447  -0.13885   0.04120
 Alpha virt. eigenvalues --    0.05773   0.06101   0.06561   0.07056   0.07410
 Alpha virt. eigenvalues --    0.07751   0.07936   0.08168   0.08729   0.09040
 Alpha virt. eigenvalues --    0.09453   0.09832   0.10312   0.10542   0.10755

  Beta  occ. eigenvalues --  -19.08800 -19.04646 -19.03257 -14.20754 -10.22272
  Beta  occ. eigenvalues --  -10.15175 -10.14284 -10.12398 -10.11179 -10.10508
  Beta  occ. eigenvalues --  -10.08641 -10.08193 -10.07899 -10.07661 -10.07578
  Beta  occ. eigenvalues --  -10.07487 -10.07318 -10.07194 -10.06651  -1.02954
  Beta  occ. eigenvalues --   -0.95760  -0.94281  -0.82259  -0.76287  -0.70081
  Beta  occ. eigenvalues --   -0.69459  -0.66801  -0.65034  -0.64631  -0.61119
  Beta  occ. eigenvalues --   -0.59245  -0.56882  -0.52994  -0.52195  -0.50745
  Beta  occ. eigenvalues --   -0.47836  -0.47715  -0.43263  -0.42892  -0.42005
  Beta  occ. eigenvalues --   -0.41281  -0.38975  -0.38706  -0.37702  -0.36934
  Beta  occ. eigenvalues --   -0.35962  -0.35110  -0.34183  -0.33433  -0.33176
  Beta  occ. eigenvalues --   -0.32879  -0.32349  -0.32191  -0.31120  -0.30490
  Beta  occ. eigenvalues --   -0.29509  -0.29306  -0.28991  -0.28282  -0.27860
  Beta  occ. eigenvalues --   -0.26984  -0.26141  -0.25086  -0.24800  -0.23986
  Beta  occ. eigenvalues --   -0.23514  -0.22456  -0.20494  -0.17849  -0.15884
  Beta  occ. eigenvalues --   -0.14396  -0.13864
  Beta virt. eigenvalues --    0.05985   0.06348   0.06719   0.06842   0.07451
  Beta virt. eigenvalues --    0.07857   0.07941   0.08094   0.08466   0.09084
  Beta virt. eigenvalues --    0.09248   0.09805   0.10116   0.10576   0.10832

 Mulliken charges and spin densities:
               1          2
     1  C   -0.106710  -0.298159
     2  C   -0.054853  -0.096138
     3  O    0.057605   0.007630
     4  C   -0.283726   0.117104
     5  O   -0.186560   0.009534
     6  C   -0.038055  -0.432593
     7  O   -0.066061   0.020269
     8  C    0.006979  -0.573546
     9  C    0.299444  -0.439957
    10  N    0.186575   0.002601
    11  C    0.204267  -0.115011
    12  C    0.326909  -1.008820
    13  C    0.197645   0.247036
    14  C   -0.304092   0.025107
    15  C   -0.125897  -0.257475
    16  C    0.373091  -0.032428
    17  C   -0.895113   0.306077
    18  C   -0.511735   0.242224
    19  C    0.792847  -1.414005
    20  H   -0.060993   0.196561
    21  H   -0.223268   0.370669
    22  H    0.648089  -0.478099
    23  H   -0.198871   0.383147
    24  H    0.120897   0.044016
    25  H    0.068323   0.129967
    26  H   -0.030843   0.248950
    27  H    0.373766  -0.156692
    28  H   -0.348027   0.530027
    29  H   -0.277874   0.413432
    30  H    0.049609   0.127092
    31  H    0.365550  -0.205966
    32  H   -0.214213   0.401384
    33  H   -0.058077   0.199610
    34  H   -0.299774   0.453589
    35  H   -0.004344   0.142814
    36  H   -0.503979   0.676057
    37  H   -0.219506   0.390095
    38  H   -0.038246   0.202843
    39  H    0.131765   0.025284
    40  H   -0.087481   0.239087
    41  H    0.042268   0.109525
    42  H   -0.107332   0.247157
 Sum of Mulliken charges =  -1.00000   1.00000

 Dipole moment (field-independent basis, Debye):
    X=              2.0535    Y=             -2.8665    Z=             -3.0910  Tot=              4.6891
 Quadrupole moment (field-independent basis, Debye-Ang):
   XX=           -194.2238   YY=           -180.2508   ZZ=           -154.0698
   XY=             -4.9524   XZ=             -0.8061   YZ=             -2.8203

 Summary of Natural Population Analysis:

                                       Natural Population
                Natural  -----------------------------------------------
    Atom  No    Charge         Core      Valence    Rydberg      Total
 -----------------------------------------------------------------------
      C    1   -0.30145      0.99965     2.29606    0.00574     3.30145
      C    2   -0.01805      0.99957     2.00735    0.01113     3.01805
      O    3   -0.27667      0.99985     3.26724    0.00958     4.27667
      C    4    0.39927      0.99970     1.57626    0.02477     2.60073
      O    5   -0.31344      0.99987     3.30790    0.00567     4.31344
      C    6   -0.05398      0.99953     2.04184    0.01261     3.05398
      O    7   -0.29329      0.99989     3.28423    0.00917     4.29329
      C    8   -0.01484      0.99956     2.00227    0.01302     3.01484
      C    9   -0.10639      0.99961     2.09610    0.01069     3.10639
      N   10   -0.35053      0.99973     2.83848    0.01232     3.85053
      C   11   -0.01240      0.99956     1.99959    0.01325     3.01240
      C   12   -0.28869      0.99964     2.28380    0.00524     3.28869
      C   13   -0.01525      0.99949     2.00453    0.01123     3.01525
      C   14   -0.09349      0.99951     2.08407    0.00990     3.09349
      C   15   -0.10002      0.99951     2.09106    0.00944     3.10002
      C   16   -0.02131      0.99951     2.01197    0.00982     3.02131
      C   17   -0.09791      0.99952     2.08926    0.00913     3.09791
      C   18   -0.10567      0.99950     2.09697    0.00920     3.10567
      C   19   -0.29045      0.99964     2.28605    0.00476     3.29045
      H   20    0.09933      0.00000     0.39962    0.00105     0.40067
      H   21    0.10284      0.00000     0.39611    0.00105     0.39716
      H   22    0.11446      0.00000     0.38390    0.00164     0.38554
      H   23    0.08975      0.00000     0.40905    0.00120     0.41025
      H   24    0.09720      0.00000     0.40145    0.00135     0.40280
      H   25    0.10385      0.00000     0.39503    0.00112     0.39615
      H   26    0.08964      0.00000     0.40903    0.00132     0.41036
      H   27    0.08892      0.00000     0.40911    0.00197     0.41108
      H   28    0.09177      0.00000     0.40680    0.00143     0.40823
      H   29    0.10331      0.00000     0.39478    0.00191     0.39669
      H   30    0.08727      0.00000     0.41122    0.00151     0.41273
      H   31    0.17408      0.00000     0.32171    0.00421     0.32592
      H   32    0.09709      0.00000     0.40052    0.00239     0.40291
      H   33    0.10223      0.00000     0.39675    0.00102     0.39777
      H   34    0.10056      0.00000     0.39826    0.00118     0.39944
      H   35    0.09673      0.00000     0.40219    0.00108     0.40327
      H   36    0.10080      0.00000     0.39794    0.00125     0.39920
      H   37    0.09845      0.00000     0.40051    0.00104     0.40155
      H   38    0.09743      0.00000     0.40115    0.00142     0.40257
      H   39    0.11229      0.00000     0.38527    0.00244     0.38771
      H   40    0.10368      0.00000     0.39507    0.00125     0.39632
      H   41    0.10164      0.00000     0.39731    0.00105     0.39836
      H   42    0.10124      0.00000     0.39780    0.00096     0.39876
 =======================================================================
   * Total *   -0.00000     18.99286    52.77562    0.23152    72.00000

 Normal termination of Gaussian 16 at Sun Dec 13 14:36:56 2020.
