 Gaussian 16, Revision A.03,

 -----------------------------------------------------------
 # opt freq B3LYP/6-31G(d) empiricaldispersion=gd3bj scf=xqc
 -----------------------------------------------------------

 ------------------------------
 CID_79345746_JID_4046_neutraal
 ------------------------------
 Symbolic Z-matrix:
 Charge =  0 Multiplicity = 1

 SCF Done:  E(RB3LYP) =  -702.634164051     A.U. after   15 cycles
 SCF Done:  E(RB3LYP) =  -702.633948933     A.U. after   13 cycles
 SCF Done:  E(RB3LYP) =  -702.639038772     A.U. after   12 cycles
 SCF Done:  E(RB3LYP) =  -702.639617526     A.U. after   12 cycles
 SCF Done:  E(RB3LYP) =  -702.640419130     A.U. after   12 cycles
 SCF Done:  E(RB3LYP) =  -702.640556651     A.U. after   11 cycles
 SCF Done:  E(RB3LYP) =  -702.640611495     A.U. after   11 cycles
 SCF Done:  E(RB3LYP) =  -702.640681583     A.U. after   10 cycles
 SCF Done:  E(RB3LYP) =  -702.640779872     A.U. after   11 cycles
 SCF Done:  E(RB3LYP) =  -702.640354039     A.U. after   15 cycles
 SCF Done:  E(RB3LYP) =  -702.648702716     A.U. after    7 cycles
 SCF Done:  E(RB3LYP) =  -702.648702848     A.U. after    7 cycles
 SCF Done:  E(RB3LYP) =  -702.648702905     A.U. after    7 cycles
 SCF Done:  E(RB3LYP) =  -702.648702993     A.U. after    7 cycles
 SCF Done:  E(RB3LYP) =  -702.648703048     A.U. after    7 cycles
 Optimization completed.
    -- Stationary point found.
 Normal termination of Gaussian 16 at Thu Dec 10 09:26:38 2020.

 --------------------------------------------------------------------
 #N Geom=AllCheck Guess=TCheck SCRF=Check GenChk RB3LYP/6-31G(d) Freq
 --------------------------------------------------------------------

 Structure from the checkpoint file:  "JID_4046.chk"
 ------------------------------
 CID_79345746_JID_4046_neutraal
 ------------------------------
 Charge =  0 Multiplicity = 1

 SCF Done:  E(RB3LYP) =  -702.648703048     A.U. after    1 cycles

  Exact polarizability: 135.947   5.094 110.139   8.694  -2.122  83.093
 Approx polarizability: 183.589  -3.176 163.443  23.038  -9.955 126.312

                      1                      2                      3
                      A                      A                      A
 Frequencies --     29.4350                34.2167                80.6154
 Red. masses --      4.0387                 4.5836                 4.3060
 Frc consts  --      0.0021                 0.0032                 0.0165
 IR Inten    --      0.0637                 0.9582                 1.6412

                      4                      5                      6
                      A                      A                      A
 Frequencies --     84.2218                93.7973               104.1940
 Red. masses --      5.8054                 1.1704                 2.2889
 Frc consts  --      0.0243                 0.0061                 0.0146
 IR Inten    --      0.1568                 0.4211                 2.6989

                      7                      8                      9
                      A                      A                      A
 Frequencies --    118.5825               152.5279               195.3713
 Red. masses --      1.2661                 2.5159                 4.5708
 Frc consts  --      0.0105                 0.0345                 0.1028
 IR Inten    --      0.2291                 1.8302                 1.2355

                     10                     11                     12
                      A                      A                      A
 Frequencies --    237.1298               248.8893               278.1119
 Red. masses --      4.8530                 2.8162                 4.3896
 Frc consts  --      0.1608                 0.1028                 0.2000
 IR Inten    --      4.4579                 4.7024                 2.6462

                     13                     14                     15
                      A                      A                      A
 Frequencies --    318.9654               327.3796               377.2499
 Red. masses --      4.0384                 3.9377                 3.3569
 Frc consts  --      0.2421                 0.2487                 0.2815
 IR Inten    --     11.6703                 0.9408                 2.8014

                     16                     17                     18
                      A                      A                      A
 Frequencies --    451.2531               466.3951               493.8605
 Red. masses --      6.6671                 1.4216                 2.0870
 Frc consts  --      0.7999                 0.1822                 0.2999
 IR Inten    --      6.0885                53.4591                32.2841

                     19                     20                     21
                      A                      A                      A
 Frequencies --    501.9205               510.4108               597.0044
 Red. masses --      1.6972                 1.9601                 1.0932
 Frc consts  --      0.2519                 0.3009                 0.2296
 IR Inten    --     47.3480                11.9343               108.2007

                     22                     23                     24
                      A                      A                      A
 Frequencies --    607.3755               659.1139               685.8572
 Red. masses --      3.9554                 3.4786                 3.3136
 Frc consts  --      0.8597                 0.8904                 0.9184
 IR Inten    --      6.5734                 7.3277                19.1685

                     25                     26                     27
                      A                      A                      A
 Frequencies --    729.1009               767.7847               783.0611
 Red. masses --      4.6124                11.3883                 4.2251
 Frc consts  --      1.4446                 3.9554                 1.5264
 IR Inten    --      5.4633                40.3326                 8.1112

                     28                     29                     30
                      A                      A                      A
 Frequencies --    784.6350               869.7108               955.5715
 Red. masses --      5.0353                 3.5440                 4.0307
 Frc consts  --      1.8265                 1.5794                 2.1685
 IR Inten    --      3.2282                20.5706                10.5230

                     31                     32                     33
                      A                      A                      A
 Frequencies --    968.5634              1000.5338              1025.3128
 Red. masses --      2.0641                 1.5850                 1.7129
 Frc consts  --      1.1409                 0.9348                 1.0609
 IR Inten    --      7.1351                 3.8853                10.3969

                     34                     35                     36
                      A                      A                      A
 Frequencies --   1068.6130              1077.1000              1081.2996
 Red. masses --      3.5179                 1.5360                 1.5208
 Frc consts  --      2.3668                 1.0499                 1.0476
 IR Inten    --      9.1681                 0.6606                 2.7039

                     37                     38                     39
                      A                      A                      A
 Frequencies --   1101.7841              1115.4156              1140.2084
 Red. masses --      2.4886                 4.7905                 3.5260
 Frc consts  --      1.7799                 3.5116                 2.7009
 IR Inten    --     37.5959               121.4464                75.3121

                     40                     41                     42
                      A                      A                      A
 Frequencies --   1175.6054              1261.0430              1273.5878
 Red. masses --      4.0166                 1.0847                 3.0923
 Frc consts  --      3.2706                 1.0163                 2.9552
 IR Inten    --     16.6003                28.2908                32.7806

                     43                     44                     45
                      A                      A                      A
 Frequencies --   1321.5539              1332.1336              1376.2733
 Red. masses --      1.1632                 2.3373                 1.8021
 Frc consts  --      1.1970                 2.4437                 2.0111
 IR Inten    --     43.2412                19.5052               278.5855

                     46                     47                     48
                      A                      A                      A
 Frequencies --   1416.3782              1425.4826              1436.6284
 Red. masses --      1.3322                 1.5864                 1.5401
 Frc consts  --      1.5746                 1.8993                 1.8728
 IR Inten    --     73.4229                 0.5750                36.9008

                     49                     50                     51
                      A                      A                      A
 Frequencies --   1443.4595              1450.8791              1466.3029
 Red. masses --      1.5867                 1.5759                 1.9604
 Frc consts  --      1.9478                 1.9546                 2.4834
 IR Inten    --    111.0981                20.0852                32.1714

                     52                     53                     54
                      A                      A                      A
 Frequencies --   1499.5173              1502.6853              1508.4707
 Red. masses --      1.2031                 1.4856                 1.1155
 Frc consts  --      1.5939                 1.9765                 1.4956
 IR Inten    --    134.7148                13.5068                18.2818

                     55                     56                     57
                      A                      A                      A
 Frequencies --   1512.6561              1515.9308              1523.3781
 Red. masses --      1.1775                 1.0868                 1.1921
 Frc consts  --      1.5874                 1.4714                 1.6299
 IR Inten    --     12.2223                16.5335                 7.7988

                     58                     59                     60
                      A                      A                      A
 Frequencies --   1528.6609              1545.2600              1551.1470
 Red. masses --      1.1112                 2.1803                 3.8270
 Frc consts  --      1.5299                 3.0674                 5.4252
 IR Inten    --      5.1175                 5.8550                17.9030

                     61                     62                     63
                      A                      A                      A
 Frequencies --   1653.5132              1791.6222              2968.4165
 Red. masses --      5.5485                 7.9359                 1.0727
 Frc consts  --      8.9381                15.0085                 5.5688
 IR Inten    --     13.6625               510.8323                66.1704

                     64                     65                     66
                      A                      A                      A
 Frequencies --   3045.9247              3055.4966              3070.2713
 Red. masses --      1.0393                 1.0373                 1.0853
 Frc consts  --      5.6811                 5.7056                 6.0275
 IR Inten    --     34.1167                19.8603                30.1644

                     67                     68                     69
                      A                      A                      A
 Frequencies --   3089.7574              3099.6178              3108.2969
 Red. masses --      1.0637                 1.1002                 1.1008
 Frc consts  --      5.9831                 6.2278                 6.2661
 IR Inten    --     47.6621                15.0801                14.5626

                     70                     71                     72
                      A                      A                      A
 Frequencies --   3139.9307              3147.8853              3151.0031
 Red. masses --      1.0995                 1.1087                 1.1011
 Frc consts  --      6.3870                 6.4729                 6.4411
 IR Inten    --      7.0200                17.7003                11.3815

                     73                     74                     75
                      A                      A                      A
 Frequencies --   3608.1739              3613.8369              3663.6315
 Red. masses --      1.0751                 1.0667                 1.0813
 Frc consts  --      8.2464                 8.2080                 8.5507
 IR Inten    --    131.2865               202.3685                73.7194

 - Thermochemistry -
 -------------------
 Temperature   298.150 Kelvin.  Pressure   1.00000 Atm.
 Atom     1 has atomic number  6 and mass  12.00000

 Molecular mass:   199.09569 amu.
 Principal axes and moments of inertia in atomic units:
                           1         2         3
     Eigenvalues --  1384.082374600.930675243.75290
           X            0.99968   0.02490  -0.00525
           Y           -0.02473   0.99922   0.03069
           Z            0.00601  -0.03055   0.99952
 This molecule is an asymmetric top.
 Rotational symmetry number  1.
 Warning -- assumption of classical behavior for rotation
           may cause significant error
 Rotational temperatures (Kelvin)      0.06258     0.01883     0.01652
 Rotational constants (GHZ):           1.30393     0.39226     0.34417
 Zero-point vibrational energy     582563.3 (Joules/Mol)
                                  139.23598 (Kcal/Mol)
 Warning -- explicit consideration of  22 degrees of freedom as
           vibrations may cause significant error
 Vibrational temperatures:     42.35    49.23   115.99   121.18   134.95
          (Kelvin)            149.91   170.61   219.45   281.10   341.18
                              358.10   400.14   458.92   471.03   542.78
                              649.25   671.04   710.56   722.15   734.37
                              858.96   873.88   948.32   986.80  1049.01
                             1104.67  1126.65  1128.91  1251.32  1374.85
                             1393.55  1439.54  1475.20  1537.50  1549.71
                             1555.75  1585.22  1604.83  1640.51  1691.43
                             1814.36  1832.41  1901.42  1916.64  1980.15
                             2037.85  2050.95  2066.99  2076.82  2087.49
                             2109.68  2157.47  2162.03  2170.35  2176.37
                             2181.09  2191.80  2199.40  2223.28  2231.75
                             2379.04  2577.74  4270.89  4382.41  4396.18
                             4417.44  4445.47  4459.66  4472.15  4517.66
                             4529.10  4533.59  5191.36  5199.51  5271.15

 Zero-point correction=                           0.221887 (Hartree/Particle)
 Thermal correction to Energy=                    0.236567
 Thermal correction to Enthalpy=                  0.237511
 Thermal correction to Gibbs Free Energy=         0.178726
 Sum of electronic and zero-point Energies=           -702.426816
 Sum of electronic and thermal Energies=              -702.412136
 Sum of electronic and thermal Enthalpies=            -702.411192
 Sum of electronic and thermal Free Energies=         -702.469977

                     E (Thermal)             CV                S
                      KCal/Mol        Cal/Mol-Kelvin    Cal/Mol-Kelvin
 Total                  148.448             52.542            123.723
 Electronic               0.000              0.000              0.000
 Translational            0.889              2.981             41.771
 Rotational               0.889              2.981             31.879
 Vibrational            146.671             46.581             50.073
 Vibration     1          0.593              1.984              5.867
 Vibration     2          0.594              1.983              5.569
 Vibration     3          0.600              1.962              3.876
 Vibration     4          0.601              1.960              3.790
 Vibration     5          0.603              1.954              3.579
 Vibration     6          0.605              1.946              3.374
 Vibration     7          0.609              1.934              3.123
 Vibration     8          0.619              1.900              2.640
 Vibration     9          0.636              1.846              2.176
 Vibration    10          0.656              1.784              1.824
 Vibration    11          0.662              1.765              1.738
 Vibration    12          0.679              1.714              1.545
 Vibration    13          0.705              1.637              1.315
 Vibration    14          0.711              1.621              1.273
 Vibration    15          0.748              1.519              1.050
 Vibration    16          0.810              1.358              0.792
 Vibration    17          0.824              1.325              0.748
 Vibration    18          0.850              1.264              0.674
 Vibration    19          0.857              1.246              0.653
 Vibration    20          0.866              1.227              0.633
 Vibration    21          0.955              1.038              0.455
 Vibration    22          0.966              1.016              0.437

                           ! Non-Optimized Parameters !
 Normal termination of Gaussian 16 at Thu Dec 10 09:33:17 2020.

 ----------------------------------------------------------------------
 # B3LYP/6-311++G(d,p) empiricaldispersion=gd3bj scf=xqc pop=npa geom=c
 heck
 ----------------------------------------------------------------------

 --------------------------------------
 CID_79345746_JID_4046_Energie_neutraal
 --------------------------------------
 Structure from the checkpoint file:  "JID_4046.chk"
 Charge =  0 Multiplicity = 1

 SCF Done:  E(RB3LYP) =  -702.864492831     A.U. after   14 cycles
 Normal termination of Gaussian 16 at Thu Dec 10 09:35:43 2020.

 ----------------------------------------------------------------------
 # B3LYP/6-311++G(d,p) empiricaldispersion=gd3bj scf=xqc pop=npa geom=c
 heck
 ----------------------------------------------------------------------

 ------------------------------------
 CID_79345746_JID_4046_Energie_kation
 ------------------------------------
 Structure from the checkpoint file:  "JID_4046.chk"
 Charge =  1 Multiplicity = 2

 SCF Done:  E(UB3LYP) =  -702.547235416     A.U. after   33 cycles
 SCF Done:  E(UB3LYP) =  -702.547235416     a.u. after    1 cycles
 Normal termination of Gaussian 16 at Thu Dec 10 09:44:18 2020.
 Gaussian 16:  ES64L-G16RevA.03 25-Dec-2016

 ----------------------------------------------------------------------
 # B3LYP/6-311++G(d,p) empiricaldispersion=gd3bj scf=xqc pop=npa geom=c
 heck
 ----------------------------------------------------------------------

 -----------------------------------
 CID_79345746_JID_4046_Energie_anion
 -----------------------------------
 Structure from the checkpoint file:  "JID_4046.chk"
 Charge = -1 Multiplicity = 2

                         Standard orientation:
 ---------------------------------------------------------------------
 Center     Atomic      Atomic             Coordinates (Angstroms)
 Number     Number       Type             X           Y           Z
 ---------------------------------------------------------------------
      1          6           0       -2.892372   -2.135256   -0.398089
      2          6           0       -2.529551   -0.704194   -0.187195
      3          6           0       -1.402535   -0.126172    0.377621
      4          6           0       -1.603445    1.280527    0.315004
      5          7           0       -2.775598    1.558361   -0.250358
      6          7           0       -3.316875    0.345336   -0.536651
      7          6           0       -0.672409    2.358773    0.764057
      8          7           0       -0.300356   -0.818655    0.925760
      9          6           0        0.983571   -0.788289    0.461049
     10          8           0        1.907386   -1.362410    1.027450
     11          8           0        1.091754   -0.065960   -0.668276
     12          6           0        2.373704   -0.071670   -1.345218
     13          6           0        3.463083    0.723276   -0.625206
     14          8           0        4.213531   -0.023697    0.301268
     15          1           0       -2.014261   -2.762071   -0.219985
     16          1           0       -3.686529   -2.465471    0.283436
     17          1           0       -3.235333   -2.317393   -1.423101
     18          1           0       -4.228410    0.312589   -0.967124
     19          1           0       -0.330303    2.183363    1.790598
     20          1           0        0.218194    2.394109    0.126410
     21          1           0       -1.174092    3.328428    0.720977
     22          1           0       -0.390517   -1.291246    1.815348
     23          1           0        2.701227   -1.104962   -1.495709
     24          1           0        2.137657    0.382237   -2.310150
     25          1           0        4.170170    1.086572   -1.381212
     26          1           0        2.990062    1.613290   -0.171744
     27          1           0        3.570300   -0.560167    0.805322
 ---------------------------------------------------------------------

 SCF Done:  E(UB3LYP) =  -702.856273861     A.U. after   31 cycles

 The electronic state is 2-A.
 Alpha  occ. eigenvalues --  -19.08383 -19.02453 -19.01951 -14.27935 -14.25923
 Alpha  occ. eigenvalues --  -14.22758 -10.24195 -10.15043 -10.13868 -10.11728
 Alpha  occ. eigenvalues --  -10.10140 -10.09992 -10.07703 -10.07249  -1.03172
 Alpha  occ. eigenvalues --   -0.94474  -0.93868  -0.93269  -0.84854  -0.73725
 Alpha  occ. eigenvalues --   -0.69485  -0.67650  -0.62417  -0.60969  -0.58009
 Alpha  occ. eigenvalues --   -0.53000  -0.49581  -0.47359  -0.45249  -0.43677
 Alpha  occ. eigenvalues --   -0.43008  -0.40578  -0.38825  -0.37560  -0.37067
 Alpha  occ. eigenvalues --   -0.35662  -0.33793  -0.33196  -0.32480  -0.31846
 Alpha  occ. eigenvalues --   -0.31114  -0.29891  -0.29406  -0.29154  -0.28055
 Alpha  occ. eigenvalues --   -0.26705  -0.22524  -0.21353  -0.20600  -0.18879
 Alpha  occ. eigenvalues --   -0.18058  -0.15130  -0.14073   0.04159
 Alpha virt. eigenvalues --    0.06070   0.07105   0.07765   0.08982   0.09286
 Alpha virt. eigenvalues --    0.09459   0.09747   0.10519   0.10919   0.11695
 Alpha virt. eigenvalues --    0.12220   0.12326   0.12751   0.13316   0.14319

  Beta  occ. eigenvalues --  -19.08376 -19.02451 -19.01947 -14.27896 -14.25897
  Beta  occ. eigenvalues --  -14.22750 -10.24195 -10.15029 -10.13860 -10.11729
  Beta  occ. eigenvalues --  -10.10134 -10.09992 -10.07693 -10.07167  -1.03159
  Beta  occ. eigenvalues --   -0.94444  -0.93858  -0.93264  -0.84819  -0.73688
  Beta  occ. eigenvalues --   -0.69450  -0.67618  -0.62381  -0.60871  -0.57983
  Beta  occ. eigenvalues --   -0.52962  -0.49530  -0.47319  -0.45218  -0.43663
  Beta  occ. eigenvalues --   -0.42962  -0.40536  -0.38783  -0.37539  -0.37044
  Beta  occ. eigenvalues --   -0.35629  -0.33741  -0.33169  -0.32447  -0.31825
  Beta  occ. eigenvalues --   -0.31075  -0.29854  -0.29356  -0.29137  -0.28009
  Beta  occ. eigenvalues --   -0.26695  -0.22511  -0.21327  -0.20589  -0.18863
  Beta  occ. eigenvalues --   -0.18035  -0.15110  -0.14053
  Beta virt. eigenvalues --    0.06178   0.07284   0.07677   0.08541   0.09236
  Beta virt. eigenvalues --    0.09822   0.09992   0.10108   0.10707   0.11212
  Beta virt. eigenvalues --    0.11881   0.12341   0.12531   0.13285   0.13536

 Mulliken charges and spin densities:
               1          2
     1  C    2.595405  -3.053199
     2  C   -1.396509   1.880441
     3  C    1.088743  -1.763786
     4  C   -0.096301   0.307970
     5  N   -0.348486   0.302365
     6  N   -0.105648  -0.136569
     7  C    0.054975  -0.687070
     8  N   -0.426732   0.183298
     9  C    0.134738   0.040921
    10  O   -0.363103   0.026871
    11  O   -0.040830   0.009139
    12  C   -0.002294  -0.326668
    13  C   -0.064538  -0.168909
    14  O   -0.261739   0.005504
    15  H   -0.430957   0.608083
    16  H   -0.774596   0.961573
    17  H   -0.700362   0.869884
    18  H   -0.327717   0.676427
    19  H    0.007924   0.148029
    20  H    0.083581   0.059564
    21  H    0.106164   0.054669
    22  H   -0.135119   0.473162
    23  H    0.132876   0.084483
    24  H   -0.121014   0.272417
    25  H    0.030154   0.120918
    26  H    0.135481   0.018409
    27  H    0.225901   0.032072
 Sum of Mulliken charges =  -1.00000   1.00000

 Dipole moment (field-independent basis, Debye):
    X=              7.1434    Y=              4.9300    Z=              0.4965  Tot=              8.6936
 Quadrupole moment (field-independent basis, Debye-Ang):
   XX=           -174.5665   YY=           -126.1060   ZZ=           -113.8888
   XY=            -11.0705   XZ=            -11.2827   YZ=              1.4068

 Summary of Natural Population Analysis:

                                       Natural Population
                Natural  -----------------------------------------------
    Atom  No    Charge         Core      Valence    Rydberg      Total
 -----------------------------------------------------------------------
      C    1   -0.30474      0.99964     2.29883    0.00628     3.30474
      C    2    0.09388      0.99949     1.89422    0.01241     2.90612
      C    3    0.00615      0.99933     1.98007    0.01444     2.99385
      C    4    0.07677      0.99954     1.90842    0.01527     2.92323
      N    5   -0.16276      0.99970     2.65018    0.01289     3.66276
      N    6   -0.16551      0.99965     2.65343    0.01242     3.66551
      C    7   -0.29947      0.99963     2.29511    0.00473     3.29947
      N    8   -0.31292      0.99964     2.80260    0.01068     3.81292
      C    9    0.46840      0.99969     1.50652    0.02539     2.53160
      O   10   -0.35004      0.99986     3.34443    0.00575     4.35004
      O   11   -0.28070      0.99986     3.27270    0.00815     4.28070
      C   12   -0.03045      0.99956     2.01787    0.01301     3.03045
      C   13   -0.02474      0.99961     2.01367    0.01147     3.02474
      O   14   -0.38082      0.99990     3.37344    0.00749     4.38082
      H   15    0.11248      0.00000     0.38532    0.00220     0.38752
      H   16    0.11404      0.00000     0.38118    0.00478     0.38596
      H   17    0.11376      0.00000     0.38191    0.00433     0.38624
      H   18    0.20274      0.00000     0.29065    0.00661     0.29726
      H   19    0.10311      0.00000     0.39579    0.00110     0.39689
      H   20    0.10558      0.00000     0.39285    0.00157     0.39442
      H   21    0.10759      0.00000     0.39137    0.00103     0.39241
      H   22    0.20399      0.00000     0.29325    0.00276     0.29601
      H   23    0.09594      0.00000     0.40292    0.00114     0.40406
      H   24    0.09763      0.00000     0.40121    0.00116     0.40237
      H   25    0.08680      0.00000     0.41188    0.00132     0.41320
      H   26    0.07819      0.00000     0.42018    0.00163     0.42181
      H   27    0.24509      0.00000     0.25152    0.00340     0.25491
 =======================================================================
   * Total *    0.00000     13.99508    38.81151    0.19340    53.00000

 Normal termination of Gaussian 16 at Thu Dec 10 09:51:44 2020.
