 Gaussian 16, Revision A.03,

 -----------------------------------------------------------
 # opt freq B3LYP/6-31G(d) empiricaldispersion=gd3bj scf=xqc
 -----------------------------------------------------------

 -------------------------------
 CID_150653949_JID_9745_neutraal
 -------------------------------
 Symbolic Z-matrix:
 Charge =  0 Multiplicity = 1

 SCF Done:  E(RB3LYP) =  -1163.04899811     A.U. after   15 cycles
 SCF Done:  E(RB3LYP) =  -1163.05158968     A.U. after   13 cycles
 SCF Done:  E(RB3LYP) =  -1163.05215450     A.U. after   12 cycles
 SCF Done:  E(RB3LYP) =  -1163.05191118     A.U. after   12 cycles
 SCF Done:  E(RB3LYP) =  -1163.05166433     A.U. after   13 cycles
 SCF Done:  E(RB3LYP) =  -1163.05121059     A.U. after   13 cycles
 SCF Done:  E(RB3LYP) =  -1163.05239210     A.U. after    9 cycles
 SCF Done:  E(RB3LYP) =  -1163.05292893     A.U. after   13 cycles
 SCF Done:  E(RB3LYP) =  -1163.05361874     A.U. after   14 cycles
 SCF Done:  E(RB3LYP) =  -1163.05440074     A.U. after   12 cycles
 SCF Done:  E(RB3LYP) =  -1163.05641706     A.U. after   12 cycles
 SCF Done:  E(RB3LYP) =  -1163.05642468     A.U. after   12 cycles
 SCF Done:  E(RB3LYP) =  -1163.05642513     A.U. after   11 cycles
 SCF Done:  E(RB3LYP) =  -1163.05642530     A.U. after    8 cycles
 SCF Done:  E(RB3LYP) =  -1163.05642533     A.U. after    8 cycles
 Optimization completed.
    -- Stationary point found.
 Normal termination of Gaussian 16 at Sat Dec 12 10:09:41 2020.

 --------------------------------------------------------------------
 #N Geom=AllCheck Guess=TCheck SCRF=Check GenChk RB3LYP/6-31G(d) Freq
 --------------------------------------------------------------------

 Structure from the checkpoint file:  "JID_9745.chk"
 -------------------------------
 CID_150653949_JID_9745_neutraal
 -------------------------------
 Charge =  0 Multiplicity = 1

 SCF Done:  E(RB3LYP) =  -1163.05642533     A.U. after    1 cycles

  Exact polarizability: 241.100 -22.912 209.597  -1.937  -8.837 105.229
 Approx polarizability: 369.022 -29.102 355.108   3.132 -26.619 173.346

                      1                      2                      3
                      A                      A                      A
 Frequencies --     19.4398                48.8652                72.8592
 Red. masses --      4.3444                 5.6694                 6.3524
 Frc consts  --      0.0010                 0.0080                 0.0199
 IR Inten    --      6.4129                 4.2136                 7.4881

                      4                      5                      6
                      A                      A                      A
 Frequencies --     79.2194               125.2624               144.5071
 Red. masses --      4.4740                 4.5877                 3.7392
 Frc consts  --      0.0165                 0.0424                 0.0460
 IR Inten    --      3.0669                 2.9635                 0.3133

                      7                      8                      9
                      A                      A                      A
 Frequencies --    168.8998               207.0216               222.5492
 Red. masses --      6.1695                 1.0987                 4.3065
 Frc consts  --      0.1037                 0.0277                 0.1257
 IR Inten    --      3.1819                 0.4883                 2.2164

                     10                     11                     12
                      A                      A                      A
 Frequencies --    233.3680               275.5799               290.0012
 Red. masses --      4.2072                 4.1186                 4.6901
 Frc consts  --      0.1350                 0.1843                 0.2324
 IR Inten    --      0.8264                 7.4827                 1.0025

                     13                     14                     15
                      A                      A                      A
 Frequencies --    320.5597               340.7704               366.6567
 Red. masses --      5.7446                 4.7111                 5.7895
 Frc consts  --      0.3478                 0.3223                 0.4586
 IR Inten    --      3.5411                 6.1303                 1.4027

                     16                     17                     18
                      A                      A                      A
 Frequencies --    404.3435               407.0955               431.2520
 Red. masses --      3.3079                 1.4976                 8.1737
 Frc consts  --      0.3186                 0.1462                 0.8956
 IR Inten    --     61.2751               233.1195                 6.9972

                     19                     20                     21
                      A                      A                      A
 Frequencies --    448.3194               454.6905               496.1083
 Red. masses --      3.8470                 3.7657                 3.9210
 Frc consts  --      0.4556                 0.4587                 0.5686
 IR Inten    --      0.9093                 6.2224                 6.0987

                     22                     23                     24
                      A                      A                      A
 Frequencies --    520.1418               542.3262               557.4690
 Red. masses --      3.4037                 4.1431                 3.7916
 Frc consts  --      0.5426                 0.7180                 0.6943
 IR Inten    --      1.8040                 0.3795                 0.7769

                     25                     26                     27
                      A                      A                      A
 Frequencies --    583.8634               601.8803               618.3847
 Red. masses --      3.2643                 2.1806                 3.6060
 Frc consts  --      0.6556                 0.4654                 0.8124
 IR Inten    --      7.2996                27.0969                 0.9756

                     28                     29                     30
                      A                      A                      A
 Frequencies --    635.2399               663.8229               704.1190
 Red. masses --      3.4240                 4.0533                 6.3921
 Frc consts  --      0.8141                 1.0524                 1.8672
 IR Inten    --      4.4117                23.2814                 3.3755

                     31                     32                     33
                      A                      A                      A
 Frequencies --    730.3803               748.1001               755.1586
 Red. masses --      3.8508                 2.9942                 1.9293
 Frc consts  --      1.2103                 0.9873                 0.6482
 IR Inten    --      0.3694                 9.7331                23.2291

                     34                     35                     36
                      A                      A                      A
 Frequencies --    764.0362               773.9805               787.1663
 Red. masses --      1.6129                 1.8858                 1.9570
 Frc consts  --      0.5547                 0.6656                 0.7145
 IR Inten    --     78.0927                59.9891                 5.4891

                     37                     38                     39
                      A                      A                      A
 Frequencies --    831.8740               863.3898               870.3405
 Red. masses --      2.9911                 3.0581                 1.3880
 Frc consts  --      1.2195                 1.3431                 0.6195
 IR Inten    --      2.8316                 2.9518                 7.2097

                     40                     41                     42
                      A                      A                      A
 Frequencies --    894.9705               906.0134               917.7893
 Red. masses --      4.2539                 1.3616                 3.1016
 Frc consts  --      2.0075                 0.6585                 1.5393
 IR Inten    --     10.9102                 0.0548                18.8444

                     43                     44                     45
                      A                      A                      A
 Frequencies --    933.1629               952.6409               971.2288
 Red. masses --      1.3458                 1.2618                 1.2430
 Frc consts  --      0.6904                 0.6747                 0.6908
 IR Inten    --      3.9895                 0.9834                 0.3460

                     46                     47                     48
                      A                      A                      A
 Frequencies --   1033.6616              1067.7218              1078.2867
 Red. masses --      2.0901                 2.9736                 1.8100
 Frc consts  --      1.3157                 1.9973                 1.2399
 IR Inten    --      2.5026                10.0991                 4.4058

                     49                     50                     51
                      A                      A                      A
 Frequencies --   1094.7270              1111.6578              1118.1445
 Red. masses --      3.1979                 2.0179                 2.1363
 Frc consts  --      2.2580                 1.4693                 1.5736
 IR Inten    --      2.9962                 7.1212                12.0739

                     52                     53                     54
                      A                      A                      A
 Frequencies --   1146.9316              1159.6222              1174.4414
 Red. masses --      2.0090                 1.7034                 1.8026
 Frc consts  --      1.5571                 1.3496                 1.4649
 IR Inten    --      1.1543                16.0598                 5.5962

                     55                     56                     57
                      A                      A                      A
 Frequencies --   1195.3169              1207.7821              1244.3846
 Red. masses --      1.0979                 1.7956                 1.5014
 Frc consts  --      0.9243                 1.5433                 1.3698
 IR Inten    --      0.5768                 5.4085                 6.0875

                     58                     59                     60
                      A                      A                      A
 Frequencies --   1280.9093              1296.2692              1310.4654
 Red. masses --      2.4351                 1.9663                 2.2379
 Frc consts  --      2.3540                 1.9467                 2.2643
 IR Inten    --      3.1220                17.3596                38.4400

                     61                     62                     63
                      A                      A                      A
 Frequencies --   1312.8274              1331.8803              1360.3808
 Red. masses --      1.9434                 2.5227                 4.8247
 Frc consts  --      1.9735                 2.6366                 5.2607
 IR Inten    --     50.8793                42.6801                60.2735

                     64                     65                     66
                      A                      A                      A
 Frequencies --   1368.0601              1408.6768              1446.4777
 Red. masses --      2.5546                 2.4224                 1.2125
 Frc consts  --      2.8170                 2.8321                 1.4947
 IR Inten    --     35.0574                63.3584                 7.5503

                     67                     68                     69
                      A                      A                      A
 Frequencies --   1471.4418              1490.1231              1500.4817
 Red. masses --      1.8962                 3.0712                 2.4110
 Frc consts  --      2.4189                 4.0179                 3.1982
 IR Inten    --      8.4000               232.1798                28.9757

                     70                     71                     72
                      A                      A                      A
 Frequencies --   1521.3013              1528.8669              1534.6848
 Red. masses --      1.1007                 1.0662                 2.5901
 Frc consts  --      1.5009                 1.4683                 3.5943
 IR Inten    --      6.8362                 3.3731                89.3154

                     73                     74                     75
                      A                      A                      A
 Frequencies --   1579.3362              1627.8950              1642.0653
 Red. masses --      2.2133                 5.2008                 5.7473
 Frc consts  --      3.2527                 8.1203                 9.1305
 IR Inten    --     22.4215                14.8384                 7.5273

                     76                     77                     78
                      A                      A                      A
 Frequencies --   1650.7434              1660.4469              1672.0132
 Red. masses --      1.3131                 5.8813                 2.2914
 Frc consts  --      2.1082                 9.5538                 3.7742
 IR Inten    --     88.4360                20.7152                14.2490

                     79                     80                     81
                      A                      A                      A
 Frequencies --   1776.7327              3053.0646              3073.2622
 Red. masses --      7.8176                 1.0837                 1.0356
 Frc consts  --     14.5402                 5.9516                 5.7631
 IR Inten    --    246.9732                15.6161                21.7363

                     82                     83                     84
                      A                      A                      A
 Frequencies --   3143.2092              3155.2043              3176.9768
 Red. masses --      1.1039                 1.1016                 1.0879
 Frc consts  --      6.4261                 6.4617                 6.4696
 IR Inten    --     17.2173                16.7265                13.0157

                     85                     86                     87
                      A                      A                      A
 Frequencies --   3187.9478              3195.8526              3198.5655
 Red. masses --      1.0853                 1.0890                 1.0889
 Frc consts  --      6.4988                 6.5531                 6.5634
 IR Inten    --      1.4327                 5.2091                 6.9577

                     88                     89                     90
                      A                      A                      A
 Frequencies --   3203.9142              3214.6690              3215.2263
 Red. masses --      1.0933                 1.0964                 1.0975
 Frc consts  --      6.6121                 6.6754                 6.6846
 IR Inten    --     13.6750                29.1640                20.2070

                     91                     92                     93
                      A                      A                      A
 Frequencies --   3547.6251              3577.9344              3698.8361
 Red. masses --      1.0771                 1.0456                 1.1041
 Frc consts  --      7.9870                 7.8864                 8.8998
 IR Inten    --    151.0972                31.0994                29.4144

 - Thermochemistry -
 -------------------
 Temperature   298.150 Kelvin.  Pressure   1.00000 Atm.
 Atom     1 has atomic number  6 and mass  12.00000

 Molecular mass:   270.08268 amu.
 Principal axes and moments of inertia in atomic units:
                           1         2         3
     Eigenvalues --  3625.827135584.422498127.79534
           X            0.99972  -0.02220  -0.00837
           Y            0.02212   0.99972  -0.00897
           Z            0.00857   0.00878   0.99992
 This molecule is an asymmetric top.
 Rotational symmetry number  1.
 Warning -- assumption of classical behavior for rotation
           may cause significant error
 Rotational temperatures (Kelvin)      0.02389     0.01551     0.01066
 Rotational constants (GHZ):           0.49775     0.32317     0.22205
 Zero-point vibrational energy     692230.4 (Joules/Mol)
                                  165.44705 (Kcal/Mol)
 Warning -- explicit consideration of  27 degrees of freedom as
           vibrations may cause significant error
 Vibrational temperatures:     27.97    70.31   104.83   113.98   180.22
          (Kelvin)            207.91   243.01   297.86   320.20   335.76
                              396.50   417.25   461.21   490.29   527.54
                              581.76   585.72   620.48   645.03   654.20
                              713.79   748.37   780.29   802.07   840.05
                              865.97   889.72   913.97   955.09  1013.07
                             1050.85  1076.35  1086.50  1099.28  1113.59
                             1132.56  1196.88  1242.23  1252.23  1287.66
                             1303.55  1320.49  1342.61  1370.64  1397.38
                             1487.21  1536.21  1551.41  1575.07  1599.43
                             1608.76  1650.18  1668.44  1689.76  1719.79
                             1737.73  1790.39  1842.94  1865.04  1885.47
                             1888.87  1916.28  1957.28  1968.33  2026.77
                             2081.16  2117.08  2143.95  2158.86  2188.81
                             2199.70  2208.07  2272.31  2342.18  2362.57
                             2375.05  2389.01  2405.65  2556.32  4392.68
                             4421.74  4522.38  4539.64  4570.96  4586.75
                             4598.12  4602.02  4609.72  4625.19  4625.99
                             5104.24  5147.85  5321.80

 Zero-point correction=                           0.263657 (Hartree/Particle)
 Thermal correction to Energy=                    0.279838
 Thermal correction to Enthalpy=                  0.280782
 Thermal correction to Gibbs Free Energy=         0.219411
 Sum of electronic and zero-point Energies=          -1162.792769
 Sum of electronic and thermal Energies=             -1162.776587
 Sum of electronic and thermal Enthalpies=           -1162.775643
 Sum of electronic and thermal Free Energies=        -1162.837015

                     E (Thermal)             CV                S
                      KCal/Mol        Cal/Mol-Kelvin    Cal/Mol-Kelvin
 Total                  175.601             64.460            129.167
 Electronic               0.000              0.000              0.000
 Translational            0.889              2.981             42.680
 Rotational               0.889              2.981             33.464
 Vibrational            173.824             58.498             53.023
 Vibration     1          0.593              1.986              6.691
 Vibration     2          0.595              1.978              4.863
 Vibration     3          0.599              1.967              4.075
 Vibration     4          0.600              1.963              3.910
 Vibration     5          0.610              1.928              3.018
 Vibration     6          0.616              1.909              2.743
 Vibration     7          0.625              1.881              2.448
 Vibration     8          0.641              1.830              2.070
 Vibration     9          0.648              1.807              1.938
 Vibration    10          0.654              1.790              1.853
 Vibration    11          0.677              1.719              1.561
 Vibration    12          0.686              1.692              1.474
 Vibration    13          0.706              1.634              1.307
 Vibration    14          0.720              1.594              1.209
 Vibration    15          0.740              1.541              1.094
 Vibration    16          0.770              1.461              0.947
 Vibration    17          0.772              1.455              0.937
 Vibration    18          0.792              1.402              0.855
 Vibration    19          0.807              1.365              0.801
 Vibration    20          0.813              1.351              0.782
 Vibration    21          0.852              1.259              0.668
 Vibration    22          0.875              1.205              0.610
 Vibration    23          0.897              1.157              0.560
 Vibration    24          0.913              1.123              0.529
 Vibration    25          0.941              1.066              0.478
 Vibration    26          0.960              1.028              0.446
 Vibration    27          0.978              0.993              0.419

 Optimization completed.
    -- Stationary point found.
 Normal termination of Gaussian 16 at Sat Dec 12 10:26:38 2020.

 ----------------------------------------------------------------------
 # B3LYP/6-311++G(d,p) empiricaldispersion=gd3bj scf=xqc pop=npa geom=c
 heck
 ----------------------------------------------------------------------

 ---------------------------------------
 CID_150653949_JID_9745_Energie_neutraal
 ---------------------------------------
 Structure from the checkpoint file:  "JID_9745.chk"
 Charge =  0 Multiplicity = 1

 SCF Done:  E(RB3LYP) =  -1163.29012730     A.U. after   16 cycles
 Normal termination of Gaussian 16 at Sat Dec 12 10:33:04 2020.

 ----------------------------------------------------------------------
 # B3LYP/6-311++G(d,p) empiricaldispersion=gd3bj scf=xqc pop=npa geom=c
 heck
 ----------------------------------------------------------------------

 -------------------------------------
 CID_150653949_JID_9745_Energie_kation
 -------------------------------------
 Structure from the checkpoint file:  "JID_9745.chk"
 Charge =  1 Multiplicity = 2

 SCF Done:  E(UB3LYP) =  -1163.03774353     A.U. after   25 cycles
 Normal termination of Gaussian 16 at Sat Dec 12 10:47:24 2020.
 Gaussian 16:  ES64L-G16RevA.03 25-Dec-2016

 ----------------------------------------------------------------------
 # B3LYP/6-311++G(d,p) empiricaldispersion=gd3bj scf=xqc pop=npa geom=c
 heck
 ----------------------------------------------------------------------

 ------------------------------------
 CID_150653949_JID_9745_Energie_anion
 ------------------------------------
 Structure from the checkpoint file:  "JID_9745.chk"
 Charge = -1 Multiplicity = 2

                         Standard orientation:
 ---------------------------------------------------------------------
 Center     Atomic      Atomic             Coordinates (Angstroms)
 Number     Number       Type             X           Y           Z
 ---------------------------------------------------------------------
      1          6           0       -2.887792   -1.050458    1.807974
      2          6           0       -2.735277   -0.752684    0.308892
      3          6           0       -1.972843    0.537412    0.029037
      4          6           0       -0.587640    0.660409    0.281391
      5          6           0        0.046312    1.892923    0.029742
      6          6           0       -0.666957    2.970300   -0.492343
      7          6           0       -2.035955    2.855390   -0.727078
      8          6           0       -2.673015    1.646802   -0.459096
      9         16           0        1.758747    2.110570    0.480475
     10          6           0        2.351255    0.467183    0.124684
     11          6           0        3.660558    0.255109   -0.305415
     12          6           0        4.141003   -1.044036   -0.477549
     13          6           0        3.292943   -2.128766   -0.250951
     14          6           0        1.971030   -1.921682    0.139807
     15          6           0        1.495613   -0.621547    0.346770
     16          7           0        0.171150   -0.412556    0.769896
     17          6           0       -2.102087   -1.936535   -0.440043
     18          8           0       -1.459153   -2.816993    0.127525
     19          7           0       -2.303262   -1.933374   -1.786432
     20          1           0       -1.921376   -1.138114    2.309530
     21          1           0       -3.431775   -1.986636    1.962908
     22          1           0       -3.439552   -0.234323    2.283362
     23          1           0       -3.739531   -0.620690   -0.111872
     24          1           0       -0.145694    3.900389   -0.697569
     25          1           0       -2.598094    3.699743   -1.113365
     26          1           0       -3.742347    1.550951   -0.631728
     27          1           0        4.303913    1.110488   -0.489686
     28          1           0        5.167909   -1.203706   -0.791573
     29          1           0        3.653918   -3.143285   -0.392821
     30          1           0        1.293284   -2.758998    0.282150
     31          1           0       -0.333954   -1.283924    0.886868
     32          1           0       -2.627466   -1.094063   -2.246279
     33          1           0       -1.764062   -2.588414   -2.336900
 ---------------------------------------------------------------------

 SCF Done:  E(UB3LYP) =  -1163.28237500     A.U. after   33 cycles
 SCF Done:  E(UB3LYP) =  -1163.28237500     a.u. after    1 cycles

 The electronic state is 2-A.
 Alpha  occ. eigenvalues --  -88.76285 -19.00188 -14.24169 -14.23292 -10.18364
 Alpha  occ. eigenvalues --  -10.12820 -10.12544 -10.11203 -10.10405 -10.09758
 Alpha  occ. eigenvalues --  -10.09068 -10.08815 -10.08590 -10.08296 -10.08271
 Alpha  occ. eigenvalues --  -10.08016 -10.07267 -10.07156 -10.07154  -7.84890
 Alpha  occ. eigenvalues --   -5.81266  -5.80915  -5.80288  -0.95077  -0.86760
 Alpha  occ. eigenvalues --   -0.81122  -0.77253  -0.75832  -0.72020  -0.69424
 Alpha  occ. eigenvalues --   -0.66415  -0.65281  -0.62864  -0.58903  -0.56746
 Alpha  occ. eigenvalues --   -0.53603  -0.53382  -0.50765  -0.47342  -0.47184
 Alpha  occ. eigenvalues --   -0.44615  -0.44550  -0.42209  -0.39441  -0.38404
 Alpha  occ. eigenvalues --   -0.38363  -0.36952  -0.35790  -0.34821  -0.34360
 Alpha  occ. eigenvalues --   -0.33560  -0.33122  -0.32853  -0.30795  -0.30336
 Alpha  occ. eigenvalues --   -0.29578  -0.28542  -0.27778  -0.27478  -0.26583
 Alpha  occ. eigenvalues --   -0.25820  -0.25075  -0.23621  -0.23200  -0.20400
 Alpha  occ. eigenvalues --   -0.18694  -0.17264  -0.16346  -0.16321  -0.13291
 Alpha  occ. eigenvalues --   -0.09611   0.04263
 Alpha virt. eigenvalues --    0.06161   0.06618   0.06946   0.07252   0.07745
 Alpha virt. eigenvalues --    0.07787   0.08168   0.08620   0.09777   0.09884
 Alpha virt. eigenvalues --    0.10122   0.10540   0.10856   0.11125   0.11935

  Beta  occ. eigenvalues --  -88.76285 -19.00178 -14.24172 -14.23202 -10.18356
  Beta  occ. eigenvalues --  -10.12804 -10.12538 -10.11171 -10.10319 -10.09737
  Beta  occ. eigenvalues --  -10.09072 -10.08789 -10.08569 -10.08278 -10.08271
  Beta  occ. eigenvalues --  -10.07994 -10.07255 -10.07142 -10.07078  -7.84890
  Beta  occ. eigenvalues --   -5.81262  -5.80919  -5.80289  -0.95053  -0.86737
  Beta  occ. eigenvalues --   -0.81011  -0.77196  -0.75758  -0.71940  -0.69368
  Beta  occ. eigenvalues --   -0.66359  -0.65206  -0.62802  -0.58844  -0.56684
  Beta  occ. eigenvalues --   -0.53546  -0.53331  -0.50678  -0.47231  -0.47105
  Beta  occ. eigenvalues --   -0.44554  -0.44505  -0.42136  -0.39393  -0.38364
  Beta  occ. eigenvalues --   -0.38302  -0.36915  -0.35743  -0.34790  -0.34325
  Beta  occ. eigenvalues --   -0.33491  -0.33069  -0.32801  -0.30721  -0.30291
  Beta  occ. eigenvalues --   -0.29524  -0.28481  -0.27752  -0.27350  -0.26519
  Beta  occ. eigenvalues --   -0.25774  -0.25026  -0.23516  -0.23132  -0.20301
  Beta  occ. eigenvalues --   -0.18593  -0.17199  -0.16243  -0.16055  -0.13139
  Beta  occ. eigenvalues --   -0.09511
  Beta virt. eigenvalues --    0.06259   0.06821   0.07090   0.07188   0.07596
  Beta virt. eigenvalues --    0.07978   0.08175   0.08634   0.09000   0.10006
  Beta virt. eigenvalues --    0.10042   0.10269   0.10656   0.11083   0.11780

 Mulliken charges and spin densities:
               1          2
     1  C    0.020751  -0.758285
     2  C    0.882473  -0.684831
     3  C    0.133003   0.624272
     4  C   -0.204869   0.074512
     5  C   -0.238613   0.292356
     6  C    0.453098  -0.153854
     7  C    0.074686  -0.674334
     8  C   -0.361666  -0.041600
     9  S   -0.662889  -0.028770
    10  C   -0.174955   0.239172
    11  C    0.083973  -0.075413
    12  C    0.050698  -0.365748
    13  C   -0.434535  -0.041318
    14  C   -0.029275  -0.028335
    15  C   -0.081092   0.078605
    16  N    0.279422  -0.050008
    17  C    0.680396  -1.063807
    18  O   -0.317413   0.003757
    19  N   -0.317365   0.109531
    20  H    0.057776   0.116678
    21  H    0.097002   0.062251
    22  H    0.103589   0.034133
    23  H   -0.585915   0.837080
    24  H    0.144528   0.013372
    25  H   -0.133991   0.285941
    26  H   -0.598151   0.755308
    27  H    0.038070   0.123992
    28  H    0.001480   0.134449
    29  H   -0.009407   0.162922
    30  H    0.129656   0.062539
    31  H    0.495945  -0.194854
    32  H   -0.308060   0.587268
    33  H   -0.268352   0.563020
 Sum of Mulliken charges =  -1.00000   1.00000

 Dipole moment (field-independent basis, Debye):
    X=              5.9677    Y=              1.9963    Z=              4.2133  Tot=              7.5730
 Quadrupole moment (field-independent basis, Debye-Ang):
   XX=           -185.5479   YY=           -158.2054   ZZ=           -156.4645
   XY=             -2.6703   XZ=            -15.9640   YZ=             -5.0080

 Summary of Natural Population Analysis:

                                       Natural Population
                Natural  -----------------------------------------------
    Atom  No    Charge         Core      Valence    Rydberg      Total
 -----------------------------------------------------------------------
      C    1   -0.28060      0.99965     2.27416    0.00679     3.28060
      C    2   -0.16010      0.99953     2.14742    0.01315     3.16010
      C    3   -0.02691      0.99946     2.01551    0.01194     3.02691
      C    4    0.06463      0.99941     1.91899    0.01697     2.93537
      C    5   -0.03675      0.99937     2.02962    0.00775     3.03675
      C    6   -0.12259      0.99955     2.10390    0.01913     3.12259
      C    7   -0.10816      0.99956     2.09819    0.01042     3.10816
      C    8   -0.08140      0.99951     2.07105    0.01084     3.08140
      S    9    0.13684      4.99952     2.84155    0.02210     7.86316
      C   10   -0.09541      0.99937     2.08396    0.01209     3.09541
      C   11   -0.10561      0.99951     2.09534    0.01077     3.10561
      C   12   -0.11407      0.99957     2.10421    0.01029     3.11407
      C   13   -0.09702      0.99958     2.08817    0.00927     3.09702
      C   14   -0.11617      0.99953     2.10712    0.00952     3.11617
      C   15    0.08521      0.99941     1.90426    0.01112     2.91479
      N   16   -0.30931      0.99964     2.80082    0.00886     3.80931
      C   17    0.34612      0.99967     1.62964    0.02457     2.65388
      O   18   -0.33719      0.99987     3.33118    0.00614     4.33719
      N   19   -0.38868      0.99969     2.88046    0.00854     3.88868
      H   20    0.10121      0.00000     0.39781    0.00098     0.39879
      H   21    0.10383      0.00000     0.39541    0.00076     0.39617
      H   22    0.10078      0.00000     0.39847    0.00075     0.39922
      H   23    0.11639      0.00000     0.38074    0.00287     0.38361
      H   24    0.10055      0.00000     0.39843    0.00103     0.39945
      H   25    0.10038      0.00000     0.39886    0.00076     0.39962
      H   26    0.10333      0.00000     0.39485    0.00182     0.39667
      H   27    0.10224      0.00000     0.39662    0.00114     0.39776
      H   28    0.09893      0.00000     0.40026    0.00081     0.40107
      H   29    0.09950      0.00000     0.39974    0.00077     0.40050
      H   30    0.11156      0.00000     0.38710    0.00134     0.38844
      H   31    0.20657      0.00000     0.28988    0.00355     0.29343
      H   32    0.20453      0.00000     0.28151    0.01396     0.29547
      H   33    0.19759      0.00000     0.29846    0.00395     0.30241
 =======================================================================
   * Total *    0.00020     22.99138    47.74369    0.26473    70.99980

 Normal termination of Gaussian 16 at Sat Dec 12 11:05:22 2020.
