 Gaussian 16, Revision A.03,

 -----------------------------------------------------------
 # opt freq B3LYP/6-31G(d) empiricaldispersion=gd3bj scf=xqc
 -----------------------------------------------------------

 ------------------------------
 CID_63987860_JID_8752_neutraal
 ------------------------------
 Symbolic Z-matrix:
 Charge =  0 Multiplicity = 1

 SCF Done:  E(RB3LYP) =  -754.760599478     A.U. after   14 cycles
 SCF Done:  E(RB3LYP) =  -754.765366344     A.U. after   12 cycles
 SCF Done:  E(RB3LYP) =  -754.766369827     A.U. after   11 cycles
 SCF Done:  E(RB3LYP) =  -754.767024495     A.U. after   11 cycles
 SCF Done:  E(RB3LYP) =  -754.767167940     A.U. after   11 cycles
 SCF Done:  E(RB3LYP) =  -754.767517572     A.U. after   11 cycles
 SCF Done:  E(RB3LYP) =  -754.767594288     A.U. after   10 cycles
 SCF Done:  E(RB3LYP) =  -754.767621423     A.U. after   10 cycles
 SCF Done:  E(RB3LYP) =  -754.767633893     A.U. after    9 cycles
 SCF Done:  E(RB3LYP) =  -754.767649164     A.U. after   10 cycles
 SCF Done:  E(RB3LYP) =  -754.768033985     A.U. after   10 cycles
 SCF Done:  E(RB3LYP) =  -754.768034433     A.U. after    9 cycles
 SCF Done:  E(RB3LYP) =  -754.768034795     A.U. after    9 cycles
 SCF Done:  E(RB3LYP) =  -754.768034804     A.U. after    8 cycles
 SCF Done:  E(RB3LYP) =  -754.768034813     A.U. after    6 cycles
 Optimization completed.
    -- Stationary point found.
 Normal termination of Gaussian 16 at Fri Dec 11 21:20:58 2020.

 --------------------------------------------------------------------
 #N Geom=AllCheck Guess=TCheck SCRF=Check GenChk RB3LYP/6-31G(d) Freq
 --------------------------------------------------------------------

 Structure from the checkpoint file:  "JID_8752.chk"
 ------------------------------
 CID_63987860_JID_8752_neutraal
 ------------------------------
 Charge =  0 Multiplicity = 1

 SCF Done:  E(RB3LYP) =  -754.768034813     A.U. after    1 cycles

  Exact polarizability: 209.237 -10.740 189.237  12.565   3.209 129.345
 Approx polarizability: 276.103  -7.732 278.924  26.873   4.768 198.156

                      1                      2                      3
                      A                      A                      A
 Frequencies --     24.4808                27.9022                31.3329
 Red. masses --      4.0771                 2.8723                 1.1299
 Frc consts  --      0.0014                 0.0013                 0.0007
 IR Inten    --      0.0515                 0.0216                 0.3280

                      4                      5                      6
                      A                      A                      A
 Frequencies --     54.5581                57.1575                86.1820
 Red. masses --      3.2493                 3.8654                 2.8402
 Frc consts  --      0.0057                 0.0074                 0.0124
 IR Inten    --      0.5650                 0.7342                 0.8017

                      7                      8                      9
                      A                      A                      A
 Frequencies --    104.1683               111.7535               143.1371
 Red. masses --      2.5007                 2.5679                 3.0947
 Frc consts  --      0.0160                 0.0189                 0.0374
 IR Inten    --      6.1995                 0.1403                 0.3366

                     10                     11                     12
                      A                      A                      A
 Frequencies --    152.0629               166.5938               193.4589
 Red. masses --      2.6137                 2.6021                 1.2849
 Frc consts  --      0.0356                 0.0425                 0.0283
 IR Inten    --      0.7119                 2.2332                 1.0497

                     13                     14                     15
                      A                      A                      A
 Frequencies --    214.5486               219.8981               234.7592
 Red. masses --      3.1076                 1.7994                 1.1742
 Frc consts  --      0.0843                 0.0513                 0.0381
 IR Inten    --      1.6704                 0.0891                 0.3532

                     16                     17                     18
                      A                      A                      A
 Frequencies --    251.6538               257.3705               299.1234
 Red. masses --      1.3664                 2.9719                 3.0045
 Frc consts  --      0.0510                 0.1160                 0.1584
 IR Inten    --      0.1557                 1.2324                 3.7084

                     19                     20                     21
                      A                      A                      A
 Frequencies --    313.9071               327.3083               347.2802
 Red. masses --      3.6197                 2.8841                 2.7440
 Frc consts  --      0.2101                 0.1820                 0.1950
 IR Inten    --      1.2292                 1.6820                 0.7523

                     22                     23                     24
                      A                      A                      A
 Frequencies --    381.4079               418.0619               437.2126
 Red. masses --      2.6958                 2.7683                 2.7420
 Frc consts  --      0.2311                 0.2851                 0.3088
 IR Inten    --      0.9851                 0.4410                 1.0986

                     25                     26                     27
                      A                      A                      A
 Frequencies --    462.6784               496.3271               502.3690
 Red. masses --      3.0538                 2.9253                 3.0204
 Frc consts  --      0.3852                 0.4246                 0.4491
 IR Inten    --      4.6954                 1.6740                18.2600

                     28                     29                     30
                      A                      A                      A
 Frequencies --    536.0850               566.2886               587.3938
 Red. masses --      3.4686                 3.7271                 3.7300
 Frc consts  --      0.5873                 0.7042                 0.7583
 IR Inten    --      5.0405                 2.5001                 6.0174

                     31                     32                     33
                      A                      A                      A
 Frequencies --    628.9585               736.2158               758.3758
 Red. masses --      3.8711                 5.3778                 2.3539
 Frc consts  --      0.9023                 1.7174                 0.7976
 IR Inten    --      2.8858                 2.3635                32.9656

                     34                     35                     36
                      A                      A                      A
 Frequencies --    762.8798               784.5673               789.6426
 Red. masses --      3.1435                 1.4013                 1.6374
 Frc consts  --      1.0779                 0.5082                 0.6015
 IR Inten    --      7.0486                 4.8003                20.4866

                     37                     38                     39
                      A                      A                      A
 Frequencies --    813.7992               835.5466               841.8830
 Red. masses --      1.9120                 1.3274                 1.3774
 Frc consts  --      0.7461                 0.5460                 0.5752
 IR Inten    --      3.3760                28.6750                 7.7488

                     40                     41                     42
                      A                      A                      A
 Frequencies --    874.6512               900.6224               909.1805
 Red. masses --      1.6714                 1.4396                 2.1931
 Frc consts  --      0.7534                 0.6880                 1.0681
 IR Inten    --      4.2504                 3.2552                11.0389

                     43                     44                     45
                      A                      A                      A
 Frequencies --    916.2159               944.9513               947.2153
 Red. masses --      1.8273                 2.6326                 2.3994
 Frc consts  --      0.9038                 1.3850                 1.2684
 IR Inten    --      0.9828                 2.3759                 4.7163

                     46                     47                     48
                      A                      A                      A
 Frequencies --    954.0795               981.4132               998.8172
 Red. masses --      1.3729                 2.1619                 1.8155
 Frc consts  --      0.7363                 1.2268                 1.0672
 IR Inten    --      2.6805                 3.3947                 8.0796

                     49                     50                     51
                      A                      A                      A
 Frequencies --   1028.7583              1050.8180              1059.7842
 Red. masses --      1.6118                 1.8831                 1.3460
 Frc consts  --      1.0051                 1.2251                 0.8907
 IR Inten    --      9.5206                 3.7160                14.6529

                     52                     53                     54
                      A                      A                      A
 Frequencies --   1063.8488              1074.5061              1081.3198
 Red. masses --      3.1074                 1.5417                 1.5179
 Frc consts  --      2.0721                 1.0487                 1.0457
 IR Inten    --     43.4393                18.2829                 7.1540

                     55                     56                     57
                      A                      A                      A
 Frequencies --   1082.7506              1119.3197              1123.2901
 Red. masses --      1.7439                 1.9611                 2.3350
 Frc consts  --      1.2045                 1.4477                 1.7359
 IR Inten    --     11.8941                12.5825                11.6833

                     58                     59                     60
                      A                      A                      A
 Frequencies --   1146.8979              1159.4160              1169.0131
 Red. masses --      1.5912                 1.4604                 2.3597
 Frc consts  --      1.2332                 1.1566                 1.9000
 IR Inten    --     12.0901                 5.1122                45.6413

                     61                     62                     63
                      A                      A                      A
 Frequencies --   1170.5463              1185.5689              1196.1027
 Red. masses --      1.7394                 1.3494                 1.6020
 Frc consts  --      1.4042                 1.1175                 1.3504
 IR Inten    --     46.1462                 1.3177                10.3550

                     64                     65                     66
                      A                      A                      A
 Frequencies --   1208.4323              1212.8957              1228.6882
 Red. masses --      1.8511                 1.4695                 1.4774
 Frc consts  --      1.5927                 1.2737                 1.3141
 IR Inten    --     13.2198                 4.0222                 7.4864

                     67                     68                     69
                      A                      A                      A
 Frequencies --   1238.8586              1247.1499              1279.7889
 Red. masses --      1.9938                 1.9922                 1.7040
 Frc consts  --      1.8029                 1.8256                 1.6443
 IR Inten    --      0.4869                 4.0479                13.1806

                     70                     71                     72
                      A                      A                      A
 Frequencies --   1289.3733              1307.0842              1320.1908
 Red. masses --      1.6302                 2.1881                 1.2619
 Frc consts  --      1.5968                 2.2025                 1.2958
 IR Inten    --     41.7991                42.2263                10.1902

                     73                     74                     75
                      A                      A                      A
 Frequencies --   1338.9432              1376.1252              1381.3612
 Red. masses --      5.1787                 1.3051                 1.3000
 Frc consts  --      5.4701                 1.4562                 1.4616
 IR Inten    --      5.2934                20.6124                 1.2758

                     76                     77                     78
                      A                      A                      A
 Frequencies --   1397.3893              1414.8950              1431.9037
 Red. masses --      1.3135                 1.4809                 1.2510
 Frc consts  --      1.5112                 1.7467                 1.5113
 IR Inten    --      5.4628                 3.9764                15.1445

                     79                     80                     81
                      A                      A                      A
 Frequencies --   1434.7496              1441.8794              1443.4686
 Red. masses --      1.3007                 1.2452                 1.5889
 Frc consts  --      1.5776                 1.5253                 1.9506
 IR Inten    --     13.4843                 0.2591                 2.8895

                     82                     83                     84
                      A                      A                      A
 Frequencies --   1457.5147              1494.5953              1495.9780
 Red. masses --      2.0358                 1.1160                 1.2111
 Frc consts  --      2.5481                 1.4688                 1.5968
 IR Inten    --     24.0565                10.5151                 8.5694

                     85                     86                     87
                      A                      A                      A
 Frequencies --   1499.5602              1509.9543              1512.7097
 Red. masses --      1.2110                 1.0906                 1.0500
 Frc consts  --      1.6045                 1.4651                 1.4156
 IR Inten    --     25.9762                 0.5723                 0.9780

                     88                     89                     90
                      A                      A                      A
 Frequencies --   1517.7390              1521.1769              1524.2031
 Red. masses --      1.0519                 1.0549                 1.0565
 Frc consts  --      1.4276                 1.4382                 1.4462
 IR Inten    --      6.4076                 9.0409                11.7983

                     91                     92                     93
                      A                      A                      A
 Frequencies --   1524.8272              1527.9867              1537.6460
 Red. masses --      1.1327                 1.0825                 1.3397
 Frc consts  --      1.5516                 1.4891                 1.8663
 IR Inten    --      9.4437                 4.3125                 1.6317

                     94                     95                     96
                      A                      A                      A
 Frequencies --   1540.3982              1546.6201              1553.0185
 Red. masses --      1.1423                 1.1172                 2.4174
 Frc consts  --      1.5969                 1.5745                 3.4352
 IR Inten    --      4.6474                 2.5770                39.7617

                     97                     98                     99
                      A                      A                      A
 Frequencies --   1627.1896              1672.3414              2977.2046
 Red. masses --      5.5708                 6.2914                 1.0821
 Frc consts  --      8.6905                10.3668                 5.6511
 IR Inten    --     14.0505                30.2851                39.6184

                    100                    101                    102
                      A                      A                      A
 Frequencies --   3009.0855              3027.3562              3041.0305
 Red. masses --      1.0642                 1.0371                 1.0533
 Frc consts  --      5.6771                 5.6002                 5.7391
 IR Inten    --     27.6647                66.6161                10.8917

                    103                    104                    105
                      A                      A                      A
 Frequencies --   3042.9912              3044.9159              3056.2212
 Red. masses --      1.0397                 1.0662                 1.0635
 Frc consts  --      5.6721                 5.8244                 5.8526
 IR Inten    --     39.5318                38.5556                 6.2230

                    106                    107                    108
                      A                      A                      A
 Frequencies --   3059.9750              3099.3546              3106.1750
 Red. masses --      1.0723                 1.0968                 1.1019
 Frc consts  --      5.9154                 6.2078                 6.2639
 IR Inten    --     55.6218                20.4760                48.0659

                    109                    110                    111
                      A                      A                      A
 Frequencies --   3109.4278              3114.5209              3125.7522
 Red. masses --      1.0982                 1.1013                 1.1026
 Frc consts  --      6.2559                 6.2945                 6.3469
 IR Inten    --     20.6995                47.0260                17.0275

                    112                    113                    114
                      A                      A                      A
 Frequencies --   3131.1452              3139.6692              3144.2720
 Red. masses --      1.1012                 1.0509                 1.0586
 Frc consts  --      6.3609                 6.1034                 6.1660
 IR Inten    --     26.0487                22.6975                21.7079

                    115                    116                    117
                      A                      A                      A
 Frequencies --   3148.4474              3151.8960              3172.1925
 Red. masses --      1.1049                 1.0885                 1.0867
 Frc consts  --      6.4530                 6.3712                 6.4430
 IR Inten    --     25.5556                15.1871                14.0660

                    118                    119                    120
                      A                      A                      A
 Frequencies --   3179.8973              3188.7605              3191.9664
 Red. masses --      1.0981                 1.0907                 1.0938
 Frc consts  --      6.5422                 6.5341                 6.5658
 IR Inten    --      6.1353                22.0582                13.2831

                    121                    122                    123
                      A                      A                      A
 Frequencies --   3213.2189              3228.0237              3491.9400
 Red. masses --      1.1192                 1.1159                 1.0744
 Frc consts  --      6.8086                 6.8507                 7.7186
 IR Inten    --      0.8007                26.4458                 0.4147

 - Thermochemistry -
 -------------------
 Temperature   298.150 Kelvin.  Pressure   1.00000 Atm.
 Atom     1 has atomic number  6 and mass  12.00000

 Molecular mass:   247.19361 amu.
 Principal axes and moments of inertia in atomic units:
                           1         2         3
     Eigenvalues --  3137.765286836.834058765.56933
           X            0.99993  -0.01052   0.00532
           Y            0.01049   0.99993   0.00565
           Z           -0.00538  -0.00559   0.99997
 This molecule is an asymmetric top.
 Rotational symmetry number  1.
 Warning -- assumption of classical behavior for rotation
           may cause significant error
 Rotational temperatures (Kelvin)      0.02760     0.01267     0.00988
 Rotational constants (GHZ):           0.57517     0.26397     0.20589
 Zero-point vibrational energy    1006953.6 (Joules/Mol)
                                  240.66768 (Kcal/Mol)
 Warning -- explicit consideration of  30 degrees of freedom as
           vibrations may cause significant error
 Vibrational temperatures:     35.22    40.15    45.08    78.50    82.24
          (Kelvin)            124.00   149.87   160.79   205.94   218.78
                              239.69   278.34   308.69   316.38   337.77
                              362.07   370.30   430.37   451.64   470.92
                              499.66   548.76   601.50   629.05   665.69
                              714.10   722.80   771.31   814.76   845.13
                              904.93  1059.25  1091.13  1097.61  1128.82
                             1136.12  1170.88  1202.17  1211.28  1258.43
                             1295.79  1308.11  1318.23  1359.57  1362.83
                             1372.71  1412.03  1437.08  1480.15  1511.89
                             1524.79  1530.64  1545.97  1555.78  1557.84
                             1610.45  1616.16  1650.13  1668.14  1681.95
                             1684.16  1705.77  1720.92  1738.66  1745.09
                             1767.81  1782.44  1794.37  1841.33  1855.12
                             1880.60  1899.46  1926.44  1979.94  1987.47
                             2010.53  2035.72  2060.19  2064.28  2074.54
                             2076.83  2097.04  2150.39  2152.38  2157.53
                             2172.49  2176.45  2183.69  2188.63  2192.99
                             2193.89  2198.43  2212.33  2216.29  2225.24
                             2234.45  2341.16  2406.13  4283.53  4329.40
                             4355.69  4375.36  4378.19  4380.95  4397.22
                             4402.62  4459.28  4469.09  4473.77  4481.10
                             4497.26  4505.02  4517.28  4523.91  4529.91
                             4534.88  4564.08  4575.16  4587.92  4592.53
                             4623.11  4644.41  5024.12

 Zero-point correction=                           0.383528 (Hartree/Particle)
 Thermal correction to Energy=                    0.403438
 Thermal correction to Enthalpy=                  0.404382
 Thermal correction to Gibbs Free Energy=         0.333497
 Sum of electronic and zero-point Energies=           -754.384506
 Sum of electronic and thermal Energies=              -754.364597
 Sum of electronic and thermal Enthalpies=            -754.363653
 Sum of electronic and thermal Free Energies=         -754.434538

                     E (Thermal)             CV                S
                      KCal/Mol        Cal/Mol-Kelvin    Cal/Mol-Kelvin
 Total                  253.161             74.298            149.190
 Electronic               0.000              0.000              0.000
 Translational            0.889              2.981             42.416
 Rotational               0.889              2.981             33.597
 Vibrational            251.383             68.336             73.177
 Vibration     1          0.593              1.985              6.233
 Vibration     2          0.593              1.984              5.973
 Vibration     3          0.594              1.983              5.743
 Vibration     4          0.596              1.976              4.645
 Vibration     5          0.596              1.975              4.553
 Vibration     6          0.601              1.959              3.745
 Vibration     7          0.605              1.946              3.375
 Vibration     8          0.607              1.940              3.238
 Vibration     9          0.616              1.910              2.762
 Vibration    10          0.619              1.900              2.646
 Vibration    11          0.624              1.884              2.474
 Vibration    12          0.635              1.849              2.194
 Vibration    13          0.644              1.819              2.005
 Vibration    14          0.647              1.811              1.960
 Vibration    15          0.655              1.788              1.842
 Vibration    16          0.664              1.760              1.719
 Vibration    17          0.667              1.750              1.680
 Vibration    18          0.692              1.675              1.422
 Vibration    19          0.702              1.647              1.342
 Vibration    20          0.711              1.621              1.273
 Vibration    21          0.725              1.581              1.179
 Vibration    22          0.751              1.510              1.034
 Vibration    23          0.781              1.431              0.899
 Vibration    24          0.798              1.389              0.835
 Vibration    25          0.820              1.333              0.758
 Vibration    26          0.852              1.258              0.667
 Vibration    27          0.858              1.245              0.652
 Vibration    28          0.891              1.170              0.574
 Vibration    29          0.922              1.104              0.511
 Vibration    30          0.945              1.059              0.472

 Optimization completed.
    -- Stationary point found.
 Normal termination of Gaussian 16 at Fri Dec 11 21:42:14 2020.

 ----------------------------------------------------------------------
 # B3LYP/6-311++G(d,p) empiricaldispersion=gd3bj scf=xqc pop=npa geom=c
 heck
 ----------------------------------------------------------------------

 --------------------------------------
 CID_63987860_JID_8752_Energie_neutraal
 --------------------------------------
 Structure from the checkpoint file:  "JID_8752.chk"
 Charge =  0 Multiplicity = 1

 SCF Done:  E(RB3LYP) =  -754.973493071     A.U. after   14 cycles
 Normal termination of Gaussian 16 at Fri Dec 11 21:50:34 2020.

 ----------------------------------------------------------------------
 # B3LYP/6-311++G(d,p) empiricaldispersion=gd3bj scf=xqc pop=npa geom=c
 heck
 ----------------------------------------------------------------------

 ------------------------------------
 CID_63987860_JID_8752_Energie_kation
 ------------------------------------
 Structure from the checkpoint file:  "JID_8752.chk"
 Charge =  1 Multiplicity = 2

 SCF Done:  E(UB3LYP) =  -754.686569863     A.U. after   30 cycles
 Normal termination of Gaussian 16 at Fri Dec 11 22:17:56 2020.
 Gaussian 16:  ES64L-G16RevA.03 25-Dec-2016

 ----------------------------------------------------------------------
 # B3LYP/6-311++G(d,p) empiricaldispersion=gd3bj scf=xqc pop=npa geom=c
 heck
 ----------------------------------------------------------------------

 -----------------------------------
 CID_63987860_JID_8752_Energie_anion
 -----------------------------------
 Structure from the checkpoint file:  "JID_8752.chk"
 Charge = -1 Multiplicity = 2

                         Standard orientation:
 ---------------------------------------------------------------------
 Center     Atomic      Atomic             Coordinates (Angstroms)
 Number     Number       Type             X           Y           Z
 ---------------------------------------------------------------------
      1          6           0       -4.797307    1.799679   -0.658449
      2          6           0       -3.464859    1.219238   -0.251823
      3          6           0       -3.263307   -0.164028   -0.233784
      4          6           0       -2.049324   -0.721458    0.170946
      5          6           0       -0.980485    0.099254    0.576837
      6          6           0       -1.195434    1.482722    0.555980
      7          6           0       -2.406346    2.039696    0.149267
      8          6           0        0.383439   -0.429873    0.978569
      9          6           0        0.337004   -1.460488    2.112869
     10          7           0        1.049068   -1.000062   -0.213479
     11          6           0        2.522976   -1.043586   -0.149787
     12          6           0        3.022490   -2.400529   -0.653488
     13          6           0        3.179225    0.114236   -0.925065
     14          6           0        2.745247    1.493238   -0.472229
     15          6           0        3.351856    2.104882    0.767032
     16          6           0        3.682725    2.666932   -0.595655
     17          8           0       -1.953852   -2.097006    0.215475
     18          6           0       -1.619200   -2.724241   -1.023857
     19          1           0       -5.244556    1.236525   -1.484713
     20          1           0       -5.511535    1.774036    0.174929
     21          1           0       -4.698136    2.843602   -0.972708
     22          1           0       -4.063068   -0.841194   -0.522588
     23          1           0       -0.385105    2.137490    0.868281
     24          1           0       -2.530514    3.119629    0.147081
     25          1           0        0.951593    0.438285    1.350872
     26          1           0       -0.240447   -2.334554    1.811466
     27          1           0        1.350797   -1.778776    2.381087
     28          1           0       -0.122774   -1.018431    3.003727
     29          1           0        0.767098   -0.456793   -1.026612
     30          1           0        2.808475   -0.940612    0.904803
     31          1           0        2.744757   -2.544246   -1.704827
     32          1           0        4.113627   -2.482393   -0.574900
     33          1           0        2.565168   -3.208343   -0.074572
     34          1           0        4.270634    0.030022   -0.830943
     35          1           0        2.957011   -0.008503   -1.996734
     36          1           0        1.692697    1.715247   -0.638424
     37          1           0        2.715064    2.687703    1.426913
     38          1           0        4.122895    1.538383    1.283771
     39          1           0        4.677474    2.480846   -0.993133
     40          1           0        3.270686    3.634622   -0.868032
     41          1           0       -0.583903   -2.493737   -1.295025
     42          1           0       -1.729204   -3.799036   -0.860805
     43          1           0       -2.303607   -2.407333   -1.822549
 ---------------------------------------------------------------------

 SCF Done:  E(UB3LYP) =  -754.958694052     A.U. after   33 cycles
 SCF Done:  E(UB3LYP) =  -754.958694051     a.u. after    1 cycles

 The electronic state is 2-A.
 Alpha  occ. eigenvalues --  -19.04449 -14.20288 -10.13706 -10.12125 -10.11302
 Alpha  occ. eigenvalues --  -10.10801 -10.09429 -10.08804 -10.08789 -10.08422
 Alpha  occ. eigenvalues --  -10.08139 -10.08110 -10.07965 -10.07928 -10.07785
 Alpha  occ. eigenvalues --  -10.07765 -10.06619 -10.06216  -0.96148  -0.82153
 Alpha  occ. eigenvalues --   -0.77220  -0.76617  -0.70591  -0.67184  -0.65867
 Alpha  occ. eigenvalues --   -0.63482  -0.60859  -0.60115  -0.59350  -0.52501
 Alpha  occ. eigenvalues --   -0.51769  -0.51341  -0.49892  -0.47840  -0.47585
 Alpha  occ. eigenvalues --   -0.42538  -0.41344  -0.40125  -0.39454  -0.37857
 Alpha  occ. eigenvalues --   -0.37545  -0.36716  -0.36486  -0.35108  -0.34075
 Alpha  occ. eigenvalues --   -0.33544  -0.33098  -0.32526  -0.30992  -0.30278
 Alpha  occ. eigenvalues --   -0.29770  -0.29603  -0.28873  -0.28537  -0.27745
 Alpha  occ. eigenvalues --   -0.27311  -0.26719  -0.26039  -0.25306  -0.24745
 Alpha  occ. eigenvalues --   -0.24596  -0.23595  -0.20432  -0.19670  -0.18290
 Alpha  occ. eigenvalues --   -0.15935  -0.14809  -0.13423   0.04127
 Alpha virt. eigenvalues --    0.05634   0.06197   0.06910   0.07080   0.07285
 Alpha virt. eigenvalues --    0.07653   0.07962   0.08733   0.08879   0.09206
 Alpha virt. eigenvalues --    0.09495   0.09753   0.10352   0.10753   0.11142

  Beta  occ. eigenvalues --  -19.04448 -14.20279 -10.13703 -10.12107 -10.11300
  Beta  occ. eigenvalues --  -10.10796 -10.09427 -10.08800 -10.08786 -10.08417
  Beta  occ. eigenvalues --  -10.08120 -10.08092 -10.07948 -10.07918 -10.07765
  Beta  occ. eigenvalues --  -10.07732 -10.06600 -10.06209  -0.96142  -0.82141
  Beta  occ. eigenvalues --   -0.77204  -0.76602  -0.70573  -0.67160  -0.65847
  Beta  occ. eigenvalues --   -0.63461  -0.60828  -0.60079  -0.59317  -0.52469
  Beta  occ. eigenvalues --   -0.51742  -0.51291  -0.49856  -0.47813  -0.47547
  Beta  occ. eigenvalues --   -0.42513  -0.41320  -0.40103  -0.39420  -0.37836
  Beta  occ. eigenvalues --   -0.37510  -0.36699  -0.36462  -0.35086  -0.34051
  Beta  occ. eigenvalues --   -0.33523  -0.33062  -0.32500  -0.30969  -0.30251
  Beta  occ. eigenvalues --   -0.29743  -0.29575  -0.28842  -0.28520  -0.27720
  Beta  occ. eigenvalues --   -0.27289  -0.26702  -0.26016  -0.25288  -0.24722
  Beta  occ. eigenvalues --   -0.24570  -0.23577  -0.20408  -0.19649  -0.18282
  Beta  occ. eigenvalues --   -0.15918  -0.14781  -0.13399
  Beta virt. eigenvalues --    0.05981   0.06472   0.06779   0.07081   0.07358
  Beta virt. eigenvalues --    0.07492   0.07990   0.08263   0.08837   0.09038
  Beta virt. eigenvalues --    0.09656   0.09803   0.09981   0.10566   0.10895

 Mulliken charges and spin densities:
               1          2
     1  C    2.079894  -2.618221
     2  C   -0.088982   0.831966
     3  C   -0.507193   0.465970
     4  C   -1.143812   0.516443
     5  C    0.386939   0.175840
     6  C   -0.326614   0.012378
     7  C   -0.211570  -0.820702
     8  C   -0.220294   0.066763
     9  C   -0.247165  -0.344571
    10  N    0.220794  -0.033954
    11  C   -0.798158   0.948115
    12  C    0.752217  -1.232615
    13  C    1.073070  -2.062924
    14  C   -1.185276   1.817305
    15  C    0.361959  -0.856563
    16  C   -0.048823  -0.417130
    17  O   -0.115581   0.005413
    18  C    0.191922  -0.489251
    19  H   -0.249057   0.399087
    20  H    0.024258   0.137698
    21  H   -0.291869   0.445184
    22  H   -0.037299   0.213688
    23  H    0.057563   0.078035
    24  H   -0.653423   0.832945
    25  H    0.126514   0.079072
    26  H    0.205255  -0.011568
    27  H   -0.029677   0.155187
    28  H    0.043259   0.073246
    29  H    0.281978  -0.083065
    30  H    0.239501  -0.121283
    31  H   -0.015783   0.161953
    32  H   -0.199268   0.326989
    33  H    0.094781   0.039504
    34  H   -0.061008   0.213579
    35  H   -0.017407   0.182897
    36  H   -0.001864   0.181671
    37  H   -0.002970   0.137055
    38  H   -0.219015   0.375168
    39  H   -0.124840   0.265760
    40  H   -0.212909   0.370810
    41  H   -0.014510   0.202599
    42  H    0.019918   0.112862
    43  H   -0.135459   0.266665
 Sum of Mulliken charges =  -1.00000   1.00000

 Dipole moment (field-independent basis, Debye):
    X=              0.4726    Y=             -3.7439    Z=              1.7161  Tot=              4.1455
 Quadrupole moment (field-independent basis, Debye-Ang):
   XX=           -206.9122   YY=           -176.0568   ZZ=           -147.4019
   XY=              6.9744   XZ=             -4.5297   YZ=              1.4383

 Summary of Natural Population Analysis:

                                       Natural Population
                Natural  -----------------------------------------------
    Atom  No    Charge         Core      Valence    Rydberg      Total
 -----------------------------------------------------------------------
      C    1   -0.29331      0.99964     2.28797    0.00571     3.29331
      C    2   -0.01143      0.99952     2.00267    0.00924     3.01143
      C    3   -0.11708      0.99946     2.10818    0.00944     3.11708
      C    4    0.16231      0.99932     1.82447    0.01391     2.83769
      C    5   -0.04217      0.99943     2.03165    0.01109     3.04217
      C    6   -0.08943      0.99953     2.08033    0.00958     3.08943
      C    7   -0.10393      0.99951     2.09446    0.00997     3.10393
      C    8   -0.01481      0.99957     2.00305    0.01220     3.01481
      C    9   -0.28639      0.99964     2.28175    0.00501     3.28639
      N   10   -0.34747      0.99972     2.83603    0.01172     3.84747
      C   11   -0.01059      0.99960     1.99956    0.01143     3.01059
      C   12   -0.28343      0.99964     2.27746    0.00632     3.28343
      C   13   -0.19306      0.99958     2.18420    0.00927     3.19306
      C   14   -0.12196      0.99959     2.11175    0.01061     3.12196
      C   15   -0.20056      0.99961     2.19202    0.00892     3.20056
      C   16   -0.19294      0.99962     2.18555    0.00778     3.19294
      O   17   -0.29580      0.99986     3.28632    0.00962     4.29580
      C   18   -0.09949      0.99958     2.09134    0.00857     3.09949
      H   19    0.10418      0.00000     0.39460    0.00122     0.39582
      H   20    0.10397      0.00000     0.39512    0.00091     0.39603
      H   21    0.10532      0.00000     0.39330    0.00138     0.39468
      H   22    0.10278      0.00000     0.39577    0.00146     0.39722
      H   23    0.10086      0.00000     0.39724    0.00189     0.39914
      H   24    0.10263      0.00000     0.39602    0.00134     0.39737
      H   25    0.08663      0.00000     0.41038    0.00298     0.41337
      H   26    0.11022      0.00000     0.38856    0.00122     0.38978
      H   27    0.09538      0.00000     0.40377    0.00085     0.40462
      H   28    0.09777      0.00000     0.40147    0.00076     0.40223
      H   29    0.17534      0.00000     0.32155    0.00312     0.32466
      H   30    0.08940      0.00000     0.40844    0.00216     0.41060
      H   31    0.09716      0.00000     0.40184    0.00100     0.40284
      H   32    0.09619      0.00000     0.40295    0.00087     0.40381
      H   33    0.10185      0.00000     0.39718    0.00097     0.39815
      H   34    0.10099      0.00000     0.39766    0.00135     0.39901
      H   35    0.09713      0.00000     0.40171    0.00116     0.40287
      H   36    0.10400      0.00000     0.39348    0.00252     0.39600
      H   37    0.10298      0.00000     0.39583    0.00119     0.39702
      H   38    0.10064      0.00000     0.39828    0.00108     0.39936
      H   39    0.10024      0.00000     0.39868    0.00108     0.39976
      H   40    0.10337      0.00000     0.39550    0.00112     0.39663
      H   41    0.09566      0.00000     0.40297    0.00138     0.40434
      H   42    0.08663      0.00000     0.41241    0.00096     0.41337
      H   43    0.08026      0.00000     0.41845    0.00129     0.41974
 =======================================================================
   * Total *   -0.00000     17.99242    49.80194    0.20564    68.00000

 Normal termination of Gaussian 16 at Fri Dec 11 22:47:41 2020.
