 Gaussian 16, Revision A.03,

 -----------------------------------------------------------
 # opt freq B3LYP/6-31G(d) empiricaldispersion=gd3bj scf=xqc
 -----------------------------------------------------------

 ------------------------------
 CID_68121116_JID_6527_neutraal
 ------------------------------
 Symbolic Z-matrix:
 Charge =  0 Multiplicity = 1

 SCF Done:  E(RB3LYP) =  -828.206578940     A.U. after   19 cycles
 SCF Done:  E(RB3LYP) =  -828.210642311     A.U. after   17 cycles
 SCF Done:  E(RB3LYP) =  -828.211318477     A.U. after   15 cycles
 SCF Done:  E(RB3LYP) =  -828.213891354     A.U. after   15 cycles
 SCF Done:  E(RB3LYP) =  -828.216300893     A.U. after   14 cycles
 SCF Done:  E(RB3LYP) =  -828.214539629     A.U. after   14 cycles
 SCF Done:  E(RB3LYP) =  -828.216774520     A.U. after   14 cycles
 SCF Done:  E(RB3LYP) =  -828.217551009     A.U. after   13 cycles
 SCF Done:  E(RB3LYP) =  -828.217960066     A.U. after   13 cycles
 SCF Done:  E(RB3LYP) =  -828.218203623     A.U. after   14 cycles
 SCF Done:  E(RB3LYP) =  -828.218366336     A.U. after   12 cycles
 SCF Done:  E(RB3LYP) =  -828.218392790     A.U. after   11 cycles
 SCF Done:  E(RB3LYP) =  -828.218398864     A.U. after   10 cycles
 SCF Done:  E(RB3LYP) =  -828.218400679     A.U. after    9 cycles
 SCF Done:  E(RB3LYP) =  -828.218400830     A.U. after    8 cycles
 SCF Done:  E(RB3LYP) =  -828.218400887     A.U. after    8 cycles
 Optimization completed.
    -- Stationary point found.
 Normal termination of Gaussian 16 at Thu Dec 10 23:24:53 2020.

 --------------------------------------------------------------------
 #N Geom=AllCheck Guess=TCheck SCRF=Check GenChk RB3LYP/6-31G(d) Freq
 --------------------------------------------------------------------

 Structure from the checkpoint file:  "JID_6527.chk"
 ------------------------------
 CID_68121116_JID_6527_neutraal
 ------------------------------
 Charge =  0 Multiplicity = 1

 SCF Done:  E(RB3LYP) =  -828.218400887     A.U. after    1 cycles

  Exact polarizability: 230.397   4.443 117.077   5.751  -9.009  72.957
 Approx polarizability: 345.230   9.030 225.187  15.118 -31.227 133.140

                      1                      2                      3
                      A                      A                      A
 Frequencies --     29.1910                44.4317                61.2331
 Red. masses --      7.8797                 5.7971                13.3578
 Frc consts  --      0.0040                 0.0067                 0.0295
 IR Inten    --      4.0945                 1.3342                 1.4328

                      4                      5                      6
                      A                      A                      A
 Frequencies --     99.4129               131.4673               146.5422
 Red. masses --      5.5376                 8.4157                 9.1172
 Frc consts  --      0.0322                 0.0857                 0.1154
 IR Inten    --      4.4510                 3.5367                 0.4635

                      7                      8                      9
                      A                      A                      A
 Frequencies --    173.1949               195.2394               221.1791
 Red. masses --      5.1162                 5.0638                 7.0220
 Frc consts  --      0.0904                 0.1137                 0.2024
 IR Inten    --      2.4854                 1.1281                 2.1607

                     10                     11                     12
                      A                      A                      A
 Frequencies --    285.6841               305.0881               428.4416
 Red. masses --      5.7327                 7.6621                 2.5374
 Frc consts  --      0.2757                 0.4202                 0.2744
 IR Inten    --      1.4898                 4.3175                 5.4607

                     13                     14                     15
                      A                      A                      A
 Frequencies --    442.4489               494.8922               516.7829
 Red. masses --      8.6327                 6.6749                 7.2885
 Frc consts  --      0.9957                 0.9632                 1.1468
 IR Inten    --      2.5883                 5.8346                11.2323

                     16                     17                     18
                      A                      A                      A
 Frequencies --    542.4707               597.3638               598.4867
 Red. masses --      7.8136                 5.9911                 5.2726
 Frc consts  --      1.3547                 1.2596                 1.1127
 IR Inten    --     12.8548                 6.7629                 3.1758

                     19                     20                     21
                      A                      A                      A
 Frequencies --    624.8093               653.0484               681.0905
 Red. masses --      3.0996                 6.1714                 5.8030
 Frc consts  --      0.7129                 1.5507                 1.5860
 IR Inten    --     12.5264                10.4977                17.6021

                     22                     23                     24
                      A                      A                      A
 Frequencies --    746.1177               767.3706               822.9289
 Red. masses --      8.4994                 8.0154                 8.2872
 Frc consts  --      2.7878                 2.7809                 3.3066
 IR Inten    --     16.7457                 1.3109                70.5909

                     25                     26                     27
                      A                      A                      A
 Frequencies --    826.0923               830.7242               840.4844
 Red. masses --      2.8973                 3.7337                 1.5216
 Frc consts  --      1.1650                 1.5181                 0.6333
 IR Inten    --      6.3925                23.0278                34.3905

                     28                     29                     30
                      A                      A                      A
 Frequencies --    902.1410               913.2119               926.1240
 Red. masses --      1.6785                 1.4413                 4.1029
 Frc consts  --      0.8049                 0.7082                 2.0734
 IR Inten    --     27.3561                 6.2480                37.1232

                     31                     32                     33
                      A                      A                      A
 Frequencies --    972.7979               994.4400              1000.7038
 Red. masses --      1.6112                 4.2732                 7.3370
 Frc consts  --      0.8983                 2.4898                 4.3289
 IR Inten    --      0.7849                 6.5298                 4.0948

                     34                     35                     36
                      A                      A                      A
 Frequencies --   1005.3551              1054.8089              1123.0107
 Red. masses --      2.0248                 1.2733                 3.7755
 Frc consts  --      1.2058                 0.8347                 2.8054
 IR Inten    --      6.4743                44.6816                97.6220

                     37                     38                     39
                      A                      A                      A
 Frequencies --   1188.8373              1208.7432              1215.4507
 Red. masses --      1.5798                 2.4952                 2.3359
 Frc consts  --      1.3155                 2.1480                 2.0332
 IR Inten    --     75.7443                24.8532               220.3182

                     40                     41                     42
                      A                      A                      A
 Frequencies --   1226.1929              1255.7420              1293.5055
 Red. masses --      2.3699                 3.1270                 3.7384
 Frc consts  --      2.0994                 2.9052                 3.6853
 IR Inten    --      3.1929                84.0560                18.1160

                     43                     44                     45
                      A                      A                      A
 Frequencies --   1313.2158              1378.5972              1392.1315
 Red. masses --      1.4778                 2.9236                 2.5815
 Frc consts  --      1.5016                 3.2738                 2.9477
 IR Inten    --     42.7940               317.6131               362.8870

                     46                     47                     48
                      A                      A                      A
 Frequencies --   1403.2274              1447.7643              1492.2553
 Red. masses --      4.7622                 2.2145                 1.1287
 Frc consts  --      5.5247                 2.7348                 1.4809
 IR Inten    --    138.7744                 9.2394                18.5334

                     49                     50                     51
                      A                      A                      A
 Frequencies --   1527.5340              1612.3707              1616.8497
 Red. masses --      9.5277                 6.5226                 6.8061
 Frc consts  --     13.0985                 9.9909                10.4830
 IR Inten    --     57.1189               213.5061               394.2574

                     52                     53                     54
                      A                      A                      A
 Frequencies --   1643.9217              1681.6324              1869.2773
 Red. masses --     12.2377                 9.4548                12.7667
 Frc consts  --     19.4855                15.7530                26.2831
 IR Inten    --    169.2756                 2.6542               342.4001

                     55                     56                     57
                      A                      A                      A
 Frequencies --   3091.8756              3168.5942              3184.0223
 Red. masses --      1.0661                 1.0974                 1.0882
 Frc consts  --      6.0044                 6.4917                 6.5000
 IR Inten    --      1.3667                 2.2921                 2.4834

                     58                     59                     60
                      A                      A                      A
 Frequencies --   3243.5709              3286.9594              3310.1544
 Red. masses --      1.0976                 1.0954                 1.1004
 Frc consts  --      6.8037                 6.9728                 7.1040
 IR Inten    --      2.4720                 1.5781                 5.4680

 - Thermochemistry -
 -------------------
 Temperature   298.150 Kelvin.  Pressure   1.00000 Atm.
 Atom     1 has atomic number  6 and mass  12.00000

 Molecular mass:   222.03890 amu.
 Principal axes and moments of inertia in atomic units:
                           1         2         3
     Eigenvalues --  1289.587567722.402208451.75302
           X            0.99999   0.00464  -0.00168
           Y           -0.00467   0.99985  -0.01658
           Z            0.00160   0.01658   0.99986
 This molecule is an asymmetric top.
 Rotational symmetry number  1.
 Warning -- assumption of classical behavior for rotation
           may cause significant error
 Rotational temperatures (Kelvin)      0.06716     0.01122     0.01025
 Rotational constants (GHZ):           1.39947     0.23370     0.21353
 Zero-point vibrational energy     395074.1 (Joules/Mol)
                                   94.42498 (Kcal/Mol)
 Warning -- explicit consideration of  18 degrees of freedom as
           vibrations may cause significant error
 Vibrational temperatures:     42.00    63.93    88.10   143.03   189.15
          (Kelvin)            210.84   249.19   280.91   318.23   411.04
                              438.95   616.43   636.59   712.04   743.54
                              780.49   859.47   861.09   898.96   939.59
                              979.94  1073.50  1104.08  1184.01  1188.56
                             1195.23  1209.27  1297.98  1313.91  1332.49
                             1399.64  1430.78  1439.79  1446.48  1517.63
                             1615.76  1710.47  1739.11  1748.76  1764.22
                             1806.73  1861.07  1889.42  1983.49  2002.97
                             2018.93  2083.01  2147.02  2197.78  2319.84
                             2326.29  2365.24  2419.49  2689.47  4448.52
                             4558.90  4581.10  4666.78  4729.20  4762.57

 Zero-point correction=                           0.150476 (Hartree/Particle)
 Thermal correction to Energy=                    0.163343
 Thermal correction to Enthalpy=                  0.164287
 Thermal correction to Gibbs Free Energy=         0.108782
 Sum of electronic and zero-point Energies=           -828.067925
 Sum of electronic and thermal Energies=              -828.055058
 Sum of electronic and thermal Enthalpies=            -828.054114
 Sum of electronic and thermal Free Energies=         -828.109619

                     E (Thermal)             CV                S
                      KCal/Mol        Cal/Mol-Kelvin    Cal/Mol-Kelvin
 Total                  102.499             47.277            116.820
 Electronic               0.000              0.000              0.000
 Translational            0.889              2.981             42.096
 Rotational               0.889              2.981             32.798
 Vibrational            100.722             41.315             41.927
 Vibration     1          0.593              1.984              5.884
 Vibration     2          0.595              1.980              5.051
 Vibration     3          0.597              1.973              4.417
 Vibration     4          0.604              1.950              3.466
 Vibration     5          0.612              1.922              2.924
 Vibration     6          0.617              1.906              2.717
 Vibration     7          0.627              1.875              2.401
 Vibration     8          0.636              1.847              2.178
 Vibration     9          0.648              1.809              1.949
 Vibration    10          0.683              1.700              1.499
 Vibration    11          0.696              1.664              1.389
 Vibration    12          0.790              1.408              0.864
 Vibration    13          0.802              1.378              0.819
 Vibration    14          0.850              1.261              0.671
 Vibration    15          0.872              1.213              0.617
 Vibration    16          0.898              1.156              0.560
 Vibration    17          0.955              1.037              0.454
 Vibration    18          0.956              1.035              0.452

 Optimization completed.
    -- Stationary point found.
 Normal termination of Gaussian 16 at Thu Dec 10 23:30:41 2020.

 ----------------------------------------------------------------------
 # B3LYP/6-311++G(d,p) empiricaldispersion=gd3bj scf=xqc pop=npa geom=c
 heck
 ----------------------------------------------------------------------

 --------------------------------------
 CID_68121116_JID_6527_Energie_neutraal
 --------------------------------------
 Structure from the checkpoint file:  "JID_6527.chk"
 Charge =  0 Multiplicity = 1

 SCF Done:  E(RB3LYP) =  -828.451742678     A.U. after   20 cycles
 Normal termination of Gaussian 16 at Thu Dec 10 23:33:47 2020.

 ----------------------------------------------------------------------
 # B3LYP/6-311++G(d,p) empiricaldispersion=gd3bj scf=xqc pop=npa geom=c
 heck
 ----------------------------------------------------------------------

 ------------------------------------
 CID_68121116_JID_6527_Energie_kation
 ------------------------------------
 Structure from the checkpoint file:  "JID_6527.chk"
 Charge =  1 Multiplicity = 2

 SCF Done:  E(UB3LYP) =  -828.123363333     A.U. after   31 cycles
 Normal termination of Gaussian 16 at Thu Dec 10 23:40:28 2020.
 Gaussian 16:  ES64L-G16RevA.03 25-Dec-2016

 ----------------------------------------------------------------------
 # B3LYP/6-311++G(d,p) empiricaldispersion=gd3bj scf=xqc pop=npa geom=c
 heck
 ----------------------------------------------------------------------

 -----------------------------------
 CID_68121116_JID_6527_Energie_anion
 -----------------------------------
 Structure from the checkpoint file:  "JID_6527.chk"
 Charge = -1 Multiplicity = 2

                         Standard orientation:
 ---------------------------------------------------------------------
 Center     Atomic      Atomic             Coordinates (Angstroms)
 Number     Number       Type             X           Y           Z
 ---------------------------------------------------------------------
      1          6           0        2.091771   -0.601859   -0.314004
      2          6           0        3.549068   -1.128044   -0.368338
      3          8           0        3.861798   -2.254397   -0.661369
      4          7           0        4.428938   -0.075331   -0.006830
      5          6           0        3.677191    0.946033    0.239733
      6          7           0        2.307156    0.758104    0.187756
      7          7           0        1.534998    1.868154    0.039350
      8          6           0        0.247443    1.800818   -0.002573
      9          6           0       -0.665968    0.711344    0.287113
     10          6           0       -0.686382   -0.332761    1.192007
     11          6           0       -1.974805   -0.923710    1.113368
     12          6           0       -2.648029   -0.192145    0.174345
     13          8           0       -1.887366    0.803362   -0.329402
     14          7           0       -3.982038   -0.324328   -0.323602
     15          8           0       -4.359679    0.475051   -1.176870
     16          8           0       -4.642331   -1.246973    0.161917
     17          1           0        1.486358   -1.225685    0.342709
     18          1           0        1.627667   -0.579037   -1.305803
     19          1           0        4.037163    1.938018    0.492692
     20          1           0       -0.235927    2.748882   -0.230364
     21          1           0        0.108102   -0.601347    1.871891
     22          1           0       -2.367849   -1.761411    1.668038
 ---------------------------------------------------------------------

 SCF Done:  E(UB3LYP) =  -828.527414599     A.U. after   23 cycles

 The electronic state is 2-A.
 Alpha  occ. eigenvalues --  -19.08012 -19.01086 -18.99345 -18.99124 -14.38341
 Alpha  occ. eigenvalues --  -14.29667 -14.24089 -14.20783 -10.18083 -10.15976
 Alpha  occ. eigenvalues --  -10.14415 -10.12882 -10.12648 -10.11008 -10.08026
 Alpha  occ. eigenvalues --  -10.07654  -1.07681  -1.01502  -0.96491  -0.94075
 Alpha  occ. eigenvalues --   -0.90320  -0.84988  -0.74592  -0.71110  -0.69162
 Alpha  occ. eigenvalues --   -0.65803  -0.59506  -0.54476  -0.52074  -0.49600
 Alpha  occ. eigenvalues --   -0.47166  -0.45834  -0.44086  -0.40854  -0.40480
 Alpha  occ. eigenvalues --   -0.40196  -0.38344  -0.37160  -0.36205  -0.35726
 Alpha  occ. eigenvalues --   -0.34429  -0.32682  -0.32318  -0.31136  -0.30647
 Alpha  occ. eigenvalues --   -0.29324  -0.28282  -0.24254  -0.21211  -0.20424
 Alpha  occ. eigenvalues --   -0.19297  -0.17507  -0.16764  -0.16193  -0.16152
 Alpha  occ. eigenvalues --   -0.14867  -0.12141  -0.01609
 Alpha virt. eigenvalues --    0.03591   0.07024   0.07790   0.08936   0.10146
 Alpha virt. eigenvalues --    0.10472   0.10961   0.12330   0.13151   0.13787
 Alpha virt. eigenvalues --    0.13951   0.14203   0.14969   0.15438   0.16175

  Beta  occ. eigenvalues --  -19.07743 -19.01004 -18.98971 -18.98734 -14.37980
  Beta  occ. eigenvalues --  -14.29728 -14.23729 -14.20741 -10.18048 -10.15850
  Beta  occ. eigenvalues --  -10.14295 -10.12879 -10.12484 -10.10954 -10.08046
  Beta  occ. eigenvalues --  -10.07618  -1.06967  -1.01066  -0.96338  -0.93871
  Beta  occ. eigenvalues --   -0.89617  -0.84687  -0.74387  -0.70912  -0.68665
  Beta  occ. eigenvalues --   -0.65596  -0.58795  -0.54229  -0.51978  -0.49509
  Beta  occ. eigenvalues --   -0.47010  -0.45633  -0.43610  -0.40695  -0.39914
  Beta  occ. eigenvalues --   -0.38571  -0.38174  -0.36927  -0.35679  -0.35483
  Beta  occ. eigenvalues --   -0.33361  -0.32557  -0.32174  -0.30854  -0.30167
  Beta  occ. eigenvalues --   -0.29017  -0.28057  -0.23245  -0.21109  -0.19956
  Beta  occ. eigenvalues --   -0.18511  -0.16344  -0.16090  -0.15443  -0.14903
  Beta  occ. eigenvalues --   -0.14482  -0.11147
  Beta virt. eigenvalues --    0.03497   0.05545   0.07763   0.08683   0.08932
  Beta virt. eigenvalues --    0.10182   0.10576   0.10960   0.12547   0.13275
  Beta virt. eigenvalues --    0.13892   0.14290   0.14349   0.15023   0.16008

 Mulliken charges and spin densities:
               1          2
     1  C   -0.263141  -0.007922
     2  C   -0.086631   0.025894
     3  O   -0.325471   0.028564
     4  N   -0.180462   0.018337
     5  C    0.025044   0.075839
     6  N    0.120577  -0.025667
     7  N   -0.182167   0.151684
     8  C   -0.419851   0.050646
     9  C    0.061876   0.096326
    10  C   -0.170560   0.003124
    11  C    0.247535   0.047323
    12  C   -0.364955   0.068286
    13  O   -0.035736   0.068026
    14  N   -0.337265   0.116652
    15  O   -0.134365   0.140223
    16  O   -0.140906   0.142878
    17  H    0.175379   0.005255
    18  H    0.240083  -0.001652
    19  H    0.190377  -0.006601
    20  H    0.191135   0.004160
    21  H    0.177435   0.000569
    22  H    0.212069  -0.001944
 Sum of Mulliken charges =  -1.00000   1.00000

 Dipole moment (field-independent basis, Debye):
    X=              4.2576    Y=              2.3069    Z=              2.7969  Tot=              5.5921
 Quadrupole moment (field-independent basis, Debye-Ang):
   XX=           -198.6228   YY=           -109.0538   ZZ=            -96.0449
   XY=              8.8174   XZ=             -4.0053   YZ=             -1.3908

 Summary of Natural Population Analysis:

                                       Natural Population
                Natural  -----------------------------------------------
    Atom  No    Charge         Core      Valence    Rydberg      Total
 -----------------------------------------------------------------------
      C    1   -0.14951      0.99959     2.14120    0.00872     3.14951
      C    2    0.33490      0.99971     1.64050    0.02489     2.66510
      O    3   -0.28170      0.99987     3.27418    0.00765     4.28170
      N    4   -0.28922      0.99969     2.77767    0.01187     3.78922
      C    5    0.19531      0.99967     1.78851    0.01652     2.80469
      N    6   -0.16139      0.99965     2.64565    0.01610     3.66139
      N    7   -0.08962      0.99968     2.57698    0.01297     3.58962
      C    8    0.01772      0.99961     1.96833    0.01434     2.98228
      C    9    0.14234      0.99947     1.84545    0.01275     2.85766
      C   10   -0.15110      0.99953     2.14393    0.00764     3.15110
      C   11   -0.13423      0.99952     2.12547    0.00924     3.13423
      C   12    0.22748      0.99940     1.75716    0.01596     2.77252
      O   13   -0.19680      0.99984     3.18779    0.00917     4.19680
      N   14    0.26180      0.99970     2.21108    0.02742     3.23820
      O   15   -0.17891      0.99990     3.17111    0.00791     4.17891
      O   16   -0.19077      0.99990     3.18303    0.00784     4.19077
      H   17    0.11671      0.00000     0.38204    0.00125     0.38329
      H   18    0.11483      0.00000     0.38414    0.00104     0.38517
      H   19    0.09393      0.00000     0.40495    0.00112     0.40607
      H   20    0.09720      0.00000     0.40162    0.00118     0.40280
      H   21    0.10594      0.00000     0.39317    0.00089     0.39406
      H   22    0.11512      0.00000     0.38388    0.00099     0.38488
 =======================================================================
   * Total *    0.00000     15.99472    40.78783    0.21745    57.00000

 Normal termination of Gaussian 16 at Thu Dec 10 23:45:37 2020.
