 Gaussian 16, Revision A.03,

 -----------------------------------------------------------
 # opt freq B3LYP/6-31G(d) empiricaldispersion=gd3bj scf=xqc
 -----------------------------------------------------------

 -------------------------------
 CID_152048349_JID_6079_neutraal
 -------------------------------
 Symbolic Z-matrix:
 Charge =  0 Multiplicity = 1

 SCF Done:  E(RB3LYP) =  -767.853901028     A.U. after   15 cycles
 SCF Done:  E(RB3LYP) =  -767.858932722     A.U. after   12 cycles
 SCF Done:  E(RB3LYP) =  -767.859467778     A.U. after   13 cycles
 SCF Done:  E(RB3LYP) =  -767.860332555     A.U. after   12 cycles
 SCF Done:  E(RB3LYP) =  -767.860833854     A.U. after   13 cycles
 SCF Done:  E(RB3LYP) =  -767.861205609     A.U. after   12 cycles
 SCF Done:  E(RB3LYP) =  -767.861543118     A.U. after   13 cycles
 SCF Done:  E(RB3LYP) =  -767.861662471     A.U. after   11 cycles
 SCF Done:  E(RB3LYP) =  -767.861694109     A.U. after   11 cycles
 SCF Done:  E(RB3LYP) =  -767.861701593     A.U. after   10 cycles
 SCF Done:  E(RB3LYP) =  -767.861704879     A.U. after    9 cycles
 SCF Done:  E(RB3LYP) =  -767.861705313     A.U. after    8 cycles
 SCF Done:  E(RB3LYP) =  -767.861705393     A.U. after    7 cycles
 Optimization completed.
    -- Stationary point found.
 Normal termination of Gaussian 16 at Thu Dec 10 21:13:00 2020.

 --------------------------------------------------------------------
 #N Geom=AllCheck Guess=TCheck SCRF=Check GenChk RB3LYP/6-31G(d) Freq
 --------------------------------------------------------------------

 Structure from the checkpoint file:  "JID_6079.chk"
 -------------------------------
 CID_152048349_JID_6079_neutraal
 -------------------------------
 Charge =  0 Multiplicity = 1

 SCF Done:  E(RB3LYP) =  -767.861705393     A.U. after    1 cycles

  Exact polarizability: 189.022   2.439 150.327  -2.988   9.166  86.631
 Approx polarizability: 270.477  -6.226 238.811 -10.566  25.011 128.118

                      1                      2                      3
                      A                      A                      A
 Frequencies --     34.9805                45.4053                63.8914
 Red. masses --      5.2565                 3.5739                 3.6368
 Frc consts  --      0.0038                 0.0043                 0.0087
 IR Inten    --      1.1432                 2.6965                 0.4314

                      4                      5                      6
                      A                      A                      A
 Frequencies --     69.9995               103.6205               118.6705
 Red. masses --      2.9242                 3.8609                 3.9888
 Frc consts  --      0.0084                 0.0244                 0.0331
 IR Inten    --      0.0584                 0.8896                 2.4270

                      7                      8                      9
                      A                      A                      A
 Frequencies --    142.1062               197.2518               208.1323
 Red. masses --      4.7063                 1.9073                 1.5148
 Frc consts  --      0.0560                 0.0437                 0.0387
 IR Inten    --      0.5385                 2.7849                 1.9208

                     10                     11                     12
                      A                      A                      A
 Frequencies --    217.1135               227.3460               242.0987
 Red. masses --      1.0728                 1.7422                 3.0111
 Frc consts  --      0.0298                 0.0531                 0.1040
 IR Inten    --      0.5251                 0.3727                 0.9994

                     13                     14                     15
                      A                      A                      A
 Frequencies --    265.3485               279.8871               331.3886
 Red. masses --      2.8453                 2.6903                 3.4181
 Frc consts  --      0.1180                 0.1242                 0.2212
 IR Inten    --      1.4237                 0.3945                 0.7877

                     16                     17                     18
                      A                      A                      A
 Frequencies --    346.1586               381.7925               391.1350
 Red. masses --      3.9716                 2.3744                 1.5574
 Frc consts  --      0.2804                 0.2039                 0.1404
 IR Inten    --      3.7387                29.6733                62.5570

                     19                     20                     21
                      A                      A                      A
 Frequencies --    392.0008               406.1839               435.3115
 Red. masses --      1.7345                 2.3138                 2.9235
 Frc consts  --      0.1570                 0.2249                 0.3264
 IR Inten    --     91.9644                64.3846                37.4964

                     22                     23                     24
                      A                      A                      A
 Frequencies --    471.3534               481.3709               524.5118
 Red. masses --      3.1455                 3.0903                 4.3826
 Frc consts  --      0.4117                 0.4219                 0.7104
 IR Inten    --     18.7374                27.0995                 1.3476

                     25                     26                     27
                      A                      A                      A
 Frequencies --    564.2823               589.5267               599.4274
 Red. masses --      4.2238                 3.4636                 3.8050
 Frc consts  --      0.7924                 0.7092                 0.8055
 IR Inten    --     23.2224                 2.2569                 6.1414

                     28                     29                     30
                      A                      A                      A
 Frequencies --    647.7740               689.0933               710.8136
 Red. masses --      3.8197                 4.3450                 4.9009
 Frc consts  --      0.9443                 1.2156                 1.4590
 IR Inten    --     28.4961                 7.0004                 8.0005

                     31                     32                     33
                      A                      A                      A
 Frequencies --    735.6451               759.3082               803.0734
 Red. masses --      4.6019                 5.8255                 1.2447
 Frc consts  --      1.4673                 1.9789                 0.4730
 IR Inten    --      5.1327                 5.2433                 0.0658

                     34                     35                     36
                      A                      A                      A
 Frequencies --    814.7946               863.9021               877.2879
 Red. masses --      3.4324                 1.5348                 2.2239
 Frc consts  --      1.3426                 0.6749                 1.0084
 IR Inten    --      8.4053                19.4786                28.7475

                     37                     38                     39
                      A                      A                      A
 Frequencies --    945.0376               963.9608               980.5408
 Red. masses --      2.6421                 1.3385                 2.3104
 Frc consts  --      1.3903                 0.7328                 1.3088
 IR Inten    --    127.3533                11.7785                13.4588

                     40                     41                     42
                      A                      A                      A
 Frequencies --    991.4652              1053.6498              1061.3837
 Red. masses --      2.1788                 2.4911                 1.8323
 Frc consts  --      1.2619                 1.6294                 1.2162
 IR Inten    --      6.0105                29.4498                 2.8322

                     43                     44                     45
                      A                      A                      A
 Frequencies --   1077.3999              1095.4133              1101.8863
 Red. masses --      2.1715                 1.8732                 1.6112
 Frc consts  --      1.4851                 1.3243                 1.1526
 IR Inten    --     58.8351                37.4251                 5.8655

                     46                     47                     48
                      A                      A                      A
 Frequencies --   1136.7945              1151.7633              1189.9597
 Red. masses --      2.0526                 2.2471                 3.5628
 Frc consts  --      1.5628                 1.7563                 2.9724
 IR Inten    --      8.0537               326.2008               192.9130

                     49                     50                     51
                      A                      A                      A
 Frequencies --   1202.3330              1234.8566              1278.0794
 Red. masses --      1.5964                 1.7335                 1.8771
 Frc consts  --      1.3597                 1.5574                 1.8066
 IR Inten    --    129.5992                 7.9582                80.3999

                     52                     53                     54
                      A                      A                      A
 Frequencies --   1302.1607              1303.7422              1307.4803
 Red. masses --      2.3469                 1.3256                 2.9069
 Frc consts  --      2.3446                 1.3276                 2.9279
 IR Inten    --     67.1730                77.0442               174.9781

                     55                     56                     57
                      A                      A                      A
 Frequencies --   1336.4706              1375.3041              1389.2714
 Red. masses --      1.2949                 1.5192                 3.1801
 Frc consts  --      1.3627                 1.6930                 3.6163
 IR Inten    --     80.1991                24.7406                 8.8794

                     58                     59                     60
                      A                      A                      A
 Frequencies --   1417.0542              1425.4205              1432.0516
 Red. masses --      1.3127                 1.2270                 1.2235
 Frc consts  --      1.5530                 1.4688                 1.4784
 IR Inten    --     19.3370                 3.3345                 2.0258

                     61                     62                     63
                      A                      A                      A
 Frequencies --   1437.1812              1471.5963              1478.6198
 Red. masses --      1.3917                 2.5748                 1.5929
 Frc consts  --      1.6937                 3.2853                 2.0519
 IR Inten    --     37.5166               109.7917                45.4135

                     64                     65                     66
                      A                      A                      A
 Frequencies --   1487.6951              1502.8611              1513.3294
 Red. masses --      1.2371                 1.0481                 1.1107
 Frc consts  --      1.6132                 1.3947                 1.4987
 IR Inten    --     25.9731                 7.4865                 6.3118

                     67                     68                     69
                      A                      A                      A
 Frequencies --   1516.6835              1523.5634              1527.2896
 Red. masses --      1.0563                 1.0725                 1.0513
 Frc consts  --      1.4317                 1.4668                 1.4448
 IR Inten    --      4.8883                 8.9353                10.2911

                     70                     71                     72
                      A                      A                      A
 Frequencies --   1539.7682              1551.5459              1640.2814
 Red. masses --      1.0747                 2.8961                 6.7912
 Frc consts  --      1.5013                 4.1076                10.7655
 IR Inten    --      3.1469                90.0072                27.6855

                     73                     74                     75
                      A                      A                      A
 Frequencies --   1665.0115              1761.2069              3051.8756
 Red. masses --      6.6673                10.2882                 1.0352
 Frc consts  --     10.8901                18.8023                 5.6810
 IR Inten    --    257.1747               167.1818                37.8827

                     76                     77                     78
                      A                      A                      A
 Frequencies --   3055.3486              3061.2153              3068.1358
 Red. masses --      1.0597                 1.0867                 1.0352
 Frc consts  --      5.8283                 6.0002                 5.7413
 IR Inten    --     26.7707                60.2803                 2.4815

                     79                     80                     81
                      A                      A                      A
 Frequencies --   3081.4489              3092.1123              3118.6538
 Red. masses --      1.0357                 1.1038                 1.1025
 Frc consts  --      5.7945                 6.2179                 6.3176
 IR Inten    --      7.3385                 8.6700                45.5048

                     82                     83                     84
                      A                      A                      A
 Frequencies --   3132.3487              3134.3138              3155.2861
 Red. masses --      1.0991                 1.1029                 1.1038
 Frc consts  --      6.3536                 6.3838                 6.4747
 IR Inten    --      7.2591                31.3543                14.4644

                     85                     86                     87
                      A                      A                      A
 Frequencies --   3166.5616              3169.0759              3213.5055
 Red. masses --      1.1024                 1.1054                 1.0893
 Frc consts  --      6.5126                 6.5408                 6.6273
 IR Inten    --     17.4865                18.7095                 5.0090

                     88                     89                     90
                      A                      A                      A
 Frequencies --   3216.8555              3730.6843              3745.5647
 Red. masses --      1.0909                 1.0657                 1.0658
 Frc consts  --      6.6514                 8.7387                 8.8099
 IR Inten    --      1.4352                26.8819                45.0272

 - Thermochemistry -
 -------------------
 Temperature   298.150 Kelvin.  Pressure   1.00000 Atm.
 Atom     1 has atomic number  6 and mass  12.00000

 Molecular mass:   224.10486 amu.
 Principal axes and moments of inertia in atomic units:
                           1         2         3
     Eigenvalues --  2364.290695156.962896909.61708
           X            0.99971   0.02315   0.00680
           Y           -0.02305   0.99963  -0.01438
           Z           -0.00713   0.01422   0.99987
 This molecule is an asymmetric top.
 Rotational symmetry number  1.
 Warning -- assumption of classical behavior for rotation
           may cause significant error
 Rotational temperatures (Kelvin)      0.03663     0.01680     0.01254
 Rotational constants (GHZ):           0.76333     0.34996     0.26119
 Zero-point vibrational energy     697393.5 (Joules/Mol)
                                  166.68104 (Kcal/Mol)
 Warning -- explicit consideration of  27 degrees of freedom as
           vibrations may cause significant error
 Vibrational temperatures:     50.33    65.33    91.93   100.71   149.09
          (Kelvin)            170.74   204.46   283.80   299.46   312.38
                              327.10   348.33   381.78   402.70   476.79
                              498.04   549.31   562.76   564.00   584.41
                              626.32   678.17   692.59   754.66   811.88
                              848.20   862.44   932.00   991.45  1022.70
                             1058.43  1092.48  1155.44  1172.31  1242.96
                             1262.22  1359.70  1386.92  1410.78  1426.50
                             1515.97  1527.09  1550.14  1576.06  1585.37
                             1635.59  1657.13  1712.09  1729.89  1776.68
                             1838.87  1873.52  1875.79  1881.17  1922.88
                             1978.76  1998.85  2038.82  2050.86  2060.40
                             2067.78  2117.30  2127.40  2140.46  2162.28
                             2177.34  2182.17  2192.07  2197.43  2215.38
                             2232.33  2360.00  2395.58  2533.98  4390.97
                             4395.97  4404.41  4414.36  4433.52  4448.86
                             4487.05  4506.75  4509.58  4539.75  4555.98
                             4559.59  4623.52  4628.34  5367.62  5389.03

 Zero-point correction=                           0.265623 (Hartree/Particle)
 Thermal correction to Energy=                    0.282282
 Thermal correction to Enthalpy=                  0.283227
 Thermal correction to Gibbs Free Energy=         0.221197
 Sum of electronic and zero-point Energies=           -767.596082
 Sum of electronic and thermal Energies=              -767.579423
 Sum of electronic and thermal Enthalpies=            -767.578479
 Sum of electronic and thermal Free Energies=         -767.640508

                     E (Thermal)             CV                S
                      KCal/Mol        Cal/Mol-Kelvin    Cal/Mol-Kelvin
 Total                  177.135             62.530            130.552
 Electronic               0.000              0.000              0.000
 Translational            0.889              2.981             42.123
 Rotational               0.889              2.981             32.799
 Vibrational            175.357             56.569             55.629
 Vibration     1          0.594              1.982              5.525
 Vibration     2          0.595              1.979              5.008
 Vibration     3          0.597              1.972              4.333
 Vibration     4          0.598              1.968              4.153
 Vibration     5          0.605              1.946              3.385
 Vibration     6          0.609              1.934              3.122
 Vibration     7          0.616              1.911              2.775
 Vibration     8          0.637              1.844              2.159
 Vibration     9          0.641              1.828              2.060
 Vibration    10          0.646              1.815              1.983
 Vibration    11          0.651              1.799              1.900
 Vibration    12          0.658              1.776              1.787
 Vibration    13          0.671              1.737              1.626
 Vibration    14          0.680              1.711              1.534
 Vibration    15          0.714              1.613              1.253
 Vibration    16          0.724              1.583              1.184
 Vibration    17          0.751              1.509              1.032
 Vibration    18          0.759              1.489              0.996
 Vibration    19          0.759              1.487              0.993
 Vibration    20          0.771              1.457              0.940
 Vibration    21          0.796              1.393              0.841
 Vibration    22          0.828              1.314              0.734
 Vibration    23          0.838              1.291              0.706
 Vibration    24          0.879              1.196              0.600
 Vibration    25          0.920              1.109              0.515
 Vibration    26          0.947              1.054              0.468
 Vibration    27          0.957              1.033              0.451

 Optimization completed.
    -- Stationary point found.
 Normal termination of Gaussian 16 at Thu Dec 10 21:23:23 2020.

 ----------------------------------------------------------------------
 # B3LYP/6-311++G(d,p) empiricaldispersion=gd3bj scf=xqc pop=npa geom=c
 heck
 ----------------------------------------------------------------------

 ---------------------------------------
 CID_152048349_JID_6079_Energie_neutraal
 ---------------------------------------
 Structure from the checkpoint file:  "JID_6079.chk"
 Charge =  0 Multiplicity = 1

 SCF Done:  E(RB3LYP) =  -768.092766441     A.U. after   15 cycles
 Normal termination of Gaussian 16 at Thu Dec 10 21:27:42 2020.

 ----------------------------------------------------------------------
 # B3LYP/6-311++G(d,p) empiricaldispersion=gd3bj scf=xqc pop=npa geom=c
 heck
 ----------------------------------------------------------------------

 -------------------------------------
 CID_152048349_JID_6079_Energie_kation
 -------------------------------------
 Structure from the checkpoint file:  "JID_6079.chk"
 Charge =  1 Multiplicity = 2

 SCF Done:  E(UB3LYP) =  -767.796947657     A.U. after   29 cycles
 Normal termination of Gaussian 16 at Thu Dec 10 21:39:30 2020.
 Gaussian 16:  ES64L-G16RevA.03 25-Dec-2016

 ----------------------------------------------------------------------
 # B3LYP/6-311++G(d,p) empiricaldispersion=gd3bj scf=xqc pop=npa geom=c
 heck
 ----------------------------------------------------------------------

 ------------------------------------
 CID_152048349_JID_6079_Energie_anion
 ------------------------------------
 Structure from the checkpoint file:  "JID_6079.chk"
 Charge = -1 Multiplicity = 2

                         Standard orientation:
 ---------------------------------------------------------------------
 Center     Atomic      Atomic             Coordinates (Angstroms)
 Number     Number       Type             X           Y           Z
 ---------------------------------------------------------------------
      1          6           0        1.445997    3.273896   -0.906789
      2          6           0        1.006694    2.609002    0.407722
      3          6           0        0.279434    1.304175    0.187467
      4          6           0       -1.103106    1.216348    0.258908
      5          6           0       -1.827636    0.029962    0.045357
      6          6           0       -1.086845   -1.124910   -0.268293
      7          6           0        0.307479   -1.073174   -0.360847
      8          6           0        0.983146    0.124650   -0.127796
      9          8           0        2.347973    0.250000   -0.232761
     10          6           0        3.227249   -0.812475    0.152717
     11          6           0        2.975778   -1.318503    1.560662
     12          8           0        3.167492   -1.907718   -0.730588
     13          8           0       -1.734400   -2.308089   -0.494119
     14          6           0       -3.315400    0.118913    0.177094
     15          8           0       -3.836003    1.193648    0.450703
     16          6           0       -4.182637   -1.107100   -0.023464
     17          1           0        2.127555    2.619999   -1.459572
     18          1           0        1.961641    4.221405   -0.713060
     19          1           0        0.579934    3.480362   -1.545119
     20          1           0        1.889997    2.436256    1.033274
     21          1           0        0.348718    3.289078    0.960456
     22          1           0       -1.687890    2.097409    0.503803
     23          1           0        0.871257   -1.960566   -0.626323
     24          1           0        4.207035   -0.324285    0.089401
     25          1           0        1.990920   -1.783241    1.642134
     26          1           0        3.736023   -2.060247    1.819711
     27          1           0        3.033227   -0.485290    2.266209
     28          1           0        3.367091   -1.571840   -1.619843
     29          1           0       -1.069711   -2.986927   -0.689928
     30          1           0       -4.046852   -1.522519   -1.027047
     31          1           0       -3.906647   -1.901734    0.676904
     32          1           0       -5.223699   -0.815280    0.126700
 ---------------------------------------------------------------------

 SCF Done:  E(UB3LYP) =  -768.095121792     A.U. after   33 cycles
 SCF Done:  E(UB3LYP) =  -768.095121792     a.u. after    1 cycles

 The electronic state is 2-A.
 Alpha  occ. eigenvalues --  -19.04590 -19.03386 -19.02821 -18.95061 -10.17374
 Alpha  occ. eigenvalues --  -10.11714 -10.10337 -10.10030 -10.06783 -10.05929
 Alpha  occ. eigenvalues --  -10.05173 -10.04797 -10.04405 -10.04076 -10.03850
 Alpha  occ. eigenvalues --  -10.03711  -0.97171  -0.95718  -0.91146  -0.88888
 Alpha  occ. eigenvalues --   -0.73124  -0.67134  -0.65879  -0.63187  -0.60858
 Alpha  occ. eigenvalues --   -0.59822  -0.54318  -0.52376  -0.48830  -0.47899
 Alpha  occ. eigenvalues --   -0.44925  -0.42589  -0.41123  -0.39566  -0.36250
 Alpha  occ. eigenvalues --   -0.35137  -0.34563  -0.32503  -0.31986  -0.31812
 Alpha  occ. eigenvalues --   -0.30780  -0.30545  -0.29779  -0.29249  -0.28850
 Alpha  occ. eigenvalues --   -0.28158  -0.27841  -0.27173  -0.26140  -0.25051
 Alpha  occ. eigenvalues --   -0.23696  -0.23153  -0.22850  -0.22719  -0.20591
 Alpha  occ. eigenvalues --   -0.19384  -0.18143  -0.12097  -0.11111  -0.10179
 Alpha  occ. eigenvalues --    0.04124
 Alpha virt. eigenvalues --    0.06374   0.07627   0.08213   0.08443   0.09527
 Alpha virt. eigenvalues --    0.10114   0.10407   0.11425   0.11625   0.11993
 Alpha virt. eigenvalues --    0.12418   0.12691   0.13629   0.13772   0.14144

  Beta  occ. eigenvalues --  -19.04565 -19.03380 -19.02767 -18.94788 -10.17335
  Beta  occ. eigenvalues --  -10.11656 -10.10118 -10.09734 -10.06779 -10.05923
  Beta  occ. eigenvalues --  -10.05171 -10.04884 -10.04417 -10.04092 -10.03805
  Beta  occ. eigenvalues --  -10.03542  -0.97064  -0.95660  -0.91012  -0.88372
  Beta  occ. eigenvalues --   -0.72937  -0.67075  -0.65776  -0.62908  -0.60700
  Beta  occ. eigenvalues --   -0.59692  -0.54176  -0.52307  -0.48724  -0.47612
  Beta  occ. eigenvalues --   -0.44737  -0.42435  -0.40917  -0.39436  -0.36100
  Beta  occ. eigenvalues --   -0.35030  -0.34459  -0.32423  -0.31877  -0.31423
  Beta  occ. eigenvalues --   -0.30679  -0.30476  -0.29699  -0.29167  -0.28636
  Beta  occ. eigenvalues --   -0.27964  -0.27759  -0.27036  -0.26080  -0.24795
  Beta  occ. eigenvalues --   -0.23565  -0.22811  -0.22650  -0.22114  -0.20518
  Beta  occ. eigenvalues --   -0.19082  -0.17756  -0.11429  -0.10863  -0.09506
  Beta virt. eigenvalues --    0.06911   0.07690   0.08320   0.08509   0.09376
  Beta virt. eigenvalues --    0.09635   0.10250   0.10567   0.11410   0.11725
  Beta virt. eigenvalues --    0.11994   0.12636   0.12688   0.13640   0.13865

 Mulliken charges and spin densities:
               1          2
     1  C   -0.409947  -0.235437
     2  C   -0.464326   0.169008
     3  C    0.702031   0.150588
     4  C   -0.343361   0.133031
     5  C    2.504903  -0.324046
     6  C   -0.916462  -0.386561
     7  C   -0.140162  -0.414214
     8  C   -1.671868   1.007237
     9  O   -0.106298   0.033869
    10  C    0.380054  -0.621112
    11  C   -0.208819  -0.195396
    12  O   -0.187123  -0.009623
    13  O   -0.235001   0.016167
    14  C   -0.355615   0.053916
    15  O   -0.347132   0.100667
    16  C   -0.337065  -0.021002
    17  H    0.050813   0.133549
    18  H    0.059340   0.037844
    19  H    0.088466   0.036011
    20  H    0.119625   0.017838
    21  H    0.154785   0.003939
    22  H    0.175072  -0.010537
    23  H    0.264944  -0.083368
    24  H   -0.526857   0.688004
    25  H    0.152984   0.021262
    26  H    0.080775   0.066905
    27  H    0.112110   0.038048
    28  H   -0.229799   0.521262
    29  H    0.204041   0.052152
    30  H    0.127786   0.020360
    31  H    0.143931   0.002607
    32  H    0.158175  -0.002966
 Sum of Mulliken charges =  -1.00000   1.00000

 Dipole moment (field-independent basis, Debye):
    X=              0.5632    Y=             -1.6879    Z=              2.0988  Tot=              2.7516
 Quadrupole moment (field-independent basis, Debye-Ang):
   XX=           -171.0079   YY=           -117.9201   ZZ=           -112.4512
   XY=             13.7399   XZ=             13.4860   YZ=             -2.8630

 Summary of Natural Population Analysis:

                                       Natural Population
                Natural  -----------------------------------------------
    Atom  No    Charge         Core      Valence    Rydberg      Total
 -----------------------------------------------------------------------
      C    1   -0.28428      0.99966     2.27943    0.00518     3.28428
      C    2   -0.19245      0.99961     2.18394    0.00889     3.19245
      C    3   -0.07079      0.99946     2.06050    0.01082     3.07079
      C    4   -0.02805      0.99951     2.02089    0.00766     3.02805
      C    5   -0.10567      0.99943     2.09482    0.01143     3.10567
      C    6    0.18519      0.99937     1.80175    0.01369     2.81481
      C    7   -0.19066      0.99948     2.18182    0.00936     3.19066
      C    8    0.21962      0.99932     1.76751    0.01355     2.78038
      O    9   -0.29358      0.99986     3.28233    0.01139     4.29358
      C   10    0.22045      0.99960     1.76052    0.01943     2.77955
      C   11   -0.30593      0.99963     2.30067    0.00563     3.30593
      O   12   -0.37446      0.99989     3.36749    0.00709     4.37446
      O   13   -0.34130      0.99988     3.33545    0.00598     4.34130
      C   14    0.30230      0.99965     1.67861    0.01943     2.69770
      O   15   -0.28490      0.99988     3.27835    0.00667     4.28490
      C   16   -0.32843      0.99964     2.32448    0.00431     3.32843
      H   17    0.10400      0.00000     0.39475    0.00125     0.39600
      H   18    0.08965      0.00000     0.40952    0.00083     0.41035
      H   19    0.09590      0.00000     0.40322    0.00088     0.40410
      H   20    0.09898      0.00000     0.39988    0.00114     0.40102
      H   21    0.09456      0.00000     0.40437    0.00107     0.40544
      H   22    0.10753      0.00000     0.39133    0.00114     0.39247
      H   23    0.10921      0.00000     0.38936    0.00144     0.39079
      H   24    0.07564      0.00000     0.42208    0.00228     0.42436
      H   25    0.10858      0.00000     0.39054    0.00089     0.39142
      H   26    0.10268      0.00000     0.39662    0.00070     0.39732
      H   27    0.10271      0.00000     0.39661    0.00069     0.39729
      H   28    0.23871      0.00000     0.24916    0.01214     0.26129
      H   29    0.23129      0.00000     0.26622    0.00249     0.26871
      H   30    0.10713      0.00000     0.39089    0.00198     0.39287
      H   31    0.10734      0.00000     0.39182    0.00084     0.39266
      H   32    0.09902      0.00000     0.39975    0.00123     0.40098
 =======================================================================
   * Total *    0.00000     15.99387    43.81465    0.19147    60.00000

 Normal termination of Gaussian 16 at Thu Dec 10 21:53:39 2020.
