 Gaussian 16, Revision A.03,

 -----------------------------------------------------------
 # opt freq B3LYP/6-31G(d) empiricaldispersion=gd3bj scf=xqc
 -----------------------------------------------------------

 ------------------------------
 CID_81124817_JID_6247_neutraal
 ------------------------------
 Symbolic Z-matrix:
 Charge =  0 Multiplicity = 1

 SCF Done:  E(RB3LYP) =  -1101.75927809     A.U. after   15 cycles
 SCF Done:  E(RB3LYP) =  -1101.76440777     A.U. after   12 cycles
 SCF Done:  E(RB3LYP) =  -1101.76486610     A.U. after   12 cycles
 SCF Done:  E(RB3LYP) =  -1101.76506102     A.U. after   12 cycles
 SCF Done:  E(RB3LYP) =  -1101.76533176     A.U. after   11 cycles
 SCF Done:  E(RB3LYP) =  -1101.76574312     A.U. after   12 cycles
 SCF Done:  E(RB3LYP) =  -1101.76578149     A.U. after   15 cycles
 SCF Done:  E(RB3LYP) =  -1101.76646452     A.U. after   12 cycles
 SCF Done:  E(RB3LYP) =  -1101.76663788     A.U. after   10 cycles
 SCF Done:  E(RB3LYP) =  -1101.76679592     A.U. after   12 cycles
 SCF Done:  E(RB3LYP) =  -1101.76689498     A.U. after   10 cycles
 SCF Done:  E(RB3LYP) =  -1101.76689738     A.U. after    9 cycles
 SCF Done:  E(RB3LYP) =  -1101.76689864     A.U. after    9 cycles
 SCF Done:  E(RB3LYP) =  -1101.76689878     A.U. after    7 cycles
 SCF Done:  E(RB3LYP) =  -1101.76689890     A.U. after    7 cycles
 SCF Done:  E(RB3LYP) =  -1101.76689892     A.U. after    7 cycles
 Optimization completed.
    -- Stationary point found.
 Normal termination of Gaussian 16 at Thu Dec 10 21:51:46 2020.

 --------------------------------------------------------------------
 #N Geom=AllCheck Guess=TCheck SCRF=Check GenChk RB3LYP/6-31G(d) Freq
 --------------------------------------------------------------------

 Structure from the checkpoint file:  "JID_6247.chk"
 ------------------------------
 CID_81124817_JID_6247_neutraal
 ------------------------------
 Charge =  0 Multiplicity = 1

 SCF Done:  E(RB3LYP) =  -1101.76689892     A.U. after    1 cycles

  Exact polarizability: 214.034  -6.904 161.350   6.696   5.385  81.813
 Approx polarizability: 311.238 -10.425 269.460  14.813  10.879 127.666

                      1                      2                      3
                      A                      A                      A
 Frequencies --     21.0571                37.6597                53.3424
 Red. masses --      4.0728                 3.1482                 4.6953
 Frc consts  --      0.0011                 0.0026                 0.0079
 IR Inten    --      0.2873                 0.1548                 0.1298

                      4                      5                      6
                      A                      A                      A
 Frequencies --     70.6543                77.8866                83.0983
 Red. masses --      3.8353                 4.0544                 6.5664
 Frc consts  --      0.0113                 0.0145                 0.0267
 IR Inten    --      0.9595                 2.1843                 1.8729

                      7                      8                      9
                      A                      A                      A
 Frequencies --    130.2760               161.0822               209.6799
 Red. masses --      3.5014                 2.1585                 1.9642
 Frc consts  --      0.0350                 0.0330                 0.0509
 IR Inten    --      0.0388                 0.5055                 2.7463

                     10                     11                     12
                      A                      A                      A
 Frequencies --    213.2404               237.2208               266.0183
 Red. masses --      1.5298                 2.9385                 3.4149
 Frc consts  --      0.0410                 0.0974                 0.1424
 IR Inten    --      0.6673                 1.5208                 2.6049

                     13                     14                     15
                      A                      A                      A
 Frequencies --    291.3856               295.5985               342.0322
 Red. masses --      3.6900                 2.6229                 4.7559
 Frc consts  --      0.1846                 0.1350                 0.3278
 IR Inten    --      0.1548                 2.0840                 1.7406

                     16                     17                     18
                      A                      A                      A
 Frequencies --    360.0438               419.4436               434.9824
 Red. masses --      3.5354                 2.4950                 5.7720
 Frc consts  --      0.2700                 0.2586                 0.6435
 IR Inten    --      2.1829                 1.5331                 2.2650

                     19                     20                     21
                      A                      A                      A
 Frequencies --    460.5008               501.0360               512.0912
 Red. masses --      7.2449                 4.0684                 3.0168
 Frc consts  --      0.9052                 0.6017                 0.4661
 IR Inten    --      1.6455                 0.4125                 5.2641

                     22                     23                     24
                      A                      A                      A
 Frequencies --    592.1005               620.4043               654.0174
 Red. masses --      5.9443                 2.3766                 4.3472
 Frc consts  --      1.2278                 0.5389                 1.0956
 IR Inten    --      4.6126                 8.0199                 4.8215

                     25                     26                     27
                      A                      A                      A
 Frequencies --    705.6718               729.3362               739.1410
 Red. masses --      3.4249                 5.4397                 1.9799
 Frc consts  --      1.0049                 1.7048                 0.6373
 IR Inten    --      0.5332                12.5176                29.9088

                     28                     29                     30
                      A                      A                      A
 Frequencies --    774.4439               806.5343               852.0034
 Red. masses --      4.3740                 1.8483                 1.4976
 Frc consts  --      1.5457                 0.7084                 0.6405
 IR Inten    --     12.5296               127.0559                11.3681

                     31                     32                     33
                      A                      A                      A
 Frequencies --    852.5890               877.8292               905.3372
 Red. masses --      1.8157                 4.1374                 9.5313
 Frc consts  --      0.7776                 1.8785                 4.6028
 IR Inten    --     30.2131                10.1165                 8.9438

                     34                     35                     36
                      A                      A                      A
 Frequencies --    923.8971               940.0311               981.2498
 Red. masses --      7.1851                 2.9489                 4.9761
 Frc consts  --      3.6135                 1.5353                 2.8229
 IR Inten    --     31.2882                23.4544                11.8283

                     37                     38                     39
                      A                      A                      A
 Frequencies --   1003.7609              1028.4506              1044.3771
 Red. masses --      1.8258                 4.4330                 2.1823
 Frc consts  --      1.0838                 2.7626                 1.4024
 IR Inten    --      4.7405                 4.9421                 8.7172

                     40                     41                     42
                      A                      A                      A
 Frequencies --   1079.9073              1118.5798              1146.7674
 Red. masses --      2.4588                 5.5538                 2.0695
 Frc consts  --      1.6895                 4.0943                 1.6035
 IR Inten    --     48.8644                23.9019                15.9430

                     43                     44                     45
                      A                      A                      A
 Frequencies --   1173.3064              1186.2521              1195.7210
 Red. masses --      1.3973                 1.2634                 1.7370
 Frc consts  --      1.1333                 1.0475                 1.4632
 IR Inten    --     17.4931                 0.6836                11.2654

                     46                     47                     48
                      A                      A                      A
 Frequencies --   1209.3384              1231.6488              1238.9074
 Red. masses --      1.5236                 1.6772                 1.5292
 Frc consts  --      1.3129                 1.4990                 1.3829
 IR Inten    --     28.4307                53.4788                25.7534

                     49                     50                     51
                      A                      A                      A
 Frequencies --   1254.5033              1302.4118              1325.1960
 Red. masses --      2.1464                 5.8862                 1.4548
 Frc consts  --      1.9903                 5.8828                 1.5052
 IR Inten    --    105.9451                 6.8158                10.1943

                     52                     53                     54
                      A                      A                      A
 Frequencies --   1359.7195              1394.3262              1413.6429
 Red. masses --      1.6587                 1.3548                 2.4387
 Frc consts  --      1.8068                 1.5518                 2.8713
 IR Inten    --     84.6262                34.7604                33.5394

                     55                     56                     57
                      A                      A                      A
 Frequencies --   1442.8145              1465.1249              1479.3504
 Red. masses --      4.9981                 2.9942                 1.1852
 Frc consts  --      6.1302                 3.7868                 1.5283
 IR Inten    --    118.9171               141.1536                 9.0970

                     58                     59                     60
                      A                      A                      A
 Frequencies --   1496.7733              1509.8159              1513.4679
 Red. masses --      1.1238                 1.3386                 1.3318
 Frc consts  --      1.4834                 1.7978                 1.7973
 IR Inten    --     11.6067                 2.0533                 8.3410

                     61                     62                     63
                      A                      A                      A
 Frequencies --   1521.2104              1522.0633              1533.9613
 Red. masses --      1.0478                 1.0711                 1.0544
 Frc consts  --      1.4286                 1.4620                 1.4618
 IR Inten    --      6.2770                10.6312                36.9891

                     64                     65                     66
                      A                      A                      A
 Frequencies --   1535.7466              1558.5680              1568.7560
 Red. masses --      1.1661                 1.1105                 5.1706
 Frc consts  --      1.6204                 1.5893                 7.4973
 IR Inten    --     22.8777                13.1845                87.4519

                     67                     68                     69
                      A                      A                      A
 Frequencies --   1599.6103              1643.5438              2972.9342
 Red. masses --      6.5885                 7.9850                 1.0574
 Frc consts  --      9.9327                12.7083                 5.5065
 IR Inten    --    237.8318               128.3749                70.7470

                     70                     71                     72
                      A                      A                      A
 Frequencies --   3030.2856              3046.8800              3066.9505
 Red. masses --      1.0347                 1.0599                 1.0655
 Frc consts  --      5.5978                 5.7974                 5.9052
 IR Inten    --     42.8542                47.6988                 9.4091

                     73                     74                     75
                      A                      A                      A
 Frequencies --   3070.8846              3091.1305              3092.0028
 Red. masses --      1.0758                 1.1071                 1.1019
 Frc consts  --      5.9776                 6.2328                 6.2069
 IR Inten    --     59.3355                38.3530                41.1388

                     76                     77                     78
                      A                      A                      A
 Frequencies --   3115.0179              3118.7257              3167.5271
 Red. masses --      1.1023                 1.1020                 1.1001
 Frc consts  --      6.3020                 6.3150                 6.5030
 IR Inten    --     33.7811                12.5313                25.4371

                     79                     80                     81
                      A                      A                      A
 Frequencies --   3262.1776              3285.6724              3504.6227
 Red. masses --      1.0930                 1.0937                 1.0732
 Frc consts  --      6.8530                 6.9568                 7.7663
 IR Inten    --      0.4100                 3.9640                 9.4947

 - Thermochemistry -
 -------------------
 Temperature   298.150 Kelvin.  Pressure   1.00000 Atm.
 Atom     1 has atomic number  6 and mass  12.00000

 Molecular mass:   239.07285 amu.
 Principal axes and moments of inertia in atomic units:
                           1         2         3
     Eigenvalues --  2442.522926959.256059161.24712
           X            1.00000   0.00245   0.00087
           Y           -0.00245   0.99996   0.00838
           Z           -0.00085  -0.00838   0.99996
 This molecule is an asymmetric top.
 Rotational symmetry number  1.
 Warning -- assumption of classical behavior for rotation
           may cause significant error
 Rotational temperatures (Kelvin)      0.03546     0.01245     0.00945
 Rotational constants (GHZ):           0.73888     0.25933     0.19700
 Zero-point vibrational energy     604445.2 (Joules/Mol)
                                  144.46588 (Kcal/Mol)
 Warning -- explicit consideration of  23 degrees of freedom as
           vibrations may cause significant error
 Vibrational temperatures:     30.30    54.18    76.75   101.66   112.06
          (Kelvin)            119.56   187.44   231.76   301.68   306.81
                              341.31   382.74   419.24   425.30   492.11
                              518.02   603.49   625.84   662.56   720.88
                              736.78   851.90   892.62   940.99  1015.30
                             1049.35  1063.46  1114.25  1160.42  1225.84
                             1226.69  1263.00  1302.58  1329.28  1352.50
                             1411.80  1444.19  1479.71  1502.63  1553.75
                             1609.39  1649.94  1688.13  1706.75  1720.38
                             1739.97  1772.07  1782.51  1804.95  1873.88
                             1906.66  1956.33  2006.12  2033.92  2075.89
                             2107.99  2128.46  2153.52  2172.29  2177.54
                             2188.68  2189.91  2207.03  2209.60  2242.43
                             2257.09  2301.48  2364.69  4277.39  4359.91
                             4383.78  4412.66  4418.32  4447.45  4448.70
                             4481.82  4487.15  4557.37  4693.55  4727.35
                             5042.37

 Zero-point correction=                           0.230221 (Hartree/Particle)
 Thermal correction to Energy=                    0.245858
 Thermal correction to Enthalpy=                  0.246803
 Thermal correction to Gibbs Free Energy=         0.184715
 Sum of electronic and zero-point Energies=          -1101.536678
 Sum of electronic and thermal Energies=             -1101.521041
 Sum of electronic and thermal Enthalpies=           -1101.520096
 Sum of electronic and thermal Free Energies=        -1101.582184

                     E (Thermal)             CV                S
                      KCal/Mol        Cal/Mol-Kelvin    Cal/Mol-Kelvin
 Total                  154.278             56.856            130.674
 Electronic               0.000              0.000              0.000
 Translational            0.889              2.981             42.316
 Rotational               0.889              2.981             33.409
 Vibrational            152.501             50.895             54.949
 Vibration     1          0.593              1.985              6.532
 Vibration     2          0.594              1.982              5.379
 Vibration     3          0.596              1.976              4.689
 Vibration     4          0.598              1.968              4.135
 Vibration     5          0.599              1.964              3.943
 Vibration     6          0.600              1.961              3.816
 Vibration     7          0.612              1.923              2.942
 Vibration     8          0.622              1.890              2.537
 Vibration     9          0.642              1.826              2.046
 Vibration    10          0.644              1.821              2.016
 Vibration    11          0.656              1.784              1.824
 Vibration    12          0.672              1.735              1.622
 Vibration    13          0.687              1.690              1.466
 Vibration    14          0.690              1.682              1.442
 Vibration    15          0.721              1.591              1.203
 Vibration    16          0.735              1.555              1.122
 Vibration    17          0.782              1.428              0.894
 Vibration    18          0.796              1.394              0.843
 Vibration    19          0.818              1.338              0.765
 Vibration    20          0.856              1.248              0.656
 Vibration    21          0.867              1.223              0.629
 Vibration    22          0.950              1.049              0.463
 Vibration    23          0.980              0.989              0.416

 Optimization completed.
    -- Stationary point found.
 Normal termination of Gaussian 16 at Thu Dec 10 21:59:44 2020.

 ----------------------------------------------------------------------
 # B3LYP/6-311++G(d,p) empiricaldispersion=gd3bj scf=xqc pop=npa geom=c
 heck
 ----------------------------------------------------------------------

 --------------------------------------
 CID_81124817_JID_6247_Energie_neutraal
 --------------------------------------
 Structure from the checkpoint file:  "JID_6247.chk"
 Charge =  0 Multiplicity = 1

 SCF Done:  E(RB3LYP) =  -1101.98611170     A.U. after   16 cycles
 Normal termination of Gaussian 16 at Thu Dec 10 22:04:16 2020.

 ----------------------------------------------------------------------
 # B3LYP/6-311++G(d,p) empiricaldispersion=gd3bj scf=xqc pop=npa geom=c
 heck
 ----------------------------------------------------------------------

 ------------------------------------
 CID_81124817_JID_6247_Energie_kation
 ------------------------------------
 Structure from the checkpoint file:  "JID_6247.chk"
 Charge =  1 Multiplicity = 2

 SCF Done:  E(UB3LYP) =  -1101.70199882     A.U. after   25 cycles
 Normal termination of Gaussian 16 at Thu Dec 10 22:15:58 2020.
 Gaussian 16:  ES64L-G16RevA.03 25-Dec-2016

 ----------------------------------------------------------------------
 # B3LYP/6-311++G(d,p) empiricaldispersion=gd3bj scf=xqc pop=npa geom=c
 heck
 ----------------------------------------------------------------------

 -----------------------------------
 CID_81124817_JID_6247_Energie_anion
 -----------------------------------
 Structure from the checkpoint file:  "JID_6247.chk"
 Charge = -1 Multiplicity = 2

                         Standard orientation:
 ---------------------------------------------------------------------
 Center     Atomic      Atomic             Coordinates (Angstroms)
 Number     Number       Type             X           Y           Z
 ---------------------------------------------------------------------
      1          6           0        3.575460    2.579829    0.367005
      2          7           0        3.382466    1.713437   -0.789475
      3          6           0        4.099150    0.448973   -0.716357
      4          6           0        3.702703   -0.519517    0.432502
      5          6           0        2.297121   -1.002162    0.308373
      6          7           0        1.998118   -2.274265    0.184629
      7          8           0        0.587419   -2.266775    0.067972
      8          6           0        0.203947   -0.979154    0.130243
      9          7           0        1.209358   -0.151063    0.278529
     10          6           0       -1.194277   -0.656470    0.034295
     11          6           0       -1.734069    0.610777    0.097757
     12          6           0       -3.152748    0.598307   -0.030557
     13          6           0       -3.659585   -0.674309   -0.188564
     14         16           0       -2.419005   -1.874821   -0.183268
     15          8           0       -3.980644    1.673854   -0.009301
     16          6           0       -3.370264    2.946924    0.158831
     17          1           0        4.642937    2.807272    0.474536
     18          1           0        3.218596    2.165752    1.326473
     19          1           0        3.049971    3.525483    0.197461
     20          1           0        2.387749    1.518352   -0.886527
     21          1           0        3.969067   -0.073324   -1.671772
     22          1           0        5.169408    0.668852   -0.615432
     23          1           0        4.368846   -1.387865    0.432042
     24          1           0        3.820243   -0.014871    1.398507
     25          1           0       -1.118714    1.489937    0.232450
     26          1           0       -4.698328   -0.946637   -0.305669
     27          1           0       -2.834683    3.009901    1.114866
     28          1           0       -2.675581    3.168301   -0.661663
     29          1           0       -4.183847    3.673393    0.150700
 ---------------------------------------------------------------------

 SCF Done:  E(UB3LYP) =  -1102.00770871     A.U. after   22 cycles

 The electronic state is 2-A.
 Alpha  occ. eigenvalues --  -88.72155 -19.04538 -19.03364 -14.20508 -14.18873
 Alpha  occ. eigenvalues --  -14.15482 -10.12006 -10.10413 -10.09390 -10.09387
 Alpha  occ. eigenvalues --  -10.09142 -10.08874 -10.06823 -10.04787 -10.03353
 Alpha  occ. eigenvalues --  -10.02066  -7.80805  -5.77114  -5.76754  -5.76402
 Alpha  occ. eigenvalues --   -0.99978  -0.94901  -0.80227  -0.77927  -0.74208
 Alpha  occ. eigenvalues --   -0.71393  -0.64713  -0.62530  -0.59222  -0.57841
 Alpha  occ. eigenvalues --   -0.56251  -0.51492  -0.49111  -0.45559  -0.42812
 Alpha  occ. eigenvalues --   -0.41668  -0.39563  -0.39047  -0.35972  -0.35364
 Alpha  occ. eigenvalues --   -0.35092  -0.34110  -0.33762  -0.31944  -0.30532
 Alpha  occ. eigenvalues --   -0.29818  -0.28766  -0.27522  -0.26774  -0.26133
 Alpha  occ. eigenvalues --   -0.25662  -0.24900  -0.23722  -0.21823  -0.20663
 Alpha  occ. eigenvalues --   -0.20643  -0.18956  -0.17922  -0.15676  -0.15021
 Alpha  occ. eigenvalues --   -0.12033  -0.10655  -0.07770   0.03855
 Alpha virt. eigenvalues --    0.07190   0.07707   0.09129   0.09970   0.10216
 Alpha virt. eigenvalues --    0.10523   0.11719   0.11959   0.12435   0.13321
 Alpha virt. eigenvalues --    0.13368   0.13763   0.14521   0.14916   0.15396

  Beta  occ. eigenvalues --  -88.72083 -19.04236 -19.03395 -14.20267 -14.18868
  Beta  occ. eigenvalues --  -14.15351 -10.11999 -10.10090 -10.09436 -10.09390
  Beta  occ. eigenvalues --  -10.09272 -10.08874 -10.06822 -10.04659 -10.02966
  Beta  occ. eigenvalues --  -10.01763  -7.80740  -5.77082  -5.76723  -5.76164
  Beta  occ. eigenvalues --   -0.99499  -0.94963  -0.80187  -0.77626  -0.73769
  Beta  occ. eigenvalues --   -0.71019  -0.64642  -0.62460  -0.58584  -0.57803
  Beta  occ. eigenvalues --   -0.55857  -0.51459  -0.48486  -0.45360  -0.42662
  Beta  occ. eigenvalues --   -0.41408  -0.39457  -0.38869  -0.35987  -0.35284
  Beta  occ. eigenvalues --   -0.35015  -0.33636  -0.33139  -0.31800  -0.30225
  Beta  occ. eigenvalues --   -0.29681  -0.28648  -0.27410  -0.26645  -0.26011
  Beta  occ. eigenvalues --   -0.25141  -0.24724  -0.23636  -0.21694  -0.20329
  Beta  occ. eigenvalues --   -0.19985  -0.18611  -0.16750  -0.14914  -0.14137
  Beta  occ. eigenvalues --   -0.11858  -0.09117  -0.06202
  Beta virt. eigenvalues --    0.07166   0.07683   0.09097   0.09823   0.10033
  Beta virt. eigenvalues --    0.10209   0.10510   0.11734   0.11968   0.12412
  Beta virt. eigenvalues --    0.13301   0.13420   0.13759   0.14534   0.15402

 Mulliken charges and spin densities:
               1          2
     1  C   -0.444266   0.002974
     2  N   -0.114557  -0.005842
     3  C   -0.398825   0.007391
     4  C    0.129297   0.005771
     5  C    0.714292  -0.024782
     6  N   -0.425521   0.112159
     7  O    0.151412   0.068543
     8  C   -0.819290   0.172496
     9  N   -0.092166   0.068843
    10  C   -0.804730   0.002258
    11  C    1.129153   0.339925
    12  C   -1.589804  -0.095275
    13  C    0.579408   0.256168
    14  S   -0.547980   0.115600
    15  O   -0.183384  -0.000888
    16  C   -0.287307  -0.005885
    17  H    0.126364  -0.000181
    18  H    0.127254   0.001385
    19  H    0.126310   0.000334
    20  H    0.246720   0.008288
    21  H    0.157553  -0.002110
    22  H    0.130264   0.003706
    23  H    0.157786  -0.000358
    24  H    0.143400  -0.001352
    25  H    0.181547  -0.018670
    26  H    0.204563  -0.020602
    27  H    0.125439   0.005112
    28  H    0.126152   0.005336
    29  H    0.150914  -0.000345
 Sum of Mulliken charges =  -1.00000   1.00000

 Dipole moment (field-independent basis, Debye):
    X=              2.1145    Y=              4.9123    Z=              0.8314  Tot=              5.4123
 Quadrupole moment (field-independent basis, Debye-Ang):
   XX=           -141.0761   YY=           -124.8611   ZZ=           -112.7662
   XY=             -1.7563   XZ=              3.1225   YZ=              3.7348

 Summary of Natural Population Analysis:

                                       Natural Population
                Natural  -----------------------------------------------
    Atom  No    Charge         Core      Valence    Rydberg      Total
 -----------------------------------------------------------------------
      C    1   -0.18025      0.99967     2.17305    0.00752     3.18025
      N    2   -0.34683      0.99976     2.83457    0.01251     3.84683
      C    3   -0.08144      0.99964     2.07036    0.01145     3.08144
      C    4   -0.21712      0.99958     2.21005    0.00749     3.21712
      C    5    0.15256      0.99965     1.82852    0.01927     2.84744
      N    6   -0.08215      0.99966     2.57018    0.01231     3.58215
      O    7   -0.15280      0.99985     3.14120    0.01174     4.15280
      C    8    0.31736      0.99954     1.66494    0.01816     2.68264
      N    9   -0.28860      0.99966     2.77740    0.01153     3.78860
      C   10   -0.11078      0.99935     2.09946    0.01197     3.11078
      C   11   -0.08774      0.99948     2.07889    0.00937     3.08774
      C   12    0.09654      0.99934     1.89140    0.01271     2.90346
      C   13   -0.15129      0.99953     2.13953    0.01223     3.15129
      S   14    0.23408      4.99943     2.74562    0.02087     7.76592
      O   15   -0.28280      0.99985     3.27282    0.01013     4.28280
      C   16   -0.09786      0.99961     2.08989    0.00836     3.09786
      H   17    0.08296      0.00000     0.41593    0.00110     0.41704
      H   18    0.08184      0.00000     0.41654    0.00162     0.41816
      H   19    0.09114      0.00000     0.40787    0.00098     0.40886
      H   20    0.19068      0.00000     0.30721    0.00211     0.30932
      H   21    0.09410      0.00000     0.40475    0.00115     0.40590
      H   22    0.08295      0.00000     0.41581    0.00124     0.41705
      H   23    0.10594      0.00000     0.39270    0.00136     0.39406
      H   24    0.09985      0.00000     0.39891    0.00124     0.40015
      H   25    0.10429      0.00000     0.39460    0.00112     0.39571
      H   26    0.09817      0.00000     0.40081    0.00102     0.40183
      H   27    0.08159      0.00000     0.41682    0.00159     0.41841
      H   28    0.08174      0.00000     0.41667    0.00159     0.41826
      H   29    0.08392      0.00000     0.41524    0.00084     0.41608
 =======================================================================
   * Total *    0.00006     19.99361    42.79174    0.21460    62.99994

 Normal termination of Gaussian 16 at Thu Dec 10 22:24:38 2020.
