 Gaussian 16, Revision A.03,

 -----------------------------------------------------------
 # opt freq B3LYP/6-31G(d) empiricaldispersion=gd3bj scf=xqc
 -----------------------------------------------------------

 -------------------------------
 CID_112489720_JID_2838_neutraal
 -------------------------------
 Symbolic Z-matrix:
 Charge =  0 Multiplicity = 1

 SCF Done:  E(RB3LYP) =  -536.142453602     A.U. after   14 cycles
 SCF Done:  E(RB3LYP) =  -536.143890459     A.U. after   12 cycles
 SCF Done:  E(RB3LYP) =  -536.143844080     A.U. after   12 cycles
 SCF Done:  E(RB3LYP) =  -536.144154160     A.U. after   11 cycles
 SCF Done:  E(RB3LYP) =  -536.144344004     A.U. after   11 cycles
 SCF Done:  E(RB3LYP) =  -536.144346078     A.U. after   11 cycles
 SCF Done:  E(RB3LYP) =  -536.144368607     A.U. after   10 cycles
 SCF Done:  E(RB3LYP) =  -536.144371806     A.U. after    8 cycles
 SCF Done:  E(RB3LYP) =  -536.144373208     A.U. after    8 cycles
 SCF Done:  E(RB3LYP) =  -536.144373717     A.U. after    8 cycles
 SCF Done:  E(RB3LYP) =  -536.144373838     A.U. after    7 cycles
 Optimization completed.
    -- Stationary point found.
 Normal termination of Gaussian 16 at Wed Dec  9 18:04:28 2020.

 --------------------------------------------------------------------
 #N Geom=AllCheck Guess=TCheck SCRF=Check GenChk RB3LYP/6-31G(d) Freq
 --------------------------------------------------------------------

 Structure from the checkpoint file:  "JID_2838.chk"
 -------------------------------
 CID_112489720_JID_2838_neutraal
 -------------------------------
 Charge =  0 Multiplicity = 1

 SCF Done:  E(RB3LYP) =  -536.144373838     A.U. after    1 cycles

  Exact polarizability: 123.170   1.829 109.468 -16.886   4.485  80.653
 Approx polarizability: 176.245   8.588 181.869 -35.253   9.844 125.924

                      1                      2                      3
                      A                      A                      A
 Frequencies --     47.3031                80.7419                93.4930
 Red. masses --      4.0128                 4.8362                 3.1684
 Frc consts  --      0.0053                 0.0186                 0.0163
 IR Inten    --      0.3199                 1.8947                 0.2244

                      4                      5                      6
                      A                      A                      A
 Frequencies --    136.9991               209.1272               247.9558
 Red. masses --      4.1802                 4.0374                 1.3966
 Frc consts  --      0.0462                 0.1040                 0.0506
 IR Inten    --      2.0973                10.8458                 4.2584

                      7                      8                      9
                      A                      A                      A
 Frequencies --    266.5875               270.7246               296.3688
 Red. masses --      2.1906                 1.6058                 2.1199
 Frc consts  --      0.0917                 0.0693                 0.1097
 IR Inten    --     15.8614                59.3834                76.2474

                     10                     11                     12
                      A                      A                      A
 Frequencies --    354.5114               372.4802               394.8304
 Red. masses --      2.5441                 2.1556                 2.6274
 Frc consts  --      0.1884                 0.1762                 0.2413
 IR Inten    --      1.2246                27.8269                 3.6939

                     13                     14                     15
                      A                      A                      A
 Frequencies --    436.2156               450.4232               498.0587
 Red. masses --      1.6655                 2.0353                 3.8724
 Frc consts  --      0.1867                 0.2433                 0.5660
 IR Inten    --     19.1004                26.3623                 1.4246

                     16                     17                     18
                      A                      A                      A
 Frequencies --    529.2789               558.9334               687.9435
 Red. masses --      2.2256                 3.4269                 6.5560
 Frc consts  --      0.3673                 0.6308                 1.8281
 IR Inten    --     50.4674                 5.2042                 1.7710

                     19                     20                     21
                      A                      A                      A
 Frequencies --    713.1739               731.1648               775.4360
 Red. masses --      2.7131                 3.6891                 3.1675
 Frc consts  --      0.8130                 1.1620                 1.1222
 IR Inten    --     39.4058                 5.6675                11.1853

                     22                     23                     24
                      A                      A                      A
 Frequencies --    824.3687               837.6427               874.4852
 Red. masses --      1.8201                 1.4861                 2.3778
 Frc consts  --      0.7288                 0.6144                 1.0713
 IR Inten    --      7.3372               108.3201                42.1571

                     25                     26                     27
                      A                      A                      A
 Frequencies --    900.6762               917.1236               928.7237
 Red. masses --      1.2455                 2.0219                 2.0151
 Frc consts  --      0.5953                 1.0020                 1.0240
 IR Inten    --      0.5786                 7.4273                 6.7827

                     28                     29                     30
                      A                      A                      A
 Frequencies --    981.0591               995.9642              1009.2248
 Red. masses --      1.3027                 1.4529                 1.9896
 Frc consts  --      0.7387                 0.8491                 1.1940
 IR Inten    --      0.3680                 0.6559                14.0362

                     31                     32                     33
                      A                      A                      A
 Frequencies --   1015.4593              1017.0307              1077.3435
 Red. masses --      4.6288                 1.5115                 2.4264
 Frc consts  --      2.8122                 0.9211                 1.6593
 IR Inten    --      9.9744                11.6449                53.7931

                     34                     35                     36
                      A                      A                      A
 Frequencies --   1102.9277              1109.6772              1123.2180
 Red. masses --      2.0842                 2.0404                 1.5621
 Frc consts  --      1.4938                 1.4803                 1.1611
 IR Inten    --      5.5200                15.4299                 7.9911

                     37                     38                     39
                      A                      A                      A
 Frequencies --   1175.3901              1215.4151              1243.5107
 Red. masses --      1.6706                 1.4156                 2.3467
 Frc consts  --      1.3598                 1.2321                 2.1380
 IR Inten    --     17.8303                 8.9476                 2.4357

                     40                     41                     42
                      A                      A                      A
 Frequencies --   1258.9527              1265.7131              1278.4268
 Red. masses --      1.3304                 1.4397                 1.8798
 Frc consts  --      1.2424                 1.3589                 1.8101
 IR Inten    --      6.0040                13.2288                 3.1175

                     43                     44                     45
                      A                      A                      A
 Frequencies --   1313.8667              1339.6647              1362.5872
 Red. masses --      2.9729                 1.7707                 1.3468
 Frc consts  --      3.0236                 1.8724                 1.4733
 IR Inten    --      5.5114                 7.1950                11.9160

                     46                     47                     48
                      A                      A                      A
 Frequencies --   1383.7724              1400.9679              1433.6871
 Red. masses --      1.2778                 1.3764                 1.2263
 Frc consts  --      1.4416                 1.5917                 1.4851
 IR Inten    --      1.1726                 2.3056                 9.2701

                     49                     50                     51
                      A                      A                      A
 Frequencies --   1442.5000              1448.7091              1462.9761
 Red. masses --      1.2435                 1.3175                 2.0464
 Frc consts  --      1.5245                 1.6292                 2.5806
 IR Inten    --     32.7197                13.5541                27.0444

                     52                     53                     54
                      A                      A                      A
 Frequencies --   1511.5009              1519.6714              1535.1712
 Red. masses --      1.0969                 1.0499                 1.0630
 Frc consts  --      1.4765                 1.4285                 1.4760
 IR Inten    --     10.1187                 1.5194                 4.0532

                     55                     56                     57
                      A                      A                      A
 Frequencies --   1543.9240              1615.5413              1654.8794
 Red. masses --      2.1212                 6.5009                 5.3128
 Frc consts  --      2.9791                 9.9968                 8.5724
 IR Inten    --      4.6594                16.8866                61.4817

                     58                     59                     60
                      A                      A                      A
 Frequencies --   1692.5654              3046.9963              3053.9230
 Red. masses --      1.0994                 1.0827                 1.0397
 Frc consts  --      1.8556                 5.9225                 5.7132
 IR Inten    --      9.9830                11.1258                17.7822

                     61                     62                     63
                      A                      A                      A
 Frequencies --   3060.4949              3074.3004              3109.0751
 Red. masses --      1.0692                 1.0783                 1.1026
 Frc consts  --      5.9005                 6.0043                 6.2793
 IR Inten    --     12.2021                58.3097                24.0702

                     64                     65                     66
                      A                      A                      A
 Frequencies --   3116.9241              3142.0035              3171.5567
 Red. masses --      1.1009                 1.1010                 1.0872
 Frc consts  --      6.3013                 6.4041                 6.4435
 IR Inten    --     40.6572                25.0866                28.6921

                     67                     68                     69
                      A                      A                      A
 Frequencies --   3173.6329              3199.3447              3209.7419
 Red. masses --      1.0904                 1.0936                 1.0934
 Frc consts  --      6.4709                 6.5953                 6.6371
 IR Inten    --     19.5033                17.8533                 5.4249

                     70                     71                     72
                      A                      A                      A
 Frequencies --   3492.5185              3588.0577              3707.7102
 Red. masses --      1.0481                 1.0941                 1.0649
 Frc consts  --      7.5324                 8.2987                 8.6251
 IR Inten    --      2.3773                 7.5267                 9.2404

 - Thermochemistry -
 -------------------
 Temperature   298.150 Kelvin.  Pressure   1.00000 Atm.
 Atom     1 has atomic number  6 and mass  12.00000

 Molecular mass:   166.11061 amu.
 Principal axes and moments of inertia in atomic units:
                           1         2         3
     Eigenvalues --  1152.732442736.808003105.09450
           X            0.99969  -0.02348  -0.00796
           Y            0.02368   0.99938   0.02603
           Z            0.00734  -0.02621   0.99963
 This molecule is an asymmetric top.
 Rotational symmetry number  1.
 Warning -- assumption of classical behavior for rotation
           may cause significant error
 Rotational temperatures (Kelvin)      0.07514     0.03165     0.02789
 Rotational constants (GHZ):           1.56562     0.65943     0.58122
 Zero-point vibrational energy     592823.5 (Joules/Mol)
                                  141.68822 (Kcal/Mol)
 Warning -- explicit consideration of  17 degrees of freedom as
           vibrations may cause significant error
 Vibrational temperatures:     68.06   116.17   134.52   197.11   300.89
          (Kelvin)            356.75   383.56   389.51   426.41   510.06
                              535.92   568.07   627.62   648.06   716.60
                              761.51   804.18   989.80  1026.10  1051.98
                             1115.68  1186.08  1205.18  1258.19  1295.87
                             1319.54  1336.23  1411.53  1432.97  1452.05
                             1461.02  1463.28  1550.06  1586.87  1596.58
                             1616.06  1691.12  1748.71  1789.13  1811.35
                             1821.08  1839.37  1890.36  1927.48  1960.46
                             1990.94  2015.68  2062.76  2075.44  2084.37
                             2104.90  2174.71  2186.47  2208.77  2221.36
                             2324.40  2381.00  2435.22  4383.95  4393.91
                             4403.37  4423.23  4473.27  4484.56  4520.64
                             4563.16  4566.15  4603.14  4618.10  5024.96
                             5162.41  5334.57

 Zero-point correction=                           0.225795 (Hartree/Particle)
 Thermal correction to Energy=                    0.237420
 Thermal correction to Enthalpy=                  0.238364
 Thermal correction to Gibbs Free Energy=         0.188310
 Sum of electronic and zero-point Energies=           -535.918579
 Sum of electronic and thermal Energies=              -535.906954
 Sum of electronic and thermal Enthalpies=            -535.906009
 Sum of electronic and thermal Free Energies=         -535.956064

                     E (Thermal)             CV                S
                      KCal/Mol        Cal/Mol-Kelvin    Cal/Mol-Kelvin
 Total                  148.983             45.129            105.349
 Electronic               0.000              0.000              0.000
 Translational            0.889              2.981             41.231
 Rotational               0.889              2.981             30.661
 Vibrational            147.206             39.167             33.457
 Vibration     1          0.595              1.979              4.927
 Vibration     2          0.600              1.962              3.873
 Vibration     3          0.603              1.954              3.586
 Vibration     4          0.614              1.916              2.845
 Vibration     5          0.642              1.827              2.051
 Vibration     6          0.662              1.766              1.745
 Vibration     7          0.672              1.734              1.618
 Vibration     8          0.674              1.727              1.592
 Vibration     9          0.690              1.681              1.437
 Vibration    10          0.730              1.566              1.146
 Vibration    11          0.744              1.529              1.070
 Vibration    12          0.762              1.481              0.982
 Vibration    13          0.797              1.391              0.839
 Vibration    14          0.809              1.360              0.794
 Vibration    15          0.854              1.254              0.663
 Vibration    16          0.884              1.185              0.589
 Vibration    17          0.915              1.120              0.526

 Optimization completed.
    -- Stationary point found.
 Normal termination of Gaussian 16 at Wed Dec  9 18:10:48 2020.

 ----------------------------------------------------------------------
 # B3LYP/6-311++G(d,p) empiricaldispersion=gd3bj scf=xqc pop=npa geom=c
 heck
 ----------------------------------------------------------------------

 ---------------------------------------
 CID_112489720_JID_2838_Energie_neutraal
 ---------------------------------------
 Structure from the checkpoint file:  "JID_2838.chk"
 Charge =  0 Multiplicity = 1

 SCF Done:  E(RB3LYP) =  -536.307173813     A.U. after   14 cycles
 Normal termination of Gaussian 16 at Wed Dec  9 18:14:10 2020.

 ----------------------------------------------------------------------
 # B3LYP/6-311++G(d,p) empiricaldispersion=gd3bj scf=xqc pop=npa geom=c
 heck
 ----------------------------------------------------------------------

 -------------------------------------
 CID_112489720_JID_2838_Energie_kation
 -------------------------------------
 Structure from the checkpoint file:  "JID_2838.chk"
 Charge =  1 Multiplicity = 2

 SCF Done:  E(UB3LYP) =  -535.985606083     A.U. after   33 cycles
 SCF Done:  E(UB3LYP) =  -535.985606083     a.u. after    1 cycles
 Normal termination of Gaussian 16 at Wed Dec  9 18:21:25 2020.
 Gaussian 16:  ES64L-G16RevA.03 25-Dec-2016

 ----------------------------------------------------------------------
 # B3LYP/6-311++G(d,p) empiricaldispersion=gd3bj scf=xqc pop=npa geom=c
 heck
 ----------------------------------------------------------------------

 ------------------------------------
 CID_112489720_JID_2838_Energie_anion
 ------------------------------------
 Structure from the checkpoint file:  "JID_2838.chk"
 Charge = -1 Multiplicity = 2

                         Standard orientation:
 ---------------------------------------------------------------------
 Center     Atomic      Atomic             Coordinates (Angstroms)
 Number     Number       Type             X           Y           Z
 ---------------------------------------------------------------------
      1          6           0        2.600535   -1.574391   -0.280587
      2          6           0        2.244870   -0.312520    0.507086
      3          6           0        1.748751    0.839625   -0.407267
      4          6           0        0.604827    0.495578   -1.397462
      5          6           0       -0.719538    0.173599   -0.751909
      6          6           0       -1.508075    1.180020   -0.176459
      7          6           0       -2.706273    0.836447    0.448449
      8          7           0       -3.174989   -0.415057    0.533101
      9          6           0       -2.430561   -1.371790   -0.035790
     10          6           0       -1.217094   -1.133184   -0.680539
     11          8           0        1.417668    1.984121    0.373483
     12          7           0        1.363327   -0.669833    1.621924
     13          1           0        1.702434   -2.073186   -0.661951
     14          1           0        3.119590   -2.283306    0.369696
     15          1           0        3.246045   -1.342475   -1.135876
     16          1           0        3.164015    0.071526    0.967640
     17          1           0        2.600427    1.157101   -1.019868
     18          1           0        0.480850    1.373420   -2.041472
     19          1           0        0.920306   -0.333375   -2.039300
     20          1           0       -1.193765    2.217999   -0.227234
     21          1           0       -3.324828    1.608746    0.902691
     22          1           0       -2.825577   -2.384374    0.025790
     23          1           0       -0.666322   -1.958591   -1.122979
     24          1           0        0.714661    1.703486    0.982850
     25          1           0        1.260203    0.102435    2.275293
     26          1           0        0.437593   -0.938466    1.298544
 ---------------------------------------------------------------------

 SCF Done:  E(UB3LYP) =  -536.300423583     A.U. after   33 cycles
 SCF Done:  E(UB3LYP) =  -536.300423583     a.u. after    1 cycles

 The electronic state is 2-A.
 Alpha  occ. eigenvalues --  -19.01226 -14.18753 -14.16705 -10.10484 -10.09148
 Alpha  occ. eigenvalues --  -10.07764 -10.07551 -10.05308 -10.05219 -10.05133
 Alpha  occ. eigenvalues --  -10.05033 -10.04771  -0.91668  -0.81116  -0.78009
 Alpha  occ. eigenvalues --   -0.69559  -0.64813  -0.63278  -0.60373  -0.54177
 Alpha  occ. eigenvalues --   -0.50381  -0.48762  -0.45962  -0.40231  -0.39035
 Alpha  occ. eigenvalues --   -0.38068  -0.36541  -0.35002  -0.34447  -0.31744
 Alpha  occ. eigenvalues --   -0.31076  -0.30082  -0.28481  -0.27814  -0.26809
 Alpha  occ. eigenvalues --   -0.26630  -0.24878  -0.23564  -0.23028  -0.21729
 Alpha  occ. eigenvalues --   -0.17645  -0.15986  -0.14242  -0.13087  -0.12960
 Alpha  occ. eigenvalues --    0.04960
 Alpha virt. eigenvalues --    0.07416   0.08535   0.08754   0.09249   0.09874
 Alpha virt. eigenvalues --    0.10309   0.10748   0.11475   0.11900   0.12362
 Alpha virt. eigenvalues --    0.13089   0.14512   0.14924   0.15032   0.15780

  Beta  occ. eigenvalues --  -19.01227 -14.18751 -14.16374 -10.10440 -10.09141
  Beta  occ. eigenvalues --  -10.07752 -10.07498 -10.05192 -10.05145 -10.05054
  Beta  occ. eigenvalues --  -10.04968 -10.04748  -0.91663  -0.80673  -0.77992
  Beta  occ. eigenvalues --   -0.69113  -0.64719  -0.63088  -0.60254  -0.54042
  Beta  occ. eigenvalues --   -0.50294  -0.48475  -0.45831  -0.40160  -0.38997
  Beta  occ. eigenvalues --   -0.37934  -0.36384  -0.34891  -0.34333  -0.31617
  Beta  occ. eigenvalues --   -0.30996  -0.30020  -0.28418  -0.27473  -0.26574
  Beta  occ. eigenvalues --   -0.26260  -0.24739  -0.23421  -0.22887  -0.21631
  Beta  occ. eigenvalues --   -0.17434  -0.15110  -0.13730  -0.12718  -0.12576
  Beta virt. eigenvalues --    0.07616   0.08692   0.08934   0.09167   0.09982
  Beta virt. eigenvalues --    0.10327   0.10661   0.11125   0.11930   0.12220
  Beta virt. eigenvalues --    0.12461   0.13456   0.14688   0.15158   0.15346

 Mulliken charges and spin densities:
               1          2
     1  C    0.448331  -1.089685
     2  C   -0.767836   0.851839
     3  C    0.563499  -1.042895
     4  C    1.551584  -2.140351
     5  C   -0.411046   1.013375
     6  C   -0.206583   0.262709
     7  C   -0.315721  -0.228821
     8  N   -0.146825   0.143684
     9  C   -0.184999  -0.316265
    10  C   -0.520447   0.627624
    11  O   -0.217892   0.015104
    12  N   -0.391554  -0.031853
    13  H    0.166378  -0.038961
    14  H    0.019000   0.133300
    15  H   -0.343050   0.487154
    16  H    0.039536   0.164457
    17  H   -0.545826   0.765087
    18  H   -0.298782   0.500040
    19  H   -0.191787   0.343781
    20  H    0.036466   0.151256
    21  H    0.102692   0.026017
    22  H    0.105335   0.025903
    23  H   -0.254021   0.397208
    24  H    0.250658  -0.033978
    25  H    0.205771   0.028715
    26  H    0.307120  -0.014443
 Sum of Mulliken charges =  -1.00000   1.00000

 Dipole moment (field-independent basis, Debye):
    X=             -1.0709    Y=             -0.3823    Z=              3.8737  Tot=              4.0371
 Quadrupole moment (field-independent basis, Debye-Ang):
   XX=           -130.8004   YY=            -99.2428   ZZ=           -103.5172
   XY=             -4.4518   XZ=              8.4942   YZ=              5.9846

 Summary of Natural Population Analysis:

                                       Natural Population
                Natural  -----------------------------------------------
    Atom  No    Charge         Core      Valence    Rydberg      Total
 -----------------------------------------------------------------------
      C    1   -0.28839      0.99964     2.28270    0.00606     3.28839
      C    2   -0.02575      0.99959     2.01288    0.01327     3.02575
      C    3    0.06728      0.99953     1.91658    0.01661     2.93272
      C    4   -0.21852      0.99958     2.20696    0.01198     3.21852
      C    5    0.04542      0.99950     1.94375    0.01133     2.95458
      C    6   -0.13697      0.99950     2.12722    0.01025     3.13697
      C    7    0.02304      0.99959     1.96109    0.01628     2.97696
      N    8   -0.20493      0.99972     2.69406    0.01116     3.70493
      C    9    0.02962      0.99959     1.95427    0.01651     2.97038
      C   10   -0.13794      0.99950     2.12887    0.00957     3.13794
      O   11   -0.37607      0.99990     3.36873    0.00744     4.37607
      N   12   -0.42882      0.99976     2.92000    0.00906     3.92882
      H   13    0.09741      0.00000     0.40142    0.00118     0.40259
      H   14    0.10074      0.00000     0.39832    0.00094     0.39926
      H   15    0.10229      0.00000     0.39635    0.00136     0.39771
      H   16    0.08983      0.00000     0.40855    0.00162     0.41017
      H   17    0.09268      0.00000     0.40428    0.00304     0.40732
      H   18    0.11252      0.00000     0.38486    0.00262     0.38748
      H   19    0.10655      0.00000     0.39140    0.00204     0.39345
      H   20    0.10357      0.00000     0.39532    0.00111     0.39643
      H   21    0.08228      0.00000     0.41652    0.00120     0.41772
      H   22    0.08269      0.00000     0.41605    0.00126     0.41731
      H   23    0.09945      0.00000     0.39940    0.00116     0.40055
      H   24    0.22668      0.00000     0.27017    0.00315     0.27332
      H   25    0.17133      0.00000     0.32690    0.00177     0.32867
      H   26    0.18400      0.00000     0.31417    0.00183     0.31600
 =======================================================================
   * Total *   -0.00000     11.99540    32.84082    0.16379    45.00000

 Normal termination of Gaussian 16 at Wed Dec  9 18:27:59 2020.
