 Gaussian 16, Revision A.03,

 -----------------------------------------------------------
 # opt freq B3LYP/6-31G(d) empiricaldispersion=gd3bj scf=xqc
 -----------------------------------------------------------

 -------------------------------
 CID_115456877_JID_3350_neutraal
 -------------------------------
 Symbolic Z-matrix:
 Charge =  0 Multiplicity = 1

 SCF Done:  E(RB3LYP) =  -576.608599164     A.U. after   14 cycles
 SCF Done:  E(RB3LYP) =  -576.614432955     A.U. after   12 cycles
 SCF Done:  E(RB3LYP) =  -576.613498478     A.U. after   12 cycles
 SCF Done:  E(RB3LYP) =  -576.615988659     A.U. after   11 cycles
 SCF Done:  E(RB3LYP) =  -576.617807938     A.U. after   13 cycles
 SCF Done:  E(RB3LYP) =  -576.619100728     A.U. after   13 cycles
 SCF Done:  E(RB3LYP) =  -576.620090830     A.U. after   11 cycles
 SCF Done:  E(RB3LYP) =  -576.620174486     A.U. after   12 cycles
 SCF Done:  E(RB3LYP) =  -576.620745868     A.U. after   11 cycles
 SCF Done:  E(RB3LYP) =  -576.620904762     A.U. after   10 cycles
 SCF Done:  E(RB3LYP) =  -576.621244952     A.U. after   11 cycles
 SCF Done:  E(RB3LYP) =  -576.621255926     A.U. after   10 cycles
 SCF Done:  E(RB3LYP) =  -576.621262411     A.U. after    9 cycles
 SCF Done:  E(RB3LYP) =  -576.621263239     A.U. after    8 cycles
 SCF Done:  E(RB3LYP) =  -576.621264233     A.U. after    8 cycles
 Optimization completed.
    -- Stationary point found.
 Normal termination of Gaussian 16 at Wed Dec  9 23:07:34 2020.

 --------------------------------------------------------------------
 #N Geom=AllCheck Guess=TCheck SCRF=Check GenChk RB3LYP/6-31G(d) Freq
 --------------------------------------------------------------------

 Structure from the checkpoint file:  "JID_3350.chk"
 -------------------------------
 CID_115456877_JID_3350_neutraal
 -------------------------------
 Charge =  0 Multiplicity = 1

 SCF Done:  E(RB3LYP) =  -576.621264234     A.U. after    1 cycles

  Exact polarizability: 129.619   0.015 109.525   5.681   3.934 101.109
 Approx polarizability: 172.534   4.793 160.788  12.286  10.491 152.538

                      1                      2                      3
                      A                      A                      A
 Frequencies --     46.2487                55.2164                66.9811
 Red. masses --      3.6472                 4.2601                 3.3903
 Frc consts  --      0.0046                 0.0077                 0.0090
 IR Inten    --      0.2337                 1.5080                 0.5151

                      4                      5                      6
                      A                      A                      A
 Frequencies --     80.9901               107.8341               143.7550
 Red. masses --      4.0795                 2.7453                 2.4946
 Frc consts  --      0.0158                 0.0188                 0.0304
 IR Inten    --      0.8862                 1.0515                 0.6831

                      7                      8                      9
                      A                      A                      A
 Frequencies --    159.3010               225.9710               240.2763
 Red. masses --      3.2274                 3.9151                 2.9383
 Frc consts  --      0.0483                 0.1178                 0.0999
 IR Inten    --      1.4175                 4.7840                 2.3068

                     10                     11                     12
                      A                      A                      A
 Frequencies --    255.5450               309.4543               336.6346
 Red. masses --      2.0218                 2.1884                 1.8540
 Frc consts  --      0.0778                 0.1235                 0.1238
 IR Inten    --      6.6089                10.1316                 8.4732

                     13                     14                     15
                      A                      A                      A
 Frequencies --    344.4795               359.4878               384.0220
 Red. masses --      2.5335                 2.3658                 1.5257
 Frc consts  --      0.1771                 0.1801                 0.1326
 IR Inten    --      3.0453                 0.6363                 9.7473

                     16                     17                     18
                      A                      A                      A
 Frequencies --    419.8159               494.4523               509.3484
 Red. masses --      2.8628                 3.6481                 3.6154
 Frc consts  --      0.2973                 0.5255                 0.5526
 IR Inten    --      1.6612                 0.6809                 6.0473

                     19                     20                     21
                      A                      A                      A
 Frequencies --    540.9916               645.2151               697.9632
 Red. masses --      2.0264                 3.2828                 1.5251
 Frc consts  --      0.3494                 0.8052                 0.4377
 IR Inten    --     25.9952                12.1793               126.2429

                     22                     23                     24
                      A                      A                      A
 Frequencies --    740.4907               786.1129               802.2513
 Red. masses --      2.8627                 1.1054                 1.0453
 Frc consts  --      0.9248                 0.4025                 0.3964
 IR Inten    --     34.4057                 1.4449                 1.2362

                     25                     26                     27
                      A                      A                      A
 Frequencies --    818.5611               832.3602               857.4538
 Red. masses --      1.3983                 2.7206                 1.9777
 Frc consts  --      0.5520                 1.1105                 0.8567
 IR Inten    --     10.2960                 3.7028                 6.7962

                     28                     29                     30
                      A                      A                      A
 Frequencies --    870.9804               883.8080               908.1135
 Red. masses --      1.8846                 1.8015                 1.6657
 Frc consts  --      0.8423                 0.8291                 0.8093
 IR Inten    --      4.4689                45.0239                28.5929

                     31                     32                     33
                      A                      A                      A
 Frequencies --    925.9998               942.7382               962.2383
 Red. masses --      1.5265                 1.7293                 2.6041
 Frc consts  --      0.7712                 0.9055                 1.4206
 IR Inten    --    108.9380                 7.1890                12.9033

                     34                     35                     36
                      A                      A                      A
 Frequencies --    977.1510               980.8444              1017.5696
 Red. masses --      2.3550                 1.7747                 2.5628
 Frc consts  --      1.3249                 1.0060                 1.5635
 IR Inten    --     10.3996                36.8322                 6.1639

                     37                     38                     39
                      A                      A                      A
 Frequencies --   1033.0247              1058.9917              1061.8245
 Red. masses --      2.0332                 1.4184                 1.3552
 Frc consts  --      1.2784                 0.9372                 0.9002
 IR Inten    --      6.4084                 1.5777                16.9268

                     40                     41                     42
                      A                      A                      A
 Frequencies --   1081.8548              1090.6954              1115.6871
 Red. masses --      1.3934                 1.3962                 2.7635
 Frc consts  --      0.9609                 0.9786                 2.0267
 IR Inten    --      3.2968                 3.0436                12.7106

                     43                     44                     45
                      A                      A                      A
 Frequencies --   1136.6840              1148.4240              1157.8379
 Red. masses --      2.2585                 1.1392                 1.6689
 Frc consts  --      1.7193                 0.8852                 1.3182
 IR Inten    --      8.5543                 4.2690                11.5893

                     46                     47                     48
                      A                      A                      A
 Frequencies --   1180.6009              1203.8346              1212.1148
 Red. masses --      1.4648                 1.3302                 1.3999
 Frc consts  --      1.2029                 1.1358                 1.2118
 IR Inten    --      0.4350                 0.2536                 1.4140

                     49                     50                     51
                      A                      A                      A
 Frequencies --   1240.0194              1261.4933              1271.8854
 Red. masses --      1.7103                 1.7938                 1.4864
 Frc consts  --      1.5494                 1.6819                 1.4167
 IR Inten    --      5.4276                51.2874                 2.1377

                     52                     53                     54
                      A                      A                      A
 Frequencies --   1301.4274              1334.8278              1357.2889
 Red. masses --      1.5514                 2.3951                 1.5891
 Frc consts  --      1.5481                 2.5143                 1.7249
 IR Inten    --     45.4704                 1.2390                 8.6123

                     55                     56                     57
                      A                      A                      A
 Frequencies --   1380.4021              1397.9308              1420.2786
 Red. masses --      1.4032                 1.4837                 1.3282
 Frc consts  --      1.5754                 1.7083                 1.5786
 IR Inten    --     29.2713                56.3096                 7.8741

                     58                     59                     60
                      A                      A                      A
 Frequencies --   1433.3071              1455.2724              1489.1963
 Red. masses --      1.4476                 1.7441                 1.2617
 Frc consts  --      1.7522                 2.1763                 1.6486
 IR Inten    --     10.3676                36.2884                21.8696

                     61                     62                     63
                      A                      A                      A
 Frequencies --   1493.0818              1494.8313              1499.7117
 Red. masses --      1.2752                 1.0885                 1.0998
 Frc consts  --      1.6749                 1.4330                 1.4574
 IR Inten    --     24.3610                 5.1724                 0.9508

                     64                     65                     66
                      A                      A                      A
 Frequencies --   1508.4729              1522.9968              1536.1687
 Red. masses --      1.1185                 1.1898                 1.3060
 Frc consts  --      1.4995                 1.6260                 1.8159
 IR Inten    --      0.3945                23.7110                 3.4071

                     67                     68                     69
                      A                      A                      A
 Frequencies --   1539.6551              1712.6575              1775.2885
 Red. masses --      1.3801                 1.1015                 7.1503
 Frc consts  --      1.9276                 1.9036                13.2774
 IR Inten    --      1.6508                28.2509               298.7466

                     70                     71                     72
                      A                      A                      A
 Frequencies --   3034.1169              3038.0648              3055.0212
 Red. masses --      1.0600                 1.0709                 1.0601
 Frc consts  --      5.7493                 5.8235                 5.8296
 IR Inten    --     46.7670                15.8516                36.0900

                     73                     74                     75
                      A                      A                      A
 Frequencies --   3072.5397              3092.8328              3130.1874
 Red. masses --      1.1052                 1.1058                 1.0839
 Frc consts  --      6.1474                 6.2323                 6.2571
 IR Inten    --     31.0733                24.6232                17.6074

                     76                     77                     78
                      A                      A                      A
 Frequencies --   3136.9220              3139.6648              3142.2052
 Red. masses --      1.0538                 1.0596                 1.0538
 Frc consts  --      6.1096                 6.1538                 6.1305
 IR Inten    --     18.5184                14.7619                23.7654

                     79                     80                     81
                      A                      A                      A
 Frequencies --   3152.7480              3194.3282              3208.6053
 Red. masses --      1.0560                 1.0903                 1.1186
 Frc consts  --      6.1841                 6.5548                 6.7850
 IR Inten    --     11.7671                 2.5810                 0.1946

                     82                     83                     84
                      A                      A                      A
 Frequencies --   3218.3211              3222.2341              3235.7643
 Red. masses --      1.1183                 1.1158                 1.1150
 Frc consts  --      6.8244                 6.8256                 6.8785
 IR Inten    --      3.2858                21.7200                24.8476

                     85                     86                     87
                      A                      A                      A
 Frequencies --   3494.9086              3575.0198              3582.5003
 Red. masses --      1.0505                 1.0756                 1.0912
 Frc consts  --      7.5602                 8.0991                 8.2514
 IR Inten    --      2.9915                14.1715                 4.0764

 - Thermochemistry -
 -------------------
 Temperature   298.150 Kelvin.  Pressure   1.00000 Atm.
 Atom     1 has atomic number  6 and mass  12.00000

 Molecular mass:   182.14191 amu.
 Principal axes and moments of inertia in atomic units:
                           1         2         3
     Eigenvalues --  1770.849013040.232603556.24413
           X            0.99970  -0.02455   0.00200
           Y            0.02455   0.99970  -0.00186
           Z           -0.00196   0.00191   1.00000
 This molecule is an asymmetric top.
 Rotational symmetry number  1.
 Warning -- assumption of classical behavior for rotation
           may cause significant error
 Rotational temperatures (Kelvin)      0.04891     0.02849     0.02436
 Rotational constants (GHZ):           1.01914     0.59362     0.50749
 Zero-point vibrational energy     725920.4 (Joules/Mol)
                                  173.49913 (Kcal/Mol)
 Warning -- explicit consideration of  19 degrees of freedom as
           vibrations may cause significant error
 Vibrational temperatures:     66.54    79.44    96.37   116.53   155.15
          (Kelvin)            206.83   229.20   325.12   345.70   367.67
                              445.24   484.34   495.63   517.22   552.52
                              604.02   711.41   732.84   778.37   928.32
                             1004.21  1065.40  1131.04  1154.26  1177.73
                             1197.58  1233.68  1253.15  1271.60  1306.57
                             1332.31  1356.39  1384.45  1405.90  1411.22
                             1464.06  1486.29  1523.65  1527.73  1556.55
                             1569.27  1605.22  1635.43  1652.33  1665.87
                             1698.62  1732.05  1743.96  1784.11  1815.01
                             1829.96  1872.46  1920.52  1952.84  1986.09
                             2011.31  2043.46  2062.21  2093.81  2142.62
                             2148.21  2150.73  2157.75  2170.36  2191.25
                             2210.20  2215.22  2464.13  2554.24  4365.42
                             4371.10  4395.49  4420.70  4449.90  4503.64
                             4513.33  4517.28  4520.93  4536.10  4595.93
                             4616.47  4630.45  4636.08  4655.54  5028.39
                             5143.66  5154.42

 Zero-point correction=                           0.276488 (Hartree/Particle)
 Thermal correction to Energy=                    0.290381
 Thermal correction to Enthalpy=                  0.291326
 Thermal correction to Gibbs Free Energy=         0.235594
 Sum of electronic and zero-point Energies=           -576.344776
 Sum of electronic and thermal Energies=              -576.330883
 Sum of electronic and thermal Enthalpies=            -576.329939
 Sum of electronic and thermal Free Energies=         -576.385670

                     E (Thermal)             CV                S
                      KCal/Mol        Cal/Mol-Kelvin    Cal/Mol-Kelvin
 Total                  182.217             52.800            117.297
 Electronic               0.000              0.000              0.000
 Translational            0.889              2.981             41.505
 Rotational               0.889              2.981             31.327
 Vibrational            180.440             46.838             44.465
 Vibration     1          0.595              1.979              4.972
 Vibration     2          0.596              1.975              4.621
 Vibration     3          0.598              1.970              4.240
 Vibration     4          0.600              1.962              3.867
 Vibration     5          0.606              1.943              3.308
 Vibration     6          0.616              1.909              2.753
 Vibration     7          0.621              1.892              2.558
 Vibration     8          0.650              1.801              1.911
 Vibration     9          0.657              1.779              1.801
 Vibration    10          0.666              1.753              1.692
 Vibration    11          0.699              1.656              1.365
 Vibration    12          0.717              1.602              1.228
 Vibration    13          0.723              1.586              1.191
 Vibration    14          0.734              1.556              1.124
 Vibration    15          0.753              1.504              1.023
 Vibration    16          0.782              1.427              0.893
 Vibration    17          0.850              1.262              0.672
 Vibration    18          0.864              1.229              0.635
 Vibration    19          0.896              1.159              0.563

 Optimization completed.
    -- Stationary point found.
 Normal termination of Gaussian 16 at Wed Dec  9 23:17:27 2020.

 ----------------------------------------------------------------------
 # B3LYP/6-311++G(d,p) empiricaldispersion=gd3bj scf=xqc pop=npa geom=c
 heck
 ----------------------------------------------------------------------

 ---------------------------------------
 CID_115456877_JID_3350_Energie_neutraal
 ---------------------------------------
 Structure from the checkpoint file:  "JID_3350.chk"
 Charge =  0 Multiplicity = 1

 SCF Done:  E(RB3LYP) =  -576.794567651     A.U. after   14 cycles
 Normal termination of Gaussian 16 at Wed Dec  9 23:21:51 2020.

 ----------------------------------------------------------------------
 # B3LYP/6-311++G(d,p) empiricaldispersion=gd3bj scf=xqc pop=npa geom=c
 heck
 ----------------------------------------------------------------------

 -------------------------------------
 CID_115456877_JID_3350_Energie_kation
 -------------------------------------
 Structure from the checkpoint file:  "JID_3350.chk"
 Charge =  1 Multiplicity = 2

 SCF Done:  E(UB3LYP) =  -576.480520597     A.U. after   27 cycles
 Normal termination of Gaussian 16 at Wed Dec  9 23:33:57 2020.
 Gaussian 16:  ES64L-G16RevA.03 25-Dec-2016

 ----------------------------------------------------------------------
 # B3LYP/6-311++G(d,p) empiricaldispersion=gd3bj scf=xqc pop=npa geom=c
 heck
 ----------------------------------------------------------------------

 ------------------------------------
 CID_115456877_JID_3350_Energie_anion
 ------------------------------------
 Structure from the checkpoint file:  "JID_3350.chk"
 Charge = -1 Multiplicity = 2

                         Standard orientation:
 ---------------------------------------------------------------------
 Center     Atomic      Atomic             Coordinates (Angstroms)
 Number     Number       Type             X           Y           Z
 ---------------------------------------------------------------------
      1          6           0        2.124156   -1.400204    0.876173
      2          6           0        3.077935   -1.661391   -0.267247
      3          6           0        2.551389   -0.271695   -0.028345
      4          6           0        1.560894    0.341394   -0.995098
      5          6           0        0.828192    1.513944   -0.356217
      6          8           0        1.406343    2.295452    0.392910
      7          7           0       -0.488072    1.717778   -0.684478
      8          6           0       -1.460529    0.752690   -1.188436
      9          6           0       -1.907800   -0.319704   -0.195698
     10          6           0       -2.830700   -1.369528   -0.768717
     11          6           0       -1.423201   -1.740855   -0.376350
     12          6           0       -2.169923    0.144097    1.241987
     13          7           0       -1.020810    0.330062    2.126097
     14          1           0        2.511136   -1.422704    1.890728
     15          1           0        1.109534   -1.775438    0.776404
     16          1           0        4.119324   -1.867046   -0.036632
     17          1           0        2.698687   -2.210861   -1.125715
     18          1           0        3.237227    0.451825    0.401389
     19          1           0        2.090290    0.741561   -1.871850
     20          1           0        0.869647   -0.418881   -1.365221
     21          1           0       -0.868287    2.524915   -0.203061
     22          1           0       -2.334874    1.342007   -1.487797
     23          1           0       -1.078487    0.287445   -2.103905
     24          1           0       -3.651192   -1.722907   -0.149893
     25          1           0       -3.065737   -1.321722   -1.829747
     26          1           0       -0.715438   -1.960162   -1.171454
     27          1           0       -1.285602   -2.351008    0.513384
     28          1           0       -2.734166    1.086292    1.221288
     29          1           0       -2.831958   -0.590657    1.717587
     30          1           0       -0.418085    1.084652    1.808955
     31          1           0       -0.443071   -0.508294    2.128615
 ---------------------------------------------------------------------

 SCF Done:  E(UB3LYP) =  -576.782297210     A.U. after   33 cycles
 SCF Done:  E(UB3LYP) =  -576.782297210     a.u. after    1 cycles

 The electronic state is 2-A.
 Alpha  occ. eigenvalues --  -18.99431 -14.23891 -14.19198 -10.17839 -10.11285
 Alpha  occ. eigenvalues --  -10.09770 -10.08913 -10.08894 -10.08602 -10.08152
 Alpha  occ. eigenvalues --  -10.08095 -10.07624 -10.07374  -0.94542  -0.82973
 Alpha  occ. eigenvalues --   -0.78997  -0.77281  -0.75783  -0.65345  -0.61919
 Alpha  occ. eigenvalues --   -0.57675  -0.51587  -0.50913  -0.50730  -0.47136
 Alpha  occ. eigenvalues --   -0.45347  -0.42052  -0.41087  -0.39983  -0.38632
 Alpha  occ. eigenvalues --   -0.37345  -0.37300  -0.36276  -0.34052  -0.32785
 Alpha  occ. eigenvalues --   -0.31530  -0.30408  -0.28863  -0.27938  -0.27727
 Alpha  occ. eigenvalues --   -0.27070  -0.26224  -0.25918  -0.21194  -0.20727
 Alpha  occ. eigenvalues --   -0.20016  -0.19108  -0.16510  -0.16046  -0.14093
 Alpha  occ. eigenvalues --    0.04388
 Alpha virt. eigenvalues --    0.06557   0.07269   0.07407   0.08579   0.08666
 Alpha virt. eigenvalues --    0.09082   0.09882   0.10556   0.11046   0.11668
 Alpha virt. eigenvalues --    0.11955   0.12275   0.12353   0.13470   0.14248

  Beta  occ. eigenvalues --  -18.99430 -14.23876 -14.19194 -10.17839 -10.11243
  Beta  occ. eigenvalues --  -10.09746 -10.08913 -10.08892 -10.08582 -10.08134
  Beta  occ. eigenvalues --  -10.08090 -10.07594 -10.07342  -0.94537  -0.82945
  Beta  occ. eigenvalues --   -0.78981  -0.77270  -0.75765  -0.65314  -0.61860
  Beta  occ. eigenvalues --   -0.57620  -0.51547  -0.50856  -0.50667  -0.47095
  Beta  occ. eigenvalues --   -0.45298  -0.42025  -0.41062  -0.39936  -0.38594
  Beta  occ. eigenvalues --   -0.37306  -0.37260  -0.36237  -0.34026  -0.32749
  Beta  occ. eigenvalues --   -0.31504  -0.30372  -0.28833  -0.27916  -0.27703
  Beta  occ. eigenvalues --   -0.27036  -0.26200  -0.25889  -0.21163  -0.20710
  Beta  occ. eigenvalues --   -0.20000  -0.19069  -0.16496  -0.16032  -0.14080
  Beta virt. eigenvalues --    0.06655   0.07371   0.07887   0.08307   0.08944
  Beta virt. eigenvalues --    0.09114   0.09625   0.10253   0.10947   0.11367
  Beta virt. eigenvalues --    0.12016   0.12366   0.12706   0.12823   0.13663

 Mulliken charges and spin densities:
               1          2
     1  C   -0.296697  -0.031214
     2  C    0.392247  -0.891316
     3  C   -0.758618   0.787470
     4  C    1.096177  -1.046729
     5  C   -0.555178   0.235241
     6  O   -0.295325   0.009751
     7  N   -0.375610   0.246634
     8  C    2.184154  -2.946512
     9  C   -2.737843   3.620824
    10  C    1.992450  -2.431808
    11  C    0.295670  -0.730898
    12  C    0.136027  -0.906064
    13  N   -0.303349   0.046217
    14  H    0.032707   0.121706
    15  H   -0.058924   0.165290
    16  H    0.019495   0.122763
    17  H   -0.311144   0.456841
    18  H    0.206905   0.042168
    19  H   -0.085677   0.291483
    20  H    0.258394  -0.161518
    21  H    0.035191   0.282763
    22  H   -0.719241   0.927657
    23  H   -0.493931   0.702441
    24  H   -0.241332   0.390680
    25  H   -0.311367   0.473802
    26  H   -0.221304   0.372528
    27  H   -0.018073   0.167379
    28  H   -0.143588   0.312909
    29  H   -0.146620   0.329548
    30  H    0.262279  -0.004301
    31  H    0.162123   0.044265
 Sum of Mulliken charges =  -1.00000   1.00000

 Dipole moment (field-independent basis, Debye):
    X=              4.0554    Y=             -0.2991    Z=              3.0849  Tot=              5.1042
 Quadrupole moment (field-independent basis, Debye-Ang):
   XX=           -136.4246   YY=           -129.9205   ZZ=           -128.5506
   XY=              0.0939   XZ=             -4.0864   YZ=             -4.6968

 Summary of Natural Population Analysis:

                                       Natural Population
                Natural  -----------------------------------------------
    Atom  No    Charge         Core      Valence    Rydberg      Total
 -----------------------------------------------------------------------
      C    1   -0.20205      0.99961     2.19491    0.00753     3.20205
      C    2   -0.19755      0.99962     2.18925    0.00868     3.19755
      C    3   -0.11302      0.99959     2.10251    0.01092     3.11302
      C    4   -0.23486      0.99956     2.22599    0.00932     3.23486
      C    5    0.34789      0.99966     1.62903    0.02341     2.65211
      O    6   -0.33069      0.99988     3.32560    0.00521     4.33069
      N    7   -0.31886      0.99967     2.80747    0.01172     3.81886
      C    8   -0.08642      0.99955     2.07289    0.01398     3.08642
      C    9   -0.06485      0.99953     2.05046    0.01486     3.06485
      C   10   -0.18880      0.99958     2.17966    0.00955     3.18880
      C   11   -0.19877      0.99958     2.18882    0.01037     3.19877
      C   12   -0.08611      0.99958     2.07360    0.01293     3.08611
      N   13   -0.42143      0.99978     2.91262    0.00903     3.92143
      H   14    0.10056      0.00000     0.39859    0.00085     0.39944
      H   15    0.10318      0.00000     0.39536    0.00146     0.39682
      H   16    0.10017      0.00000     0.39904    0.00078     0.39983
      H   17    0.10367      0.00000     0.39511    0.00121     0.39633
      H   18    0.11100      0.00000     0.38792    0.00108     0.38900
      H   19    0.11350      0.00000     0.38541    0.00109     0.38650
      H   20    0.10761      0.00000     0.38986    0.00253     0.39239
      H   21    0.19338      0.00000     0.30434    0.00228     0.30662
      H   22    0.10647      0.00000     0.39026    0.00327     0.39353
      H   23    0.10299      0.00000     0.39405    0.00296     0.39701
      H   24    0.10307      0.00000     0.39557    0.00135     0.39693
      H   25    0.10624      0.00000     0.39180    0.00196     0.39376
      H   26    0.10530      0.00000     0.39282    0.00188     0.39470
      H   27    0.10159      0.00000     0.39701    0.00140     0.39841
      H   28    0.09401      0.00000     0.40478    0.00121     0.40599
      H   29    0.09291      0.00000     0.40582    0.00127     0.40709
      H   30    0.17883      0.00000     0.31854    0.00263     0.32117
      H   31    0.17102      0.00000     0.32625    0.00273     0.32898
 =======================================================================
   * Total *   -0.00000     12.99518    36.82535    0.17947    50.00000

 Normal termination of Gaussian 16 at Wed Dec  9 23:48:43 2020.
