 Gaussian 16, Revision A.03,

 -----------------------------------------------------------
 # opt freq B3LYP/6-31G(d) empiricaldispersion=gd3bj scf=xqc
 -----------------------------------------------------------

 -------------------------------
 CID_116176141_JID_6457_neutraal
 -------------------------------
 Symbolic Z-matrix:
 Charge =  0 Multiplicity = 1

 SCF Done:  E(RB3LYP) =  -710.645353277     A.U. after   15 cycles
 SCF Done:  E(RB3LYP) =  -710.651841177     A.U. after   13 cycles
 SCF Done:  E(RB3LYP) =  -710.650993661     A.U. after   13 cycles
 SCF Done:  E(RB3LYP) =  -710.654388358     A.U. after   13 cycles
 SCF Done:  E(RB3LYP) =  -710.655056573     A.U. after   12 cycles
 SCF Done:  E(RB3LYP) =  -710.655073903     A.U. after   12 cycles
 SCF Done:  E(RB3LYP) =  -710.656497580     A.U. after   11 cycles
 SCF Done:  E(RB3LYP) =  -710.655729545     A.U. after   12 cycles
 SCF Done:  E(RB3LYP) =  -710.657056122     A.U. after   12 cycles
 SCF Done:  E(RB3LYP) =  -710.657507768     A.U. after   11 cycles
 SCF Done:  E(RB3LYP) =  -710.658129717     A.U. after   11 cycles
 SCF Done:  E(RB3LYP) =  -710.658163597     A.U. after   10 cycles
 SCF Done:  E(RB3LYP) =  -710.658173333     A.U. after    9 cycles
 SCF Done:  E(RB3LYP) =  -710.658170420     A.U. after    9 cycles
 SCF Done:  E(RB3LYP) =  -710.658174023     A.U. after    8 cycles
 SCF Done:  E(RB3LYP) =  -710.658174069     A.U. after    7 cycles
 Optimization completed.
    -- Stationary point found.
 Normal termination of Gaussian 16 at Thu Dec 10 23:47:32 2020.

 --------------------------------------------------------------------
 #N Geom=AllCheck Guess=TCheck SCRF=Check GenChk RB3LYP/6-31G(d) Freq
 --------------------------------------------------------------------

 Structure from the checkpoint file:  "JID_6457.chk"
 -------------------------------
 CID_116176141_JID_6457_neutraal
 -------------------------------
 Charge =  0 Multiplicity = 1

 SCF Done:  E(RB3LYP) =  -710.658174069     A.U. after    1 cycles

  Exact polarizability: 154.232   1.878 143.254   7.051   2.347 125.525
 Approx polarizability: 214.006   7.493 204.266  10.346  11.634 191.691

                      1                      2                      3
                      A                      A                      A
 Frequencies --     54.9717                74.1224                80.4560
 Red. masses --      3.5962                 5.3080                 3.7215
 Frc consts  --      0.0064                 0.0172                 0.0142
 IR Inten    --      0.3810                 2.8139                 2.7230

                      4                      5                      6
                      A                      A                      A
 Frequencies --    111.8027               124.0940               183.4998
 Red. masses --      3.2905                 2.8967                 3.7062
 Frc consts  --      0.0242                 0.0263                 0.0735
 IR Inten    --      1.4699                 0.4119                 2.3574

                      7                      8                      9
                      A                      A                      A
 Frequencies --    204.7112               217.2682               228.4465
 Red. masses --      3.0773                 2.7610                 2.7779
 Frc consts  --      0.0760                 0.0768                 0.0854
 IR Inten    --      2.3555                 8.6127                 4.0199

                     10                     11                     12
                      A                      A                      A
 Frequencies --    243.6438               265.8742               286.1750
 Red. masses --      1.9162                 2.3980                 1.2947
 Frc consts  --      0.0670                 0.0999                 0.0625
 IR Inten    --      2.5230                19.9196                 3.2482

                     13                     14                     15
                      A                      A                      A
 Frequencies --    316.7984               325.9475               343.0945
 Red. masses --      1.2502                 3.1340                 2.5424
 Frc consts  --      0.0739                 0.1962                 0.1763
 IR Inten    --    175.8162                 6.9389                27.8396

                     16                     17                     18
                      A                      A                      A
 Frequencies --    374.3017               402.7638               411.7045
 Red. masses --      3.2369                 2.3361                 2.1135
 Frc consts  --      0.2672                 0.2233                 0.2111
 IR Inten    --      7.4213                 2.4722                 2.6197

                     19                     20                     21
                      A                      A                      A
 Frequencies --    426.2482               447.3058               467.1872
 Red. masses --      2.5807                 3.2476                 2.8835
 Frc consts  --      0.2763                 0.3828                 0.3708
 IR Inten    --      9.1342                 0.4805                 6.9783

                     22                     23                     24
                      A                      A                      A
 Frequencies --    483.3271               524.7831               545.9408
 Red. masses --      2.5167                 3.0182                 1.1880
 Frc consts  --      0.3464                 0.4897                 0.2086
 IR Inten    --      4.7747                 1.5975                10.0501

                     25                     26                     27
                      A                      A                      A
 Frequencies --    555.8091               584.6255               625.0870
 Red. masses --      2.0197                 1.5573                 2.8332
 Frc consts  --      0.3676                 0.3136                 0.6522
 IR Inten    --      1.0859                 4.3392                 6.2452

                     28                     29                     30
                      A                      A                      A
 Frequencies --    658.5521               729.5316               804.2915
 Red. masses --      2.6649                 3.0179                 1.3145
 Frc consts  --      0.6809                 0.9463                 0.5010
 IR Inten    --      7.7437                21.9590                 0.1830

                     31                     32                     33
                      A                      A                      A
 Frequencies --    815.1873               823.9035               837.1803
 Red. masses --      2.6216                 2.3753                 1.6532
 Frc consts  --      1.0264                 0.9500                 0.6827
 IR Inten    --      2.6075               140.9301                 0.8183

                     34                     35                     36
                      A                      A                      A
 Frequencies --    865.9983               878.4816               901.4415
 Red. masses --      1.9852                 1.6196                 2.6450
 Frc consts  --      0.8772                 0.7364                 1.2663
 IR Inten    --     13.9940                29.5579                 2.9556

                     37                     38                     39
                      A                      A                      A
 Frequencies --    907.8444               934.2149               942.1523
 Red. masses --      2.1947                 1.8660                 2.1393
 Frc consts  --      1.0657                 0.9595                 1.1188
 IR Inten    --      6.8250                 2.9521                 1.8898

                     40                     41                     42
                      A                      A                      A
 Frequencies --    971.6406               988.1224              1009.4159
 Red. masses --      2.2246                 2.0954                 2.4257
 Frc consts  --      1.2374                 1.2054                 1.4563
 IR Inten    --      0.2419                 3.2737                 9.4904

                     43                     44                     45
                      A                      A                      A
 Frequencies --   1030.2409              1031.9163              1041.1498
 Red. masses --      1.5609                 1.6550                 2.2917
 Frc consts  --      0.9761                 1.0384                 1.4636
 IR Inten    --      2.2120                 3.3364                14.0420

                     46                     47                     48
                      A                      A                      A
 Frequencies --   1048.2394              1067.1893              1089.0780
 Red. masses --      2.3719                 2.6521                 1.8744
 Frc consts  --      1.5356                 1.7796                 1.3099
 IR Inten    --     12.5519                 1.9974                21.9900

                     49                     50                     51
                      A                      A                      A
 Frequencies --   1102.6435              1116.1860              1142.4814
 Red. masses --      1.9820                 2.1863                 1.9894
 Frc consts  --      1.4198                 1.6049                 1.5300
 IR Inten    --      0.8490                 3.6503                 1.7435

                     52                     53                     54
                      A                      A                      A
 Frequencies --   1147.0053              1152.7111              1194.3652
 Red. masses --      3.7401                 2.2602                 1.8900
 Frc consts  --      2.8991                 1.7695                 1.5885
 IR Inten    --     29.4857                 1.8163                10.9117

                     55                     56                     57
                      A                      A                      A
 Frequencies --   1217.4351              1220.4068              1227.4218
 Red. masses --      1.6638                 1.3820                 1.7285
 Frc consts  --      1.4529                 1.2128                 1.5343
 IR Inten    --      3.0746                15.5795                60.0009

                     58                     59                     60
                      A                      A                      A
 Frequencies --   1234.2995              1274.4191              1297.5732
 Red. masses --      2.2058                 1.3509                 1.5395
 Frc consts  --      1.9800                 1.2927                 1.5272
 IR Inten    --     36.6587                 0.8838                45.4162

                     61                     62                     63
                      A                      A                      A
 Frequencies --   1299.9455              1319.3307              1339.3732
 Red. masses --      1.4252                 1.3231                 1.7515
 Frc consts  --      1.4189                 1.3569                 1.8513
 IR Inten    --     25.7033                 6.2922                19.9483

                     64                     65                     66
                      A                      A                      A
 Frequencies --   1353.1816              1354.4323              1366.8266
 Red. masses --      1.4243                 1.2919                 1.2705
 Frc consts  --      1.5366                 1.3963                 1.3985
 IR Inten    --      2.7565                 2.8000                 0.0864

                     67                     68                     69
                      A                      A                      A
 Frequencies --   1369.1269              1372.0066              1388.6104
 Red. masses --      1.2894                 1.2916                 1.4552
 Frc consts  --      1.4240                 1.4325                 1.6532
 IR Inten    --      0.2794                 4.1053                11.5449

                     70                     71                     72
                      A                      A                      A
 Frequencies --   1393.3967              1400.4651              1408.2918
 Red. masses --      1.2875                 1.5752                 1.4503
 Frc consts  --      1.4728                 1.8203                 1.6947
 IR Inten    --      6.5218                 3.5943                 3.8255

                     73                     74                     75
                      A                      A                      A
 Frequencies --   1418.5746              1427.2850              1448.0621
 Red. masses --      1.2320                 1.5016                 1.2381
 Frc consts  --      1.4607                 1.8024                 1.5296
 IR Inten    --      6.4576                26.8407                 4.3451

                     76                     77                     78
                      A                      A                      A
 Frequencies --   1494.0729              1505.2537              1509.9646
 Red. masses --      1.1043                 1.0800                 1.1045
 Frc consts  --      1.4524                 1.4417                 1.4836
 IR Inten    --      5.2894                 1.4204                 6.0906

                     79                     80                     81
                      A                      A                      A
 Frequencies --   1513.2717              1515.3419              1518.9855
 Red. masses --      1.1415                 1.1134                 1.0848
 Frc consts  --      1.5401                 1.5063                 1.4747
 IR Inten    --      4.3074                 2.5830                 1.4761

                     82                     83                     84
                      A                      A                      A
 Frequencies --   1526.5298              1531.6073              1535.3403
 Red. masses --      1.0838                 1.0941                 1.0462
 Frc consts  --      1.4881                 1.5122                 1.4530
 IR Inten    --      3.8573                 4.2544                 5.4268

                     85                     86                     87
                      A                      A                      A
 Frequencies --   1547.8759              1554.6812              1644.8639
 Red. masses --      1.0567                 1.0964                 1.2192
 Frc consts  --      1.4916                 1.5613                 1.9435
 IR Inten    --      7.9686                 9.4440                91.9830

                     88                     89                     90
                      A                      A                      A
 Frequencies --   1792.7411              2963.8180              2987.9052
 Red. masses --      9.1996                 1.0759                 1.0767
 Frc consts  --     17.4202                 5.5681                 5.6637
 IR Inten    --    241.9034                60.6921                70.3415

                     91                     92                     93
                      A                      A                      A
 Frequencies --   3008.0024              3031.3340              3032.2167
 Red. masses --      1.0709                 1.0673                 1.0596
 Frc consts  --      5.7091                 5.7781                 5.7400
 IR Inten    --     27.7279                40.5267                44.0510

                     94                     95                     96
                      A                      A                      A
 Frequencies --   3044.3617              3059.1417              3060.5169
 Red. masses --      1.0598                 1.0386                 1.0613
 Frc consts  --      5.7871                 5.7266                 5.8568
 IR Inten    --     39.3967                38.8770                25.8763

                     97                     98                     99
                      A                      A                      A
 Frequencies --   3066.2146              3077.0803              3083.6508
 Red. masses --      1.0929                 1.1047                 1.1017
 Frc consts  --      6.0537                 6.1626                 6.1721
 IR Inten    --     16.3030                76.7830                81.0250

                    100                    101                    102
                      A                      A                      A
 Frequencies --   3088.2438              3093.9178              3108.7684
 Red. masses --      1.0924                 1.0807                 1.0856
 Frc consts  --      6.1381                 6.0952                 6.1813
 IR Inten    --     16.8802                 7.1714                16.6024

                    103                    104                    105
                      A                      A                      A
 Frequencies --   3112.0153              3119.1893              3138.1873
 Red. masses --      1.0896                 1.0989                 1.1013
 Frc consts  --      6.2172                 6.2991                 6.3900
 IR Inten    --     56.2676                49.3578                26.5731

                    106                    107                    108
                      A                      A                      A
 Frequencies --   3144.2087              3156.8063              3200.0310
 Red. masses --      1.1011                 1.0860                 1.0865
 Frc consts  --      6.4135                 6.3763                 6.5552
 IR Inten    --     23.7479                28.3124                 8.0370

                    109                    110                    111
                      A                      A                      A
 Frequencies --   3443.4366              3590.4076              3716.2206
 Red. masses --      1.0733                 1.0456                 1.1036
 Frc consts  --      7.4981                 7.9412                 8.9801
 IR Inten    --      6.4575                22.4618                27.4447

 - Thermochemistry -
 -------------------
 Temperature   298.150 Kelvin.  Pressure   1.00000 Atm.
 Atom     1 has atomic number  6 and mass  12.00000

 Molecular mass:   225.18411 amu.
 Principal axes and moments of inertia in atomic units:
                           1         2         3
     Eigenvalues --  2595.512773814.458934244.48298
           X            0.99957   0.00663   0.02872
           Y           -0.00427   0.99668  -0.08125
           Z           -0.02917   0.08109   0.99628
 This molecule is an asymmetric top.
 Rotational symmetry number  1.
 Warning -- assumption of classical behavior for rotation
           may cause significant error
 Rotational temperatures (Kelvin)      0.03337     0.02271     0.02041
 Rotational constants (GHZ):           0.69533     0.47313     0.42520
 Zero-point vibrational energy     931818.1 (Joules/Mol)
                                  222.70987 (Kcal/Mol)
 Warning -- explicit consideration of  26 degrees of freedom as
           vibrations may cause significant error
 Vibrational temperatures:     79.09   106.65   115.76   160.86   178.54
          (Kelvin)            264.02   294.53   312.60   328.68   350.55
                              382.53   411.74   455.80   468.97   493.64
                              538.54   579.49   592.35   613.28   643.57
                              672.18   695.40   755.05   785.49   799.69
                              841.15   899.36   947.51  1049.63  1157.20
                             1172.87  1185.41  1204.52  1245.98  1263.94
                             1296.97  1306.19  1344.13  1355.55  1397.97
                             1421.69  1452.32  1482.29  1484.70  1497.98
                             1508.18  1535.45  1566.94  1586.46  1605.94
                             1643.78  1650.28  1658.49  1718.43  1751.62
                             1755.89  1765.99  1775.88  1833.60  1866.92
                             1870.33  1898.22  1927.06  1946.93  1948.73
                             1966.56  1969.87  1974.01  1997.90  2004.79
                             2014.96  2026.22  2041.01  2053.54  2083.44
                             2149.64  2165.72  2172.50  2177.26  2180.24
                             2185.48  2196.34  2203.64  2209.01  2227.05
                             2236.84  2366.59  2579.35  4264.27  4298.93
                             4327.84  4361.41  4362.68  4380.16  4401.42
                             4403.40  4411.60  4427.23  4436.69  4443.29
                             4451.46  4472.82  4477.50  4487.82  4515.15
                             4523.81  4541.94  4604.13  4954.34  5165.80
                             5346.81

 Zero-point correction=                           0.354911 (Hartree/Particle)
 Thermal correction to Energy=                    0.370680
 Thermal correction to Enthalpy=                  0.371625
 Thermal correction to Gibbs Free Energy=         0.313384
 Sum of electronic and zero-point Energies=           -710.303263
 Sum of electronic and thermal Energies=              -710.287494
 Sum of electronic and thermal Enthalpies=            -710.286549
 Sum of electronic and thermal Free Energies=         -710.344790

                     E (Thermal)             CV                S
                      KCal/Mol        Cal/Mol-Kelvin    Cal/Mol-Kelvin
 Total                  232.606             63.792            122.578
 Electronic               0.000              0.000              0.000
 Translational            0.889              2.981             42.138
 Rotational               0.889              2.981             32.108
 Vibrational            230.828             57.830             48.333
 Vibration     1          0.596              1.976              4.630
 Vibration     2          0.599              1.966              4.041
 Vibration     3          0.600              1.962              3.880
 Vibration     4          0.607              1.940              3.237
 Vibration     5          0.610              1.929              3.036
 Vibration     6          0.631              1.862              2.293
 Vibration     7          0.640              1.833              2.090
 Vibration     8          0.646              1.815              1.982
 Vibration     9          0.651              1.798              1.891
 Vibration    10          0.659              1.773              1.776
 Vibration    11          0.672              1.736              1.623
 Vibration    12          0.684              1.699              1.496
 Vibration    13          0.704              1.642              1.327
 Vibration    14          0.710              1.624              1.280
 Vibration    15          0.722              1.589              1.198
 Vibration    16          0.745              1.525              1.062
 Vibration    17          0.768              1.464              0.953
 Vibration    18          0.776              1.445              0.921
 Vibration    19          0.788              1.413              0.871
 Vibration    20          0.806              1.367              0.804
 Vibration    21          0.824              1.323              0.745
 Vibration    22          0.840              1.287              0.701
 Vibration    23          0.880              1.195              0.599
 Vibration    24          0.901              1.149              0.553
 Vibration    25          0.911              1.127              0.532
 Vibration    26          0.942              1.065              0.477

                           ! Non-Optimized Parameters !
 Normal termination of Gaussian 16 at Fri Dec 11 00:03:59 2020.

 ----------------------------------------------------------------------
 # B3LYP/6-311++G(d,p) empiricaldispersion=gd3bj scf=xqc pop=npa geom=c
 heck
 ----------------------------------------------------------------------

 ---------------------------------------
 CID_116176141_JID_6457_Energie_neutraal
 ---------------------------------------
 Structure from the checkpoint file:  "JID_6457.chk"
 Charge =  0 Multiplicity = 1

 SCF Done:  E(RB3LYP) =  -710.864311869     A.U. after   16 cycles
 Normal termination of Gaussian 16 at Fri Dec 11 00:11:41 2020.

 ----------------------------------------------------------------------
 # B3LYP/6-311++G(d,p) empiricaldispersion=gd3bj scf=xqc pop=npa geom=c
 heck
 ----------------------------------------------------------------------

 -------------------------------------
 CID_116176141_JID_6457_Energie_kation
 -------------------------------------
 Structure from the checkpoint file:  "JID_6457.chk"
 Charge =  1 Multiplicity = 2

 SCF Done:  E(UB3LYP) =  -710.612684588     A.U. after   21 cycles
 Normal termination of Gaussian 16 at Fri Dec 11 00:25:32 2020.
 Gaussian 16:  ES64L-G16RevA.03 25-Dec-2016

 ----------------------------------------------------------------------
 # B3LYP/6-311++G(d,p) empiricaldispersion=gd3bj scf=xqc pop=npa geom=c
 heck
 ----------------------------------------------------------------------

 ------------------------------------
 CID_116176141_JID_6457_Energie_anion
 ------------------------------------
 Structure from the checkpoint file:  "JID_6457.chk"
 Charge = -1 Multiplicity = 2

                         Standard orientation:
 ---------------------------------------------------------------------
 Center     Atomic      Atomic             Coordinates (Angstroms)
 Number     Number       Type             X           Y           Z
 ---------------------------------------------------------------------
      1          6           0        1.210178   -2.214975    1.586770
      2          6           0        1.630350   -0.756820    1.788032
      3          6           0        0.767385    0.321255    1.106611
      4          6           0        1.267102    1.737170    1.467116
      5          6           0        0.699281    2.651187    0.379780
      6          6           0        0.893203    1.806838   -0.883439
      7          6           0        0.539620    0.333355   -0.490505
      8          6           0        1.519189   -0.611586   -1.246245
      9          8           0        1.167603   -1.518267   -1.984503
     10          7           0        2.856606   -0.343520   -1.069872
     11          7           0       -0.820413   -0.001197   -0.908189
     12          6           0       -1.361759   -1.334826   -0.645498
     13          6           0       -2.328115   -1.392804    0.551224
     14          7           0       -3.397548   -0.386822    0.504525
     15          6           0       -2.832280    0.944363    0.260611
     16          6           0       -1.893215    0.984416   -0.957410
     17          1           0        0.171760   -2.377644    1.894015
     18          1           0        1.840513   -2.877512    2.190580
     19          1           0        1.306531   -2.529782    0.544239
     20          1           0        1.608377   -0.531664    2.863513
     21          1           0        2.680585   -0.645805    1.492859
     22          1           0       -0.241762    0.218637    1.512400
     23          1           0        0.975139    2.027513    2.482360
     24          1           0        2.367450    1.766477    1.435482
     25          1           0        1.206720    3.619859    0.319352
     26          1           0       -0.362477    2.847608    0.569595
     27          1           0        1.945401    1.857304   -1.174159
     28          1           0        0.327842    2.134760   -1.757783
     29          1           0        3.192131    0.265694   -0.340236
     30          1           0        3.499859   -1.032583   -1.433908
     31          1           0       -1.913019   -1.653766   -1.545735
     32          1           0       -0.549084   -2.045787   -0.524283
     33          1           0       -1.782275   -1.243194    1.491061
     34          1           0       -2.788998   -2.387022    0.605526
     35          1           0       -4.013651   -0.614580   -0.278056
     36          1           0       -2.287422    1.248879    1.164723
     37          1           0       -3.656735    1.655643    0.123633
     38          1           0       -1.499842    1.991100   -1.094872
     39          1           0       -2.504011    0.767332   -1.851807
 ---------------------------------------------------------------------

 SCF Done:  E(UB3LYP) =  -710.853214573     A.U. after   32 cycles

 The electronic state is 2-A.
 Alpha  occ. eigenvalues --  -18.98878 -14.22538 -14.20860 -14.20218 -10.17277
 Alpha  occ. eigenvalues --  -10.12522 -10.09892 -10.09835 -10.09689 -10.09008
 Alpha  occ. eigenvalues --  -10.07752 -10.07211 -10.06843 -10.06797 -10.06514
 Alpha  occ. eigenvalues --  -10.06192  -0.94092  -0.84423  -0.80437  -0.79729
 Alpha  occ. eigenvalues --   -0.73509  -0.67917  -0.66454  -0.63628  -0.60754
 Alpha  occ. eigenvalues --   -0.56405  -0.54890  -0.52537  -0.50650  -0.49048
 Alpha  occ. eigenvalues --   -0.47580  -0.45913  -0.43584  -0.40303  -0.38936
 Alpha  occ. eigenvalues --   -0.38103  -0.36864  -0.35761  -0.35242  -0.34456
 Alpha  occ. eigenvalues --   -0.34365  -0.33389  -0.31812  -0.31589  -0.30935
 Alpha  occ. eigenvalues --   -0.30441  -0.29822  -0.27770  -0.27112  -0.26501
 Alpha  occ. eigenvalues --   -0.25919  -0.25246  -0.24852  -0.24084  -0.23928
 Alpha  occ. eigenvalues --   -0.22974  -0.22309  -0.21484  -0.17214  -0.15594
 Alpha  occ. eigenvalues --   -0.15375  -0.09429   0.04273
 Alpha virt. eigenvalues --    0.06083   0.06919   0.07209   0.08089   0.08555
 Alpha virt. eigenvalues --    0.09003   0.09561   0.09865   0.10464   0.10993
 Alpha virt. eigenvalues --    0.11334   0.11725   0.11924   0.12274   0.13047

  Beta  occ. eigenvalues --  -18.98872 -14.22475 -14.20855 -14.20218 -10.17273
  Beta  occ. eigenvalues --  -10.12518 -10.09881 -10.09823 -10.09685 -10.09006
  Beta  occ. eigenvalues --  -10.07750 -10.07194 -10.06815 -10.06776 -10.06479
  Beta  occ. eigenvalues --  -10.06180  -0.94078  -0.84415  -0.80387  -0.79684
  Beta  occ. eigenvalues --   -0.73479  -0.67885  -0.66437  -0.63595  -0.60720
  Beta  occ. eigenvalues --   -0.56380  -0.54865  -0.52488  -0.50589  -0.48987
  Beta  occ. eigenvalues --   -0.47510  -0.45849  -0.43544  -0.40266  -0.38895
  Beta  occ. eigenvalues --   -0.38080  -0.36842  -0.35743  -0.35218  -0.34441
  Beta  occ. eigenvalues --   -0.34340  -0.33369  -0.31783  -0.31561  -0.30903
  Beta  occ. eigenvalues --   -0.30420  -0.29798  -0.27745  -0.27082  -0.26478
  Beta  occ. eigenvalues --   -0.25901  -0.25215  -0.24827  -0.24057  -0.23893
  Beta  occ. eigenvalues --   -0.22930  -0.22278  -0.21454  -0.17168  -0.15578
  Beta  occ. eigenvalues --   -0.15349  -0.09419
  Beta virt. eigenvalues --    0.06183   0.07123   0.07355   0.07954   0.08659
  Beta virt. eigenvalues --    0.08911   0.09360   0.10002   0.10092   0.10772
  Beta virt. eigenvalues --    0.11312   0.11607   0.11928   0.12347   0.12509

 Mulliken charges and spin densities:
               1          2
     1  C   -0.297477  -0.288653
     2  C    0.516095  -0.812748
     3  C   -0.253499   0.572121
     4  C    0.729076  -1.320381
     5  C    0.079315  -0.207171
     6  C   -0.430424  -0.401786
     7  C   -0.276515   0.073698
     8  C    0.219684  -0.598695
     9  O   -0.275075  -0.004299
    10  N   -0.391728   0.080678
    11  N    0.446762   0.085896
    12  C    0.013749  -0.055743
    13  C   -0.332129  -0.221195
    14  N   -0.112009   0.061192
    15  C   -0.026123  -0.493229
    16  C   -0.004223  -0.032131
    17  H    0.156064  -0.027973
    18  H   -0.232897   0.397417
    19  H    0.032942   0.155542
    20  H   -0.319800   0.492037
    21  H   -0.080780   0.193012
    22  H    0.536523  -0.449762
    23  H   -0.236602   0.411891
    24  H   -0.285757   0.436965
    25  H   -0.659912   0.875011
    26  H    0.165743  -0.078673
    27  H   -0.112737   0.299582
    28  H    0.015261   0.149799
    29  H   -0.113525   0.394137
    30  H   -0.179990   0.485260
    31  H    0.135134   0.050376
    32  H    0.269460  -0.143453
    33  H    0.080040   0.122168
    34  H    0.045198   0.107016
    35  H    0.177169   0.037246
    36  H    0.074836   0.120179
    37  H   -0.258032   0.425461
    38  H    0.074740   0.052906
    39  H    0.111438   0.056302
 Sum of Mulliken charges =  -1.00000   1.00000

 Dipole moment (field-independent basis, Debye):
    X=             -6.5854    Y=             -2.1806    Z=             -1.1764  Tot=              7.0361
 Quadrupole moment (field-independent basis, Debye-Ang):
   XX=           -170.5294   YY=           -148.1125   ZZ=           -144.2403
   XY=             -2.2270   XZ=              0.5907   YZ=             -5.3802

 Summary of Natural Population Analysis:

                                       Natural Population
                Natural  -----------------------------------------------
    Atom  No    Charge         Core      Valence    Rydberg      Total
 -----------------------------------------------------------------------
      C    1   -0.28721      0.99965     2.28212    0.00544     3.28721
      C    2   -0.19064      0.99961     2.18160    0.00943     3.19064
      C    3   -0.11815      0.99956     2.10661    0.01198     3.11815
      C    4   -0.18758      0.99961     2.17864    0.00933     3.18758
      C    5   -0.19144      0.99962     2.18325    0.00857     3.19144
      C    6   -0.19412      0.99960     2.18452    0.01000     3.19412
      C    7    0.04718      0.99949     1.93648    0.01686     2.95282
      C    8    0.34625      0.99962     1.62881    0.02532     2.65375
      O    9   -0.32078      0.99987     3.31505    0.00585     4.32078
      N   10   -0.40709      0.99970     2.89857    0.00882     3.90709
      N   11   -0.28708      0.99968     2.77306    0.01434     3.78708
      C   12   -0.09420      0.99960     2.08477    0.00983     3.09420
      C   13   -0.09790      0.99962     2.08836    0.00992     3.09790
      N   14   -0.33738      0.99977     2.82512    0.01249     3.83738
      C   15   -0.09806      0.99962     2.08728    0.01116     3.09806
      C   16   -0.09179      0.99960     2.08037    0.01182     3.09179
      H   17    0.09357      0.00000     0.40545    0.00097     0.40643
      H   18    0.09957      0.00000     0.39970    0.00073     0.40043
      H   19    0.10139      0.00000     0.39746    0.00115     0.39861
      H   20    0.09822      0.00000     0.40061    0.00117     0.40178
      H   21    0.09740      0.00000     0.40032    0.00227     0.40260
      H   22    0.10020      0.00000     0.39714    0.00266     0.39980
      H   23    0.10250      0.00000     0.39641    0.00109     0.39750
      H   24    0.09733      0.00000     0.39946    0.00321     0.40267
      H   25    0.10415      0.00000     0.39447    0.00137     0.39585
      H   26    0.09175      0.00000     0.40666    0.00159     0.40825
      H   27    0.10862      0.00000     0.38930    0.00208     0.39138
      H   28    0.10485      0.00000     0.39407    0.00108     0.39515
      H   29    0.19904      0.00000     0.29524    0.00572     0.30096
      H   30    0.19776      0.00000     0.29977    0.00247     0.30224
      H   31    0.08773      0.00000     0.41095    0.00132     0.41227
      H   32    0.11190      0.00000     0.38675    0.00134     0.38810
      H   33    0.08904      0.00000     0.40938    0.00158     0.41096
      H   34    0.09161      0.00000     0.40744    0.00094     0.40839
      H   35    0.16427      0.00000     0.33312    0.00262     0.33573
      H   36    0.08977      0.00000     0.40872    0.00152     0.41023
      H   37    0.09243      0.00000     0.40647    0.00110     0.40757
      H   38    0.10146      0.00000     0.39723    0.00132     0.39854
      H   39    0.08545      0.00000     0.41306    0.00149     0.41455
 =======================================================================
   * Total *   -0.00000     15.99423    45.78380    0.22197    62.00000

 Normal termination of Gaussian 16 at Fri Dec 11 00:46:37 2020.
