 Gaussian 16, Revision A.03,

 -----------------------------------------------------------
 # opt freq B3LYP/6-31G(d) empiricaldispersion=gd3bj scf=xqc
 -----------------------------------------------------------

 -------------------------------
 CID_137732104_JID_9414_neutraal
 -------------------------------
 Symbolic Z-matrix:
 Charge =  0 Multiplicity = 1

 SCF Done:  E(RB3LYP) =  -919.248583865     A.U. after   15 cycles
 SCF Done:  E(RB3LYP) =  -919.253289861     A.U. after   14 cycles
 SCF Done:  E(RB3LYP) =  -919.253705596     A.U. after   14 cycles
 SCF Done:  E(RB3LYP) =  -919.255769414     A.U. after   13 cycles
 SCF Done:  E(RB3LYP) =  -919.257266010     A.U. after   13 cycles
 SCF Done:  E(RB3LYP) =  -919.258060584     A.U. after   14 cycles
 SCF Done:  E(RB3LYP) =  -919.258728897     A.U. after   14 cycles
 SCF Done:  E(RB3LYP) =  -919.259245356     A.U. after   13 cycles
 SCF Done:  E(RB3LYP) =  -919.259605885     A.U. after   12 cycles
 SCF Done:  E(RB3LYP) =  -919.259687403     A.U. after   12 cycles
 SCF Done:  E(RB3LYP) =  -919.259757755     A.U. after    8 cycles
 SCF Done:  E(RB3LYP) =  -919.259757826     A.U. after    8 cycles
 SCF Done:  E(RB3LYP) =  -919.259757866     A.U. after    8 cycles
 SCF Done:  E(RB3LYP) =  -919.259757909     A.U. after    8 cycles
 SCF Done:  E(RB3LYP) =  -919.259757962     A.U. after    8 cycles
 SCF Done:  E(RB3LYP) =  -919.259757979     A.U. after    7 cycles
 Optimization completed.
    -- Stationary point found.
 Normal termination of Gaussian 16 at Sun Dec 13 16:21:15 2020.

 --------------------------------------------------------------------
 #N Geom=AllCheck Guess=TCheck SCRF=Check GenChk RB3LYP/6-31G(d) Freq
 --------------------------------------------------------------------

 Structure from the checkpoint file:  "JID_9414.chk"
 -------------------------------
 CID_137732104_JID_9414_neutraal
 -------------------------------
 Charge =  0 Multiplicity = 1

 SCF Done:  E(RB3LYP) =  -919.259757979     A.U. after    1 cycles

  Exact polarizability: 214.223 -18.535 170.335 -11.629  -8.498 104.571
 Approx polarizability: 283.033 -41.657 271.628 -21.649 -30.574 167.353

                      1                      2                      3
                      A                      A                      A
 Frequencies --     17.3223                23.0269                30.8766
 Red. masses --      2.5848                 6.0082                 5.7562
 Frc consts  --      0.0005                 0.0019                 0.0032
 IR Inten    --      0.1466                 0.9613                 0.7577

                      4                      5                      6
                      A                      A                      A
 Frequencies --     42.4732                53.4611                57.7981
 Red. masses --      5.5940                 3.9454                 5.5955
 Frc consts  --      0.0059                 0.0066                 0.0110
 IR Inten    --      1.4469                 1.1324                 0.6418

                      7                      8                      9
                      A                      A                      A
 Frequencies --     81.2351                96.7102               110.6370
 Red. masses --      6.8835                 3.9754                 3.1361
 Frc consts  --      0.0268                 0.0219                 0.0226
 IR Inten    --      3.7416                 0.8660                 1.1705

                     10                     11                     12
                      A                      A                      A
 Frequencies --    112.9210               175.6218               185.6909
 Red. masses --      3.6116                 3.2836                 2.4420
 Frc consts  --      0.0271                 0.0597                 0.0496
 IR Inten    --      0.2332                 1.5953                 0.1818

                     13                     14                     15
                      A                      A                      A
 Frequencies --    221.5779               232.0210               246.0604
 Red. masses --      2.3928                 2.2710                 3.5439
 Frc consts  --      0.0692                 0.0720                 0.1264
 IR Inten    --      1.4619                 0.5648                 0.9682

                     16                     17                     18
                      A                      A                      A
 Frequencies --    290.4467               303.7176               340.1751
 Red. masses --      3.7490                 4.6361                 3.2402
 Frc consts  --      0.1863                 0.2520                 0.2209
 IR Inten    --      3.6917                 2.6744                 1.9291

                     19                     20                     21
                      A                      A                      A
 Frequencies --    361.2357               390.0037               405.8315
 Red. masses --      4.2745                 3.4993                 3.9799
 Frc consts  --      0.3286                 0.3136                 0.3862
 IR Inten    --      1.1524                 3.6243                 1.6876

                     22                     23                     24
                      A                      A                      A
 Frequencies --    433.8306               439.9034               491.5870
 Red. masses --      2.7496                 2.8838                 3.1438
 Frc consts  --      0.3049                 0.3288                 0.4476
 IR Inten    --      1.6029                 3.4340                 0.9938

                     25                     26                     27
                      A                      A                      A
 Frequencies --    525.5332               539.0429               559.7772
 Red. masses --      5.3230                 4.3369                 5.0474
 Frc consts  --      0.8662                 0.7425                 0.9319
 IR Inten    --      3.9255                12.2773                12.1080

                     28                     29                     30
                      A                      A                      A
 Frequencies --    569.7297               592.2563               630.7946
 Red. masses --      3.5602                 4.0041                 3.1565
 Frc consts  --      0.6809                 0.8275                 0.7400
 IR Inten    --      2.3025                50.9724                36.4102

                     31                     32                     33
                      A                      A                      A
 Frequencies --    639.8882               679.0394               726.6502
 Red. masses --      1.7403                 1.6791                 4.3960
 Frc consts  --      0.4198                 0.4561                 1.3676
 IR Inten    --     12.2310               133.1540                16.6790

                     34                     35                     36
                      A                      A                      A
 Frequencies --    734.1559               750.6330               810.2152
 Red. masses --      4.3944                 3.8060                 2.3365
 Frc consts  --      1.3955                 1.2635                 0.9037
 IR Inten    --      1.4316                 5.3579                23.3546

                     37                     38                     39
                      A                      A                      A
 Frequencies --    822.7707               836.9199               852.9259
 Red. masses --      2.0532                 1.4750                 2.0229
 Frc consts  --      0.8189                 0.6087                 0.8671
 IR Inten    --     14.8690                 2.4022                 0.6634

                     40                     41                     42
                      A                      A                      A
 Frequencies --    885.9458               902.9258               941.4507
 Red. masses --      1.7269                 2.7295                 1.3803
 Frc consts  --      0.7986                 1.3111                 0.7208
 IR Inten    --     13.0418                 3.5593                 1.4162

                     43                     44                     45
                      A                      A                      A
 Frequencies --    946.3061               950.7201               954.5230
 Red. masses --      1.4787                 2.0866                 1.3584
 Frc consts  --      0.7802                 1.1112                 0.7292
 IR Inten    --      0.3565                 8.0201                37.9993

                     46                     47                     48
                      A                      A                      A
 Frequencies --    986.1112              1009.0214              1032.2092
 Red. masses --      2.9093                 1.7377                 2.7714
 Frc consts  --      1.6668                 1.0424                 1.7397
 IR Inten    --     34.7387                 5.2427               140.4989

                     49                     50                     51
                      A                      A                      A
 Frequencies --   1040.6100              1072.5867              1093.4623
 Red. masses --      1.5892                 3.8759                 2.6409
 Frc consts  --      1.0139                 2.6271                 1.8604
 IR Inten    --     25.5930                38.1853               113.4761

                     52                     53                     54
                      A                      A                      A
 Frequencies --   1126.6368              1156.3660              1185.0491
 Red. masses --      1.9601                 1.4665                 2.0349
 Frc consts  --      1.4659                 1.1554                 1.6837
 IR Inten    --     21.6701                63.9389                33.2862

                     55                     56                     57
                      A                      A                      A
 Frequencies --   1189.2850              1198.8721              1211.4647
 Red. masses --      1.9783                 1.7182                 1.7527
 Frc consts  --      1.6486                 1.4550                 1.5156
 IR Inten    --     42.9096               189.8959                13.1306

                     58                     59                     60
                      A                      A                      A
 Frequencies --   1249.3779              1259.9031              1273.8621
 Red. masses --      1.8790                 1.8887                 1.2984
 Frc consts  --      1.7281                 1.7664                 1.2414
 IR Inten    --     83.0890                30.7126                61.0493

                     61                     62                     63
                      A                      A                      A
 Frequencies --   1308.3615              1310.4279              1320.4023
 Red. masses --      1.6291                 1.5895                 1.9490
 Frc consts  --      1.6430                 1.6082                 2.0021
 IR Inten    --    124.7663                24.9380               102.2449

                     64                     65                     66
                      A                      A                      A
 Frequencies --   1328.2788              1335.7993              1366.6780
 Red. masses --      1.3520                 1.4537                 4.0587
 Frc consts  --      1.4055                 1.5283                 4.4665
 IR Inten    --     12.5302                66.6154                26.9610

                     67                     68                     69
                      A                      A                      A
 Frequencies --   1405.2270              1410.0631              1420.0802
 Red. masses --      1.3002                 3.0209                 1.3165
 Frc consts  --      1.5128                 3.5389                 1.5642
 IR Inten    --     22.8178                21.5434                 4.0002

                     70                     71                     72
                      A                      A                      A
 Frequencies --   1445.5390              1475.1356              1484.1495
 Red. masses --      1.2786                 1.7326                 1.7114
 Frc consts  --      1.5742                 2.2213                 2.2210
 IR Inten    --     23.7091                12.0497                41.2435

                     73                     74                     75
                      A                      A                      A
 Frequencies --   1493.9109              1518.4358              1534.3230
 Red. masses --      1.1123                 1.0457                 1.0617
 Frc consts  --      1.4626                 1.4206                 1.4726
 IR Inten    --      9.3835                 4.1100                 7.3056

                     76                     77                     78
                      A                      A                      A
 Frequencies --   1541.0108              1549.5576              1560.3075
 Red. masses --      1.1162                 1.0954                 2.9470
 Frc consts  --      1.5617                 1.5497                 4.2272
 IR Inten    --      8.9145                 3.6139               196.1023

                     79                     80                     81
                      A                      A                      A
 Frequencies --   1636.4444              1659.9573              1740.6921
 Red. masses --      7.0745                 5.8961                 4.6096
 Frc consts  --     11.1622                 9.5722                 8.2292
 IR Inten    --     17.3471                28.7691                 1.4708

                     82                     83                     84
                      A                      A                      A
 Frequencies --   1818.2634              1826.0144              3006.0594
 Red. masses --     10.8503                11.9519                 1.0694
 Frc consts  --     21.1352                23.4798                 5.6934
 IR Inten    --    259.5466               148.6585                39.5647

                     85                     86                     87
                      A                      A                      A
 Frequencies --   3049.3143              3062.9440              3089.2878
 Red. masses --      1.0676                 1.0372                 1.0577
 Frc consts  --      5.8487                 5.7331                 5.9472
 IR Inten    --     39.9867                15.4192                 9.6960

                     88                     89                     90
                      A                      A                      A
 Frequencies --   3108.7151              3115.8080              3130.1098
 Red. masses --      1.0926                 1.0982                 1.1012
 Frc consts  --      6.2212                 6.2819                 6.3566
 IR Inten    --     17.4076                21.9134                24.9300

                     91                     92                     93
                      A                      A                      A
 Frequencies --   3146.0296              3155.0442              3158.5765
 Red. masses --      1.1072                 1.1025                 1.0590
 Frc consts  --      6.4564                 6.4658                 6.2249
 IR Inten    --      4.1710                20.1992                14.7959

                     94                     95                     96
                      A                      A                      A
 Frequencies --   3172.4453              3196.5285              3217.1518
 Red. masses --      1.0926                 1.0886                 1.0940
 Frc consts  --      6.4789                 6.5533                 6.6710
 IR Inten    --      8.3543                 6.6643                 8.6519

                     97                     98                     99
                      A                      A                      A
 Frequencies --   3241.0385              3245.5938              3679.9853
 Red. masses --      1.1156                 1.0894                 1.0641
 Frc consts  --      6.9047                 6.7612                 8.4906
 IR Inten    --     19.9287                 2.5670                53.6242

 - Thermochemistry -
 -------------------
 Temperature   298.150 Kelvin.  Pressure   1.00000 Atm.
 Atom     1 has atomic number  6 and mass  12.00000

 Molecular mass:   264.09977 amu.
 Principal axes and moments of inertia in atomic units:
                           1         2         3
     Eigenvalues --  2662.343859197.48588**********
           X            0.99999   0.00156  -0.00403
           Y           -0.00155   0.99999   0.00340
           Z            0.00403  -0.00339   0.99999
 This molecule is an asymmetric top.
 Rotational symmetry number  1.
 Warning -- assumption of classical behavior for rotation
           may cause significant error
 Rotational temperatures (Kelvin)      0.03253     0.00942     0.00801
 Rotational constants (GHZ):           0.67788     0.19622     0.16693
 Zero-point vibrational energy     737766.2 (Joules/Mol)
                                  176.33036 (Kcal/Mol)
 Warning -- explicit consideration of  29 degrees of freedom as
           vibrations may cause significant error
 Vibrational temperatures:     24.92    33.13    44.42    61.11    76.92
          (Kelvin)             83.16   116.88   139.14   159.18   162.47
                              252.68   267.17   318.80   333.83   354.03
                              417.89   436.98   489.44   519.74   561.13
                              583.90   624.19   632.92   707.28   756.13
                              775.56   805.39   819.71   852.12   907.57
                              920.66   976.99  1045.49  1056.29  1079.99
                             1165.72  1183.78  1204.14  1227.17  1274.68
                             1299.11  1354.54  1361.52  1367.87  1373.35
                             1418.79  1451.76  1485.12  1497.21  1543.21
                             1573.25  1620.98  1663.75  1705.02  1711.12
                             1724.91  1743.03  1797.58  1812.72  1832.80
                             1882.44  1885.41  1899.76  1911.10  1921.92
                             1966.34  2021.81  2028.77  2043.18  2079.81
                             2122.39  2135.36  2149.40  2184.69  2207.55
                             2217.17  2229.47  2244.93  2354.48  2388.31
                             2504.47  2616.08  2627.23  4325.05  4387.28
                             4406.89  4444.80  4472.75  4482.95  4503.53
                             4526.43  4539.40  4544.49  4564.44  4599.09
                             4628.76  4663.13  4669.69  5294.68

 Zero-point correction=                           0.281000 (Hartree/Particle)
 Thermal correction to Energy=                    0.300302
 Thermal correction to Enthalpy=                  0.301247
 Thermal correction to Gibbs Free Energy=         0.229625
 Sum of electronic and zero-point Energies=           -918.978758
 Sum of electronic and thermal Energies=              -918.959456
 Sum of electronic and thermal Enthalpies=            -918.958511
 Sum of electronic and thermal Free Energies=         -919.030133

                     E (Thermal)             CV                S
                      KCal/Mol        Cal/Mol-Kelvin    Cal/Mol-Kelvin
 Total                  188.443             69.895            150.740
 Electronic               0.000              0.000              0.000
 Translational            0.889              2.981             42.613
 Rotational               0.889              2.981             33.937
 Vibrational            186.665             63.934             74.191
 Vibration     1          0.593              1.986              6.920
 Vibration     2          0.593              1.985              6.354
 Vibration     3          0.594              1.984              5.772
 Vibration     4          0.595              1.980              5.140
 Vibration     5          0.596              1.976              4.685
 Vibration     6          0.596              1.974              4.531
 Vibration     7          0.600              1.962              3.861
 Vibration     8          0.603              1.952              3.520
 Vibration     9          0.606              1.941              3.258
 Vibration    10          0.607              1.939              3.218
 Vibration    11          0.628              1.872              2.374
 Vibration    12          0.632              1.859              2.270
 Vibration    13          0.648              1.808              1.946
 Vibration    14          0.653              1.792              1.863
 Vibration    15          0.661              1.769              1.759
 Vibration    16          0.686              1.692              1.471
 Vibration    17          0.695              1.667              1.396
 Vibration    18          0.720              1.595              1.211
 Vibration    19          0.735              1.552              1.117
 Vibration    20          0.758              1.492              1.000
 Vibration    21          0.771              1.458              0.941
 Vibration    22          0.795              1.397              0.846
 Vibration    23          0.800              1.383              0.827
 Vibration    24          0.847              1.269              0.679
 Vibration    25          0.880              1.193              0.597
 Vibration    26          0.894              1.164              0.567
 Vibration    27          0.915              1.118              0.524
 Vibration    28          0.926              1.097              0.505
 Vibration    29          0.950              1.048              0.463

 Optimization completed.
    -- Stationary point found.
 Normal termination of Gaussian 16 at Sun Dec 13 16:37:19 2020.

 ----------------------------------------------------------------------
 # B3LYP/6-311++G(d,p) empiricaldispersion=gd3bj scf=xqc pop=npa geom=c
 heck
 ----------------------------------------------------------------------

 ---------------------------------------
 CID_137732104_JID_9414_Energie_neutraal
 ---------------------------------------
 Structure from the checkpoint file:  "JID_9414.chk"
 Charge =  0 Multiplicity = 1

 SCF Done:  E(RB3LYP) =  -919.530009145     A.U. after   15 cycles
 Normal termination of Gaussian 16 at Sun Dec 13 16:44:05 2020.

 ----------------------------------------------------------------------
 # B3LYP/6-311++G(d,p) empiricaldispersion=gd3bj scf=xqc pop=npa geom=c
 heck
 ----------------------------------------------------------------------

 -------------------------------------
 CID_137732104_JID_9414_Energie_kation
 -------------------------------------
 Structure from the checkpoint file:  "JID_9414.chk"
 Charge =  1 Multiplicity = 2

 SCF Done:  E(UB3LYP) =  -919.241675166     A.U. after   24 cycles
 Normal termination of Gaussian 16 at Sun Dec 13 16:59:43 2020.
 Gaussian 16:  ES64L-G16RevA.03 25-Dec-2016

 ----------------------------------------------------------------------
 # B3LYP/6-311++G(d,p) empiricaldispersion=gd3bj scf=xqc pop=npa geom=c
 heck
 ----------------------------------------------------------------------

 ------------------------------------
 CID_137732104_JID_9414_Energie_anion
 ------------------------------------
 Structure from the checkpoint file:  "JID_9414.chk"
 Charge = -1 Multiplicity = 2

                         Standard orientation:
 ---------------------------------------------------------------------
 Center     Atomic      Atomic             Coordinates (Angstroms)
 Number     Number       Type             X           Y           Z
 ---------------------------------------------------------------------
      1          6           0       -0.081315    3.242761    0.322887
      2          6           0       -1.008921    2.680993   -0.747735
      3          8           0       -1.591948    1.428450   -0.372986
      4          6           0       -0.824772    0.300646   -0.392063
      5          6           0       -1.419617   -0.862629    0.145287
      6          6           0       -0.693411   -2.049266    0.182996
      7          6           0        0.614259   -2.106767   -0.299104
      8          6           0        1.197021   -0.968031   -0.857469
      9          6           0        0.474047    0.230514   -0.897841
     10          6           0        2.638807   -1.006431   -1.335722
     11          6           0        3.542674   -0.892081   -0.124102
     12          8           0        4.177702   -1.803836    0.354194
     13          6           0        3.585717    0.512760    0.517829
     14          8           0        3.242184    1.523463   -0.059512
     15          8           0        4.071883    0.484755    1.765605
     16          8           0       -2.676469   -0.843630    0.691605
     17          6           0       -3.757565   -0.559138   -0.217065
     18          6           0       -5.038244   -0.908428    0.473082
     19          6           0       -6.078744   -0.082542    0.567496
     20          1           0       -0.609896    3.302274    1.279508
     21          1           0        0.239031    4.251815    0.039600
     22          1           0        0.814128    2.629870    0.454959
     23          1           0       -1.870553    3.338434   -0.889852
     24          1           0       -0.501515    2.586513   -1.716324
     25          1           0       -1.174529   -2.922184    0.612350
     26          1           0        1.176877   -3.034152   -0.244044
     27          1           0        0.956946    1.112763   -1.296336
     28          1           0        2.869413   -1.953122   -1.830163
     29          1           0        2.836276   -0.178080   -2.021656
     30          1           0        4.077452    1.408482    2.081686
     31          1           0       -3.739035    0.493136   -0.515440
     32          1           0       -3.625086   -1.176608   -1.118971
     33          1           0       -5.086928   -1.912179    0.893073
     34          1           0       -7.007428   -0.382089    1.044973
     35          1           0       -6.041576    0.927348    0.164524
 ---------------------------------------------------------------------

 SCF Done:  E(UB3LYP) =  -919.556991700     A.U. after   28 cycles

 The electronic state is 2-A.
 Alpha  occ. eigenvalues --  -19.04868 -19.03721 -19.01113 -18.94116 -18.91630
 Alpha  occ. eigenvalues --  -10.13378 -10.13376 -10.11847 -10.11446 -10.10467
 Alpha  occ. eigenvalues --  -10.10447 -10.09806 -10.06560 -10.05781 -10.05541
 Alpha  occ. eigenvalues --  -10.05475 -10.04621 -10.04504 -10.02964  -0.96957
 Alpha  occ. eigenvalues --   -0.94984  -0.94672  -0.86033  -0.85677  -0.73918
 Alpha  occ. eigenvalues --   -0.71424  -0.67625  -0.64896  -0.62276  -0.60577
 Alpha  occ. eigenvalues --   -0.56565  -0.54272  -0.50738  -0.49304  -0.48467
 Alpha  occ. eigenvalues --   -0.46895  -0.43151  -0.40846  -0.40331  -0.39849
 Alpha  occ. eigenvalues --   -0.38790  -0.36545  -0.35453  -0.34715  -0.33651
 Alpha  occ. eigenvalues --   -0.33371  -0.32785  -0.31508  -0.31195  -0.30064
 Alpha  occ. eigenvalues --   -0.29839  -0.29125  -0.27945  -0.27207  -0.26366
 Alpha  occ. eigenvalues --   -0.26021  -0.25568  -0.25088  -0.24002  -0.22454
 Alpha  occ. eigenvalues --   -0.21926  -0.20668  -0.20235  -0.19585  -0.18072
 Alpha  occ. eigenvalues --   -0.17339  -0.14441  -0.12757  -0.10488  -0.06865
 Alpha  occ. eigenvalues --    0.03992
 Alpha virt. eigenvalues --    0.06035   0.06364   0.07161   0.08335   0.08739
 Alpha virt. eigenvalues --    0.09556   0.10065   0.10361   0.10937   0.11083
 Alpha virt. eigenvalues --    0.11556   0.11856   0.11963   0.12409   0.13473

  Beta  occ. eigenvalues --  -19.04873 -19.03716 -19.01025 -18.93760 -18.90898
  Beta  occ. eigenvalues --  -10.13375 -10.13369 -10.11871 -10.11169 -10.10465
  Beta  occ. eigenvalues --  -10.10372 -10.09804 -10.06555 -10.05542 -10.05415
  Beta  occ. eigenvalues --  -10.05413 -10.04571 -10.04490 -10.03005  -0.96956
  Beta  occ. eigenvalues --   -0.94653  -0.94618  -0.85147  -0.84733  -0.73850
  Beta  occ. eigenvalues --   -0.71401  -0.67601  -0.64761  -0.62216  -0.60464
  Beta  occ. eigenvalues --   -0.56347  -0.54158  -0.49957  -0.49272  -0.48412
  Beta  occ. eigenvalues --   -0.46826  -0.43104  -0.40732  -0.40275  -0.39427
  Beta  occ. eigenvalues --   -0.38628  -0.36534  -0.35425  -0.34676  -0.33590
  Beta  occ. eigenvalues --   -0.33147  -0.32459  -0.31204  -0.30877  -0.29948
  Beta  occ. eigenvalues --   -0.29530  -0.28297  -0.27814  -0.26870  -0.26239
  Beta  occ. eigenvalues --   -0.25530  -0.25492  -0.24878  -0.23818  -0.22079
  Beta  occ. eigenvalues --   -0.21594  -0.20546  -0.20222  -0.17997  -0.16734
  Beta  occ. eigenvalues --   -0.15730  -0.14027  -0.12462  -0.10222  -0.06211
  Beta virt. eigenvalues --    0.06014   0.06378   0.07118   0.08288   0.08671
  Beta virt. eigenvalues --    0.09415   0.09906   0.10219   0.10816   0.11005
  Beta virt. eigenvalues --    0.11528   0.11658   0.11921   0.12370   0.13396

 Mulliken charges and spin densities:
               1          2
     1  C   -0.431648  -0.015575
     2  C   -0.167496  -0.017457
     3  O   -0.090248   0.000226
     4  C   -0.540008  -0.115459
     5  C   -0.360398   0.073838
     6  C    0.020484   0.053497
     7  C   -0.434880  -0.002883
     8  C    0.807491   0.215595
     9  C   -0.044243  -0.004722
    10  C   -0.058929  -0.243560
    11  C   -0.093231   0.334590
    12  O   -0.389180   0.255725
    13  C   -0.270270   0.163318
    14  O   -0.394316   0.121636
    15  O   -0.148597   0.014766
    16  O   -0.125474  -0.000265
    17  C   -0.370963  -0.004663
    18  C    0.277788   0.015769
    19  C   -0.523347  -0.009876
    20  H    0.129671   0.002374
    21  H    0.104044  -0.000962
    22  H    0.244656   0.010782
    23  H    0.147621  -0.000935
    24  H    0.110949   0.011254
    25  H    0.145085   0.004124
    26  H    0.161114  -0.008224
    27  H    0.160738   0.054684
    28  H    0.120969   0.046460
    29  H    0.094675   0.044049
    30  H    0.227880  -0.002501
    31  H    0.167014  -0.000492
    32  H    0.124463   0.000322
    33  H    0.167306   0.001329
    34  H    0.123048   0.002406
    35  H    0.108231   0.000833
 Sum of Mulliken charges =  -1.00000   1.00000

 Dipole moment (field-independent basis, Debye):
    X=            -11.4780    Y=              3.8104    Z=             -1.6571  Tot=             12.2070
 Quadrupole moment (field-independent basis, Debye-Ang):
   XX=           -182.3545   YY=           -124.9251   ZZ=           -122.9095
   XY=             11.8047   XZ=             -1.6891   YZ=              2.8464

 Summary of Natural Population Analysis:

                                       Natural Population
                Natural  -----------------------------------------------
    Atom  No    Charge         Core      Valence    Rydberg      Total
 -----------------------------------------------------------------------
      C    1   -0.30524      0.99966     2.30163    0.00394     3.30524
      C    2   -0.00844      0.99959     1.99932    0.00952     3.00844
      O    3   -0.28592      0.99986     3.27572    0.01035     4.28592
      C    4    0.13352      0.99935     1.85279    0.01433     2.86648
      C    5    0.13116      0.99934     1.85635    0.01314     2.86884
      C    6   -0.11414      0.99953     2.10645    0.00816     3.11414
      C    7   -0.10624      0.99951     2.09847    0.00826     3.10624
      C    8    0.00625      0.99951     1.98298    0.01125     2.99375
      C    9   -0.12881      0.99947     2.12011    0.00923     3.12881
      C   10   -0.24101      0.99958     2.23045    0.01098     3.24101
      C   11    0.28025      0.99965     1.69647    0.02364     2.71975
      O   12   -0.20868      0.99987     3.20187    0.00694     4.20868
      C   13    0.40349      0.99971     1.56992    0.02688     2.59651
      O   14   -0.30761      0.99987     3.30025    0.00749     4.30761
      O   15   -0.33548      0.99987     3.32767    0.00793     4.33548
      O   16   -0.29125      0.99986     3.28032    0.01108     4.29125
      C   17   -0.02723      0.99954     2.01735    0.01034     3.02723
      C   18   -0.08284      0.99957     2.07393    0.00933     3.08284
      C   19   -0.19365      0.99958     2.18712    0.00695     3.19365
      H   20    0.09724      0.00000     0.40181    0.00094     0.40276
      H   21    0.09621      0.00000     0.40298    0.00081     0.40379
      H   22    0.12146      0.00000     0.37758    0.00096     0.37854
      H   23    0.08369      0.00000     0.41524    0.00107     0.41631
      H   24    0.08371      0.00000     0.41511    0.00118     0.41629
      H   25    0.09886      0.00000     0.40008    0.00106     0.40114
      H   26    0.10246      0.00000     0.39631    0.00123     0.39754
      H   27    0.10998      0.00000     0.38754    0.00248     0.39002
      H   28    0.10231      0.00000     0.39520    0.00249     0.39769
      H   29    0.11038      0.00000     0.38795    0.00167     0.38962
      H   30    0.22118      0.00000     0.27268    0.00614     0.27882
      H   31    0.09301      0.00000     0.40518    0.00181     0.40699
      H   32    0.08680      0.00000     0.41184    0.00136     0.41320
      H   33    0.09376      0.00000     0.40503    0.00121     0.40624
      H   34    0.09065      0.00000     0.40832    0.00103     0.40935
      H   35    0.09015      0.00000     0.40869    0.00115     0.40985
 =======================================================================
   * Total *    0.00000     18.99292    50.77073    0.23635    70.00000

 Normal termination of Gaussian 16 at Sun Dec 13 17:18:01 2020.
