 Gaussian 16, Revision A.03,

 -----------------------------------------------------------
 # opt freq B3LYP/6-31G(d) empiricaldispersion=gd3bj scf=xqc
 -----------------------------------------------------------

 ------------------------------
 CID_71057357_JID_9884_neutraal
 ------------------------------
 Symbolic Z-matrix:
 Charge =  0 Multiplicity = 1

 SCF Done:  E(RB3LYP) =  -899.441648993     A.U. after   15 cycles
 SCF Done:  E(RB3LYP) =  -899.451905081     A.U. after   13 cycles
 SCF Done:  E(RB3LYP) =  -899.446458995     A.U. after   15 cycles
 SCF Done:  E(RB3LYP) =  -899.452576393     A.U. after   12 cycles
 SCF Done:  E(RB3LYP) =  -899.453186222     A.U. after   13 cycles
 SCF Done:  E(RB3LYP) =  -899.453677993     A.U. after   12 cycles
 SCF Done:  E(RB3LYP) =  -899.453875595     A.U. after   12 cycles
 SCF Done:  E(RB3LYP) =  -899.454016204     A.U. after   12 cycles
 SCF Done:  E(RB3LYP) =  -899.454086949     A.U. after   12 cycles
 SCF Done:  E(RB3LYP) =  -899.454120667     A.U. after   10 cycles
 SCF Done:  E(RB3LYP) =  -899.454162332     A.U. after    9 cycles
 SCF Done:  E(RB3LYP) =  -899.454163070     A.U. after    8 cycles
 SCF Done:  E(RB3LYP) =  -899.454163373     A.U. after    7 cycles
 SCF Done:  E(RB3LYP) =  -899.454163420     A.U. after    7 cycles
 SCF Done:  E(RB3LYP) =  -899.454163445     A.U. after    7 cycles
 SCF Done:  E(RB3LYP) =  -899.454163459     A.U. after    6 cycles
 Optimization completed.
    -- Stationary point found.
 Normal termination of Gaussian 16 at Sat Dec 12 10:18:17 2020.

 --------------------------------------------------------------------
 #N Geom=AllCheck Guess=TCheck SCRF=Check GenChk RB3LYP/6-31G(d) Freq
 --------------------------------------------------------------------

 Structure from the checkpoint file:  "JID_9884.chk"
 ------------------------------
 CID_71057357_JID_9884_neutraal
 ------------------------------
 Charge =  0 Multiplicity = 1

 SCF Done:  E(RB3LYP) =  -899.454163459     A.U. after    1 cycles

  Exact polarizability: 152.992  -9.407 158.590 -15.348   0.260 140.914
 Approx polarizability: 226.776 -25.462 214.490 -47.985   2.077 261.413

                      1                      2                      3
                      A                      A                      A
 Frequencies --     21.1261                31.5841                43.1129
 Red. masses --      3.0540                 6.0868                 4.9969
 Frc consts  --      0.0008                 0.0036                 0.0055
 IR Inten    --      0.1444                 0.4963                 0.0676

                      4                      5                      6
                      A                      A                      A
 Frequencies --     62.4749                74.7624               110.0643
 Red. masses --      5.2407                 5.0282                 4.9813
 Frc consts  --      0.0121                 0.0166                 0.0356
 IR Inten    --      1.9312                 2.1721                 3.1810

                      7                      8                      9
                      A                      A                      A
 Frequencies --    118.2423               137.8778               180.5706
 Red. masses --      4.9799                 6.3079                 4.8139
 Frc consts  --      0.0410                 0.0707                 0.0925
 IR Inten    --      2.9968                 3.6174                 1.2168

                     10                     11                     12
                      A                      A                      A
 Frequencies --    187.5555               230.2894               251.3166
 Red. masses --      5.2226                 1.7843                 3.7830
 Frc consts  --      0.1082                 0.0558                 0.1408
 IR Inten    --      3.9603                 0.5628                 1.8822

                     13                     14                     15
                      A                      A                      A
 Frequencies --    252.5331               287.4926               290.0505
 Red. masses --      1.3876                 1.4222                 4.2550
 Frc consts  --      0.0521                 0.0693                 0.2109
 IR Inten    --      1.1899                 1.8773                 0.2048

                     16                     17                     18
                      A                      A                      A
 Frequencies --    294.6533               325.2643               352.7086
 Red. masses --      2.7522                 3.2994                 3.2315
 Frc consts  --      0.1408                 0.2057                 0.2369
 IR Inten    --      6.5541                 6.7256                10.1999

                     19                     20                     21
                      A                      A                      A
 Frequencies --    363.0410               412.6823               417.8244
 Red. masses --      2.5222                 3.3088                 3.2092
 Frc consts  --      0.1959                 0.3320                 0.3301
 IR Inten    --      0.9521                11.2314                 2.1537

                     22                     23                     24
                      A                      A                      A
 Frequencies --    460.0967               514.0714               566.3749
 Red. masses --      3.3373                 3.8085                 4.3065
 Frc consts  --      0.4162                 0.5930                 0.8139
 IR Inten    --      1.6343                 2.9361                 0.1086

                     25                     26                     27
                      A                      A                      A
 Frequencies --    581.4293               583.5871               608.1720
 Red. masses --      3.3560                 5.4754                 4.9082
 Frc consts  --      0.6685                 1.0987                 1.0696
 IR Inten    --      4.4803                 0.3196                 1.8226

                     28                     29                     30
                      A                      A                      A
 Frequencies --    621.5348               635.6824               692.3697
 Red. masses --      2.7482                 2.4427                 2.9584
 Frc consts  --      0.6255                 0.5816                 0.8356
 IR Inten    --      1.6332                 0.7803                14.2517

                     31                     32                     33
                      A                      A                      A
 Frequencies --    708.2480               755.9487               756.9227
 Red. masses --      7.8180                 2.6962                 2.8984
 Frc consts  --      2.3106                 0.9078                 0.9784
 IR Inten    --     34.3937                10.9679                 6.9084

                     34                     35                     36
                      A                      A                      A
 Frequencies --    767.6531               826.5037               836.5547
 Red. masses --      6.6031                 3.9240                 2.1311
 Frc consts  --      2.2926                 1.5793                 0.8787
 IR Inten    --      0.6376                 0.1042                62.6526

                     37                     38                     39
                      A                      A                      A
 Frequencies --    854.4927               886.0032               893.1734
 Red. masses --      4.8329                 2.8770                 2.8260
 Frc consts  --      2.0791                 1.3307                 1.3283
 IR Inten    --      8.7606                16.7633                 0.7476

                     40                     41                     42
                      A                      A                      A
 Frequencies --    937.4120               942.5621               953.1204
 Red. masses --      2.6463                 2.0790                 1.1521
 Frc consts  --      1.3701                 1.0882                 0.6166
 IR Inten    --      3.2326                12.4830                 1.6819

                     43                     44                     45
                      A                      A                      A
 Frequencies --    965.0928               978.0084               985.7801
 Red. masses --      1.2769                 2.6526                 1.5090
 Frc consts  --      0.7007                 1.4949                 0.8640
 IR Inten    --      0.0584                 5.5840                 3.3900

                     46                     47                     48
                      A                      A                      A
 Frequencies --    997.9943              1000.4547              1033.4144
 Red. masses --      3.5934                 1.3135                 2.5195
 Frc consts  --      2.1087                 0.7746                 1.5853
 IR Inten    --      3.0223                 3.0903                19.4301

                     49                     50                     51
                      A                      A                      A
 Frequencies --   1049.3640              1074.5904              1105.7776
 Red. masses --      2.9109                 1.8510                 1.5603
 Frc consts  --      1.8885                 1.2593                 1.1241
 IR Inten    --      9.2909                 7.5769                46.3918

                     52                     53                     54
                      A                      A                      A
 Frequencies --   1109.6193              1120.4366              1138.0523
 Red. masses --      1.7257                 1.8225                 2.0220
 Frc consts  --      1.2519                 1.3480                 1.5429
 IR Inten    --    111.4873                12.3657                 9.4220

                     55                     56                     57
                      A                      A                      A
 Frequencies --   1150.3091              1179.9914              1193.0303
 Red. masses --      2.2712                 1.5054                 1.9969
 Frc consts  --      1.7707                 1.2350                 1.6746
 IR Inten    --      2.6279                22.9856                38.7379

                     58                     59                     60
                      A                      A                      A
 Frequencies --   1205.3192              1243.6747              1282.0774
 Red. masses --      1.9475                 1.1368                 1.8203
 Frc consts  --      1.6670                 1.0360                 1.7629
 IR Inten    --     28.8760                24.1077               200.1396

                     61                     62                     63
                      A                      A                      A
 Frequencies --   1298.7381              1332.9179              1336.4455
 Red. masses --      1.6664                 1.8261                 1.8036
 Frc consts  --      1.6560                 1.9116                 1.8980
 IR Inten    --    104.5852                 4.4631                 2.5385

                     64                     65                     66
                      A                      A                      A
 Frequencies --   1340.7166              1369.9352              1372.0596
 Red. masses --      1.3930                 2.3175                 1.5152
 Frc consts  --      1.4753                 2.5625                 1.6806
 IR Inten    --      0.2787               188.3933                11.9525

                     67                     68                     69
                      A                      A                      A
 Frequencies --   1385.3284              1387.5792              1415.7299
 Red. masses --      1.5224                 2.0107                 1.3301
 Frc consts  --      1.7214                 2.2809                 1.5707
 IR Inten    --     17.0483                82.3133                 7.6818

                     70                     71                     72
                      A                      A                      A
 Frequencies --   1418.9138              1424.8609              1441.1337
 Red. masses --      1.7722                 1.2279                 1.6727
 Frc consts  --      2.1022                 1.4688                 2.0468
 IR Inten    --     26.7680                 6.0679                69.2965

                     73                     74                     75
                      A                      A                      A
 Frequencies --   1449.1197              1455.3236              1496.7807
 Red. masses --      1.5307                 1.2532                 1.0933
 Frc consts  --      1.8939                 1.5638                 1.4431
 IR Inten    --      4.6709                13.5750                10.9591

                     76                     77                     78
                      A                      A                      A
 Frequencies --   1508.9304              1521.5476              1526.0848
 Red. masses --      1.0970                 1.0463                 1.0470
 Frc consts  --      1.4717                 1.4271                 1.4367
 IR Inten    --      3.5260                 2.9162                 1.7527

                     79                     80                     81
                      A                      A                      A
 Frequencies --   1533.5391              1548.1661              1665.1543
 Red. masses --      1.0444                 1.0578                 6.7468
 Frc consts  --      1.4471                 1.4938                11.0220
 IR Inten    --      8.8988                36.8297                 2.2850

                     82                     83                     84
                      A                      A                      A
 Frequencies --   1750.9368              1799.1794              1803.2805
 Red. masses --      6.5902                12.2057                11.8954
 Frc consts  --     11.9040                23.2788                22.7905
 IR Inten    --      4.4849               553.2772               166.6033

                     85                     86                     87
                      A                      A                      A
 Frequencies --   1858.0811              3022.3842              3050.2998
 Red. masses --     12.0307                 1.0733                 1.0817
 Frc consts  --     24.4721                 5.7767                 5.9300
 IR Inten    --      3.5798                23.7183                 8.1436

                     88                     89                     90
                      A                      A                      A
 Frequencies --   3050.4447              3054.8875              3059.6646
 Red. masses --      1.0553                 1.0618                 1.0401
 Frc consts  --      5.7856                 5.8385                 5.7371
 IR Inten    --      7.8047                11.9318                28.8068

                     91                     92                     93
                      A                      A                      A
 Frequencies --   3070.4107              3104.7805              3111.0018
 Red. masses --      1.0697                 1.0885                 1.0866
 Frc consts  --      5.9415                 6.1822                 6.1959
 IR Inten    --     21.7741                 6.9842                18.3676

                     94                     95                     96
                      A                      A                      A
 Frequencies --   3116.8636              3123.0882              3132.6286
 Red. masses --      1.1018                 1.1009                 1.0969
 Frc consts  --      6.3067                 6.3265                 6.3419
 IR Inten    --      0.6337                68.8701                11.8848

                     97                     98                     99
                      A                      A                      A
 Frequencies --   3146.6230              3158.4902              3169.9375
 Red. masses --      1.1022                 1.1005                 1.0859
 Frc consts  --      6.4299                 6.4686                 6.4290
 IR Inten    --     15.4657                 8.6679                10.4640

                    100                    101                    102
                      A                      A                      A
 Frequencies --   3196.1252              3256.1737              3277.1674
 Red. masses --      1.0960                 1.0887                 1.1084
 Frc consts  --      6.5964                 6.8010                 7.0135
 IR Inten    --     23.9675                 0.4297                 0.4829

 - Thermochemistry -
 -------------------
 Temperature   298.150 Kelvin.  Pressure   1.00000 Atm.
 Atom     1 has atomic number  6 and mass  12.00000

 Molecular mass:   263.11576 amu.
 Principal axes and moments of inertia in atomic units:
                           1         2         3
     Eigenvalues --  3592.746165155.395036685.56461
           X            0.99838   0.05657   0.00535
           Y           -0.05656   0.99839  -0.00322
           Z           -0.00552   0.00291   0.99998
 This molecule is an asymmetric top.
 Rotational symmetry number  1.
 Warning -- assumption of classical behavior for rotation
           may cause significant error
 Rotational temperatures (Kelvin)      0.02411     0.01680     0.01296
 Rotational constants (GHZ):           0.50233     0.35007     0.26995
 Zero-point vibrational energy     778658.8 (Joules/Mol)
                                  186.10391 (Kcal/Mol)
 Warning -- explicit consideration of  27 degrees of freedom as
           vibrations may cause significant error
 Vibrational temperatures:     30.40    45.44    62.03    89.89   107.57
          (Kelvin)            158.36   170.12   198.38   259.80   269.85
                              331.34   361.59   363.34   413.64   417.32
                              423.94   467.98   507.47   522.33   593.76
                              601.16   661.98   739.63   814.89   836.55
                              839.65   875.02   894.25   914.61   996.17
                             1019.01  1087.64  1089.04  1104.48  1189.15
                             1203.62  1229.42  1274.76  1285.08  1348.73
                             1356.14  1371.33  1388.55  1407.14  1418.32
                             1435.89  1439.43  1486.85  1509.80  1546.10
                             1590.97  1596.49  1612.06  1637.40  1655.04
                             1697.74  1716.50  1734.19  1789.37  1844.62
                             1868.59  1917.77  1922.85  1928.99  1971.03
                             1974.09  1993.18  1996.42  2036.92  2041.50
                             2050.06  2073.47  2084.96  2093.89  2153.53
                             2171.01  2189.17  2195.70  2206.42  2227.47
                             2395.79  2519.21  2588.62  2594.52  2673.36
                             4348.54  4388.70  4388.91  4395.30  4402.17
                             4417.64  4467.09  4476.04  4484.47  4493.43
                             4507.15  4527.29  4544.36  4560.83  4598.51
                             4684.91  4715.11

 Zero-point correction=                           0.296575 (Hartree/Particle)
 Thermal correction to Energy=                    0.314344
 Thermal correction to Enthalpy=                  0.315288
 Thermal correction to Gibbs Free Energy=         0.249432
 Sum of electronic and zero-point Energies=           -899.157588
 Sum of electronic and thermal Energies=              -899.139820
 Sum of electronic and thermal Enthalpies=            -899.138876
 Sum of electronic and thermal Free Energies=         -899.204732

                     E (Thermal)             CV                S
                      KCal/Mol        Cal/Mol-Kelvin    Cal/Mol-Kelvin
 Total                  197.254             67.384            138.606
 Electronic               0.000              0.000              0.000
 Translational            0.889              2.981             42.602
 Rotational               0.889              2.981             33.182
 Vibrational            195.476             61.422             62.823
 Vibration     1          0.593              1.985              6.525
 Vibration     2          0.594              1.983              5.727
 Vibration     3          0.595              1.980              5.111
 Vibration     4          0.597              1.972              4.377
 Vibration     5          0.599              1.966              4.024
 Vibration     6          0.606              1.941              3.268
 Vibration     7          0.608              1.934              3.129
 Vibration     8          0.614              1.915              2.833
 Vibration     9          0.630              1.866              2.323
 Vibration    10          0.632              1.857              2.252
 Vibration    11          0.652              1.795              1.877
 Vibration    12          0.663              1.761              1.721
 Vibration    13          0.664              1.759              1.713
 Vibration    14          0.685              1.697              1.489
 Vibration    15          0.686              1.692              1.474
 Vibration    16          0.689              1.684              1.447
 Vibration    17          0.709              1.625              1.284
 Vibration    18          0.729              1.570              1.154
 Vibration    19          0.737              1.548              1.109
 Vibration    20          0.776              1.443              0.917
 Vibration    21          0.781              1.432              0.899
 Vibration    22          0.818              1.339              0.766
 Vibration    23          0.869              1.219              0.624
 Vibration    24          0.922              1.104              0.511
 Vibration    25          0.938              1.071              0.483
 Vibration    26          0.940              1.067              0.479
 Vibration    27          0.967              1.015              0.436

 Optimization completed.
    -- Stationary point found.
 Normal termination of Gaussian 16 at Sat Dec 12 10:38:02 2020.

 ----------------------------------------------------------------------
 # B3LYP/6-311++G(d,p) empiricaldispersion=gd3bj scf=xqc pop=npa geom=c
 heck
 ----------------------------------------------------------------------

 --------------------------------------
 CID_71057357_JID_9884_Energie_neutraal
 --------------------------------------
 Structure from the checkpoint file:  "JID_9884.chk"
 Charge =  0 Multiplicity = 1

 SCF Done:  E(RB3LYP) =  -899.707479883     A.U. after   16 cycles
 Normal termination of Gaussian 16 at Sat Dec 12 10:46:38 2020.

 ----------------------------------------------------------------------
 # B3LYP/6-311++G(d,p) empiricaldispersion=gd3bj scf=xqc pop=npa geom=c
 heck
 ----------------------------------------------------------------------

 ------------------------------------
 CID_71057357_JID_9884_Energie_kation
 ------------------------------------
 Structure from the checkpoint file:  "JID_9884.chk"
 Charge =  1 Multiplicity = 2

 SCF Done:  E(UB3LYP) =  -899.386181755     A.U. after   29 cycles
 Normal termination of Gaussian 16 at Sat Dec 12 11:09:37 2020.
 Gaussian 16:  ES64L-G16RevA.03 25-Dec-2016

 ----------------------------------------------------------------------
 # B3LYP/6-311++G(d,p) empiricaldispersion=gd3bj scf=xqc pop=npa geom=c
 heck
 ----------------------------------------------------------------------

 -----------------------------------
 CID_71057357_JID_9884_Energie_anion
 -----------------------------------
 Structure from the checkpoint file:  "JID_9884.chk"
 Charge = -1 Multiplicity = 2

                         Standard orientation:
 ---------------------------------------------------------------------
 Center     Atomic      Atomic             Coordinates (Angstroms)
 Number     Number       Type             X           Y           Z
 ---------------------------------------------------------------------
      1          6           0       -3.499161   -2.063021   -0.851761
      2          6           0       -2.796441   -1.349444    0.319490
      3          6           0       -1.599501   -2.146459    0.837273
      4          6           0       -2.484081    0.073612   -0.122992
      5          8           0       -3.346368    0.889543   -0.380451
      6          8           0       -1.161960    0.325818   -0.253603
      7          6           0       -0.822980    1.630608   -0.801985
      8          6           0       -0.910765    2.724925    0.264888
      9          6           0        0.299247    2.788380    1.154900
     10          6           0        1.441294    2.140795    0.923764
     11          6           0        1.681629    1.320585   -0.315186
     12          6           0        0.581087    1.522321   -1.375174
     13          7           0        1.901147   -0.104566   -0.003799
     14          6           0        2.515642   -0.950147   -0.933869
     15          8           0        2.943538   -0.606288   -2.018321
     16          6           0        2.532082   -2.320214   -0.324759
     17          6           0        1.959090   -2.248952    0.878690
     18          6           0        1.540488   -0.826513    1.141239
     19          8           0        1.019824   -0.403892    2.150775
     20          1           0       -2.808668   -2.195917   -1.693241
     21          1           0       -4.360000   -1.485141   -1.198051
     22          1           0       -3.842643   -3.054086   -0.537322
     23          1           0       -3.531668   -1.234029    1.126089
     24          1           0       -0.854836   -2.288344    0.047237
     25          1           0       -1.109825   -1.645363    1.674990
     26          1           0       -1.932332   -3.136264    1.169476
     27          1           0       -1.545575    1.839264   -1.594037
     28          1           0       -1.047402    3.690353   -0.245709
     29          1           0       -1.819740    2.579673    0.856915
     30          1           0        0.211735    3.400671    2.050202
     31          1           0        2.262311    2.203467    1.632722
     32          1           0        2.626091    1.639860   -0.771972
     33          1           0        0.636084    0.728634   -2.124084
     34          1           0        0.792774    2.465871   -1.892641
     35          1           0        2.957409   -3.170764   -0.841103
     36          1           0        1.792206   -3.026232    1.612821
 ---------------------------------------------------------------------

 SCF Done:  E(UB3LYP) =  -899.746061941     A.U. after   24 cycles

 The electronic state is 2-A.
 Alpha  occ. eigenvalues --  -19.06063 -19.00997 -18.92645 -18.92332 -14.18857
 Alpha  occ. eigenvalues --  -10.19874 -10.12896 -10.09698 -10.09487 -10.09356
 Alpha  occ. eigenvalues --  -10.09111 -10.07718 -10.07513 -10.06154 -10.06098
 Alpha  occ. eigenvalues --  -10.05996 -10.04504 -10.00010  -9.99883  -1.00300
 Alpha  occ. eigenvalues --   -0.91795  -0.89093  -0.87118  -0.78996  -0.73208
 Alpha  occ. eigenvalues --   -0.70618  -0.66063  -0.64737  -0.60625  -0.58908
 Alpha  occ. eigenvalues --   -0.55338  -0.52298  -0.50337  -0.48910  -0.46738
 Alpha  occ. eigenvalues --   -0.43222  -0.41739  -0.40249  -0.39027  -0.37937
 Alpha  occ. eigenvalues --   -0.37418  -0.35365  -0.34933  -0.33513  -0.32597
 Alpha  occ. eigenvalues --   -0.31524  -0.31246  -0.30426  -0.29559  -0.29034
 Alpha  occ. eigenvalues --   -0.28583  -0.27999  -0.27600  -0.27155  -0.26351
 Alpha  occ. eigenvalues --   -0.25973  -0.25211  -0.24437  -0.24071  -0.23693
 Alpha  occ. eigenvalues --   -0.22908  -0.22156  -0.21667  -0.19604  -0.17661
 Alpha  occ. eigenvalues --   -0.15473  -0.13293  -0.10987  -0.10393  -0.08896
 Alpha  occ. eigenvalues --    0.03093
 Alpha virt. eigenvalues --    0.07095   0.07753   0.09250   0.09818   0.10007
 Alpha virt. eigenvalues --    0.10155   0.10656   0.10938   0.11602   0.11943
 Alpha virt. eigenvalues --    0.12193   0.12928   0.12975   0.13313   0.13967

  Beta  occ. eigenvalues --  -19.06063 -19.00997 -18.92169 -18.91865 -14.18958
  Beta  occ. eigenvalues --  -10.19874 -10.12895 -10.09696 -10.09274 -10.09138
  Beta  occ. eigenvalues --  -10.09110 -10.07717 -10.07513 -10.06158 -10.06099
  Beta  occ. eigenvalues --  -10.05996 -10.04504  -9.99720  -9.99566  -1.00300
  Beta  occ. eigenvalues --   -0.91794  -0.88452  -0.86295  -0.78720  -0.73148
  Beta  occ. eigenvalues --   -0.70601  -0.65769  -0.64734  -0.60252  -0.58905
  Beta  occ. eigenvalues --   -0.55329  -0.52213  -0.50310  -0.47882  -0.46629
  Beta  occ. eigenvalues --   -0.42897  -0.41471  -0.40202  -0.39022  -0.37868
  Beta  occ. eigenvalues --   -0.37404  -0.35344  -0.34917  -0.33419  -0.32412
  Beta  occ. eigenvalues --   -0.31407  -0.30855  -0.30256  -0.29525  -0.28737
  Beta  occ. eigenvalues --   -0.28535  -0.27911  -0.27199  -0.26590  -0.26176
  Beta  occ. eigenvalues --   -0.25570  -0.25140  -0.24219  -0.24039  -0.23249
  Beta  occ. eigenvalues --   -0.22705  -0.21483  -0.20138  -0.19416  -0.17659
  Beta  occ. eigenvalues --   -0.15378  -0.10768  -0.10299  -0.09532  -0.08429
  Beta virt. eigenvalues --    0.07079   0.07746   0.09234   0.09807   0.09995
  Beta virt. eigenvalues --    0.10130   0.10624   0.10677   0.10940   0.11598
  Beta virt. eigenvalues --    0.11931   0.12218   0.12923   0.12980   0.13303

 Mulliken charges and spin densities:
               1          2
     1  C   -0.481245  -0.004750
     2  C    0.462636   0.000309
     3  C   -0.795413   0.006156
     4  C   -0.542592   0.003511
     5  O   -0.239813   0.000080
     6  O    0.175178  -0.002740
     7  C   -0.005286   0.003949
     8  C   -0.538751  -0.004928
     9  C   -0.017967   0.011770
    10  C   -0.068596  -0.019628
    11  C   -0.020092  -0.007768
    12  C   -0.442013   0.006828
    13  N    0.249755  -0.069318
    14  C   -0.174159   0.126784
    15  O   -0.420546   0.160938
    16  C   -0.222790   0.277226
    17  C   -0.014707   0.234516
    18  C   -0.408338   0.156202
    19  O   -0.312070   0.161839
    20  H    0.147234   0.004122
    21  H    0.147075   0.000420
    22  H    0.150150   0.000049
    23  H    0.177693   0.001665
    24  H    0.194675  -0.008479
    25  H    0.189142   0.001253
    26  H    0.117859   0.000445
    27  H    0.220427   0.000400
    28  H    0.141812  -0.000151
    29  H    0.172849   0.001465
    30  H    0.153785  -0.000033
    31  H    0.172662  -0.000794
    32  H    0.222916  -0.000112
    33  H    0.239258  -0.004371
    34  H    0.126969   0.000426
    35  H    0.119341  -0.016526
    36  H    0.122962  -0.020757
 Sum of Mulliken charges =  -1.00000   1.00000

 Dipole moment (field-independent basis, Debye):
    X=             -6.2388    Y=              2.9639    Z=             -0.1350  Tot=              6.9083
 Quadrupole moment (field-independent basis, Debye-Ang):
   XX=           -155.6602   YY=           -124.2928   ZZ=           -137.0900
   XY=             14.5752   XZ=              5.9651   YZ=             -1.0067

 Summary of Natural Population Analysis:

                                       Natural Population
                Natural  -----------------------------------------------
    Atom  No    Charge         Core      Valence    Rydberg      Total
 -----------------------------------------------------------------------
      C    1   -0.27992      0.99966     2.27588    0.00438     3.27992
      C    2   -0.14979      0.99958     2.14292    0.00730     3.14979
      C    3   -0.29312      0.99965     2.28742    0.00605     3.29312
      C    4    0.41623      0.99966     1.55882    0.02528     2.58377
      O    5   -0.32321      0.99987     3.31750    0.00584     4.32321
      O    6   -0.27742      0.99985     3.26608    0.01148     4.27742
      C    7    0.06346      0.99952     1.92506    0.01196     2.93654
      C    8   -0.21601      0.99959     2.20893    0.00749     3.21601
      C    9   -0.09766      0.99953     2.08918    0.00894     3.09766
      C   10   -0.07818      0.99952     2.06893    0.00973     3.07818
      C   11   -0.02157      0.99957     2.00607    0.01593     3.02157
      C   12   -0.19876      0.99959     2.19131    0.00787     3.19876
      N   13   -0.29597      0.99959     2.78511    0.01127     3.79597
      C   14    0.36307      0.99967     1.61525    0.02201     2.63693
      O   15   -0.27701      0.99987     3.27068    0.00646     4.27701
      C   16   -0.08183      0.99950     2.07346    0.00887     3.08183
      C   17   -0.07113      0.99950     2.06252    0.00911     3.07113
      C   18    0.36153      0.99967     1.61460    0.02420     2.63847
      O   19   -0.26728      0.99987     3.26089    0.00652     4.26728
      H   20    0.09903      0.00000     0.40007    0.00089     0.40097
      H   21    0.10241      0.00000     0.39668    0.00091     0.39759
      H   22    0.09584      0.00000     0.40332    0.00084     0.40416
      H   23    0.10124      0.00000     0.39697    0.00180     0.39876
      H   24    0.11167      0.00000     0.38732    0.00101     0.38833
      H   25    0.12144      0.00000     0.37742    0.00113     0.37856
      H   26    0.09006      0.00000     0.40902    0.00092     0.40994
      H   27    0.09526      0.00000     0.40315    0.00160     0.40474
      H   28    0.09985      0.00000     0.39888    0.00127     0.40015
      H   29    0.11074      0.00000     0.38814    0.00112     0.38926
      H   30    0.09202      0.00000     0.40690    0.00108     0.40798
      H   31    0.10119      0.00000     0.39778    0.00102     0.39881
      H   32    0.10886      0.00000     0.38969    0.00145     0.39114
      H   33    0.11857      0.00000     0.38040    0.00104     0.38143
      H   34    0.09821      0.00000     0.40085    0.00094     0.40179
      H   35    0.08969      0.00000     0.40912    0.00118     0.41031
      H   36    0.08847      0.00000     0.40987    0.00166     0.41153
 =======================================================================
   * Total *   -0.00000     18.99326    50.77619    0.23055    70.00000

 Normal termination of Gaussian 16 at Sat Dec 12 11:28:12 2020.
