 Gaussian 16, Revision A.03,

 -----------------------------------------------------------
 # opt freq B3LYP/6-31G(d) empiricaldispersion=gd3bj scf=xqc
 -----------------------------------------------------------

 ------------------------------
 CID_64716199_JID_6882_neutraal
 ------------------------------
 Symbolic Z-matrix:
 Charge =  0 Multiplicity = 1

 SCF Done:  E(RB3LYP) =  -661.357256806     A.U. after   13 cycles
 SCF Done:  E(RB3LYP) =  -661.359322326     A.U. after   12 cycles
 SCF Done:  E(RB3LYP) =  -661.356374231     A.U. after   12 cycles
 SCF Done:  E(RB3LYP) =  -661.359203156     A.U. after   12 cycles
 SCF Done:  E(RB3LYP) =  -661.360031864     A.U. after    9 cycles
 SCF Done:  E(RB3LYP) =  -661.360352093     A.U. after   12 cycles
 SCF Done:  E(RB3LYP) =  -661.360431264     A.U. after   11 cycles
 SCF Done:  E(RB3LYP) =  -661.360493840     A.U. after   10 cycles
 SCF Done:  E(RB3LYP) =  -661.360512632     A.U. after    9 cycles
 SCF Done:  E(RB3LYP) =  -661.360517190     A.U. after    8 cycles
 SCF Done:  E(RB3LYP) =  -661.360561964     A.U. after    8 cycles
 SCF Done:  E(RB3LYP) =  -661.360562015     A.U. after    8 cycles
 SCF Done:  E(RB3LYP) =  -661.360561997     A.U. after    6 cycles
 SCF Done:  E(RB3LYP) =  -661.360562031     A.U. after    8 cycles
 Optimization completed on the basis of negligible forces.
    -- Stationary point found.
 Normal termination of Gaussian 16 at Fri Dec 11 01:39:14 2020.

 --------------------------------------------------------------------
 #N Geom=AllCheck Guess=TCheck SCRF=Check GenChk RB3LYP/6-31G(d) Freq
 --------------------------------------------------------------------

 Structure from the checkpoint file:  "JID_6882.chk"
 ------------------------------
 CID_64716199_JID_6882_neutraal
 ------------------------------
 Charge =  0 Multiplicity = 1

 SCF Done:  E(RB3LYP) =  -661.360562031     A.U. after    1 cycles

  Exact polarizability: 189.888  -1.041 174.750 -14.834   1.539 113.786
 Approx polarizability: 256.797  -1.079 261.349 -26.747   6.409 175.225

                      1                      2                      3
                      A                      A                      A
 Frequencies --     16.7463                21.4245                40.7823
 Red. masses --      1.0153                 3.6626                 1.0121
 Frc consts  --      0.0002                 0.0010                 0.0010
 IR Inten    --      0.1024                 0.0033                 0.3925

                      4                      5                      6
                      A                      A                      A
 Frequencies --     52.6137                63.6409                87.6365
 Red. masses --      4.2462                 3.1233                 3.6001
 Frc consts  --      0.0069                 0.0075                 0.0163
 IR Inten    --      0.6266                 0.3629                 0.5345

                      7                      8                      9
                      A                      A                      A
 Frequencies --    129.2345               189.0321               194.7809
 Red. masses --      3.3184                 3.1432                 2.9707
 Frc consts  --      0.0327                 0.0662                 0.0664
 IR Inten    --      0.6803                 1.6792                 1.9385

                     10                     11                     12
                      A                      A                      A
 Frequencies --    226.4190               232.8360               251.0662
 Red. masses --      2.9767                 2.7148                 2.6980
 Frc consts  --      0.0899                 0.0867                 0.1002
 IR Inten    --      0.0233                 0.1073                 0.8626

                     13                     14                     15
                      A                      A                      A
 Frequencies --    255.0517               273.8517               281.7141
 Red. masses --      2.7022                 1.2276                 1.1444
 Frc consts  --      0.1036                 0.0542                 0.0535
 IR Inten    --      0.1075                 5.7154                 0.7294

                     16                     17                     18
                      A                      A                      A
 Frequencies --    297.0795               303.5760               320.2126
 Red. masses --      1.9680                 1.3182                 1.1901
 Frc consts  --      0.1023                 0.0716                 0.0719
 IR Inten    --     10.5106                41.3626                 2.9278

                     19                     20                     21
                      A                      A                      A
 Frequencies --    324.6245               353.3190               361.5958
 Red. masses --      1.9116                 2.2962                 2.1481
 Frc consts  --      0.1187                 0.1689                 0.1655
 IR Inten    --     17.2945                22.1537                 1.0288

                     22                     23                     24
                      A                      A                      A
 Frequencies --    443.1125               457.1900               462.3890
 Red. masses --      2.3194                 2.6203                 2.3905
 Frc consts  --      0.2683                 0.3227                 0.3011
 IR Inten    --      7.7900                 3.5600                 4.9024

                     25                     26                     27
                      A                      A                      A
 Frequencies --    467.0779               508.9453               525.5185
 Red. masses --      2.2344                 2.7362                 3.2582
 Frc consts  --      0.2872                 0.4176                 0.5302
 IR Inten    --      0.9114                 0.9578                 0.2757

                     28                     29                     30
                      A                      A                      A
 Frequencies --    528.1932               542.7160               569.5957
 Red. masses --      4.5052                 3.9867                 3.5876
 Frc consts  --      0.7405                 0.6918                 0.6858
 IR Inten    --      0.7680                 1.6180                 0.2563

                     31                     32                     33
                      A                      A                      A
 Frequencies --    666.9498               728.3884               779.2998
 Red. masses --      3.8527                 2.9061                 2.8417
 Frc consts  --      1.0097                 0.9084                 1.0168
 IR Inten    --      1.5615                 3.0133                 4.1851

                     34                     35                     36
                      A                      A                      A
 Frequencies --    835.4381               868.4119               885.8705
 Red. masses --      2.6092                 1.4646                 1.5495
 Frc consts  --      1.0730                 0.6508                 0.7164
 IR Inten    --      3.1220                15.8768                 3.1427

                     37                     38                     39
                      A                      A                      A
 Frequencies --    896.1558               903.2684               916.8013
 Red. masses --      1.6189                 1.4165                 1.5914
 Frc consts  --      0.7660                 0.6809                 0.7881
 IR Inten    --      0.4485                 0.8135                 7.5351

                     40                     41                     42
                      A                      A                      A
 Frequencies --    929.1063               952.6221               960.2441
 Red. masses --      1.8989                 2.0711                 1.5287
 Frc consts  --      0.9658                 1.1074                 0.8305
 IR Inten    --      2.6830                 8.2668                 0.8106

                     43                     44                     45
                      A                      A                      A
 Frequencies --    973.2596               977.0923              1011.1869
 Red. masses --      2.2574                 2.3714                 1.8225
 Frc consts  --      1.2598                 1.3339                 1.0980
 IR Inten    --      0.3803                 1.1039                 0.4938

                     46                     47                     48
                      A                      A                      A
 Frequencies --   1023.8726              1036.1000              1047.9622
 Red. masses --      6.1626                 1.3901                 1.4871
 Frc consts  --      3.8063                 0.8792                 0.9623
 IR Inten    --      0.0670                 9.4738                 0.3943

                     49                     50                     51
                      A                      A                      A
 Frequencies --   1052.7943              1074.4058              1075.5106
 Red. masses --      1.7947                 1.5741                 1.5625
 Frc consts  --      1.1720                 1.0706                 1.0649
 IR Inten    --      4.3289                56.6943                10.1627

                     52                     53                     54
                      A                      A                      A
 Frequencies --   1075.6319              1105.8225              1143.6440
 Red. masses --      1.6341                 1.9741                 1.7535
 Frc consts  --      1.1139                 1.4223                 1.3512
 IR Inten    --     21.1849                23.0302                20.3833

                     55                     56                     57
                      A                      A                      A
 Frequencies --   1170.2184              1196.7282              1204.6585
 Red. masses --      1.8881                 1.6151                 1.4121
 Frc consts  --      1.5234                 1.3628                 1.2074
 IR Inten    --     17.3595                 3.3795                 0.5767

                     58                     59                     60
                      A                      A                      A
 Frequencies --   1206.1601              1231.7704              1281.1739
 Red. masses --      1.4328                 2.3146                 1.5599
 Frc consts  --      1.2281                 2.0691                 1.5086
 IR Inten    --      0.1581                12.6749                17.5428

                     61                     62                     63
                      A                      A                      A
 Frequencies --   1297.2441              1330.2385              1336.3297
 Red. masses --      1.9433                 3.4534                 1.4454
 Frc consts  --      1.9268                 3.6004                 1.5208
 IR Inten    --      7.3113                 1.0484                 7.7263

                     64                     65                     66
                      A                      A                      A
 Frequencies --   1342.1627              1365.0800              1372.2652
 Red. masses --      1.3143                 3.7791                 1.6248
 Frc consts  --      1.3949                 4.1491                 1.8028
 IR Inten    --      5.6177                 0.6589                 0.7527

                     67                     68                     69
                      A                      A                      A
 Frequencies --   1390.4798              1411.3302              1428.9152
 Red. masses --      1.3569                 1.4270                 1.2358
 Frc consts  --      1.5457                 1.6747                 1.4866
 IR Inten    --      1.5376                 6.8107                 4.5327

                     70                     71                     72
                      A                      A                      A
 Frequencies --   1430.2412              1440.6252              1443.2640
 Red. masses --      1.2470                 1.2352                 1.2806
 Frc consts  --      1.5030                 1.5105                 1.5717
 IR Inten    --     15.2779                 0.0524                 0.3135

                     73                     74                     75
                      A                      A                      A
 Frequencies --   1447.7639              1451.2296              1482.2924
 Red. masses --      1.2490                 1.2227                 1.9867
 Frc consts  --      1.5424                 1.5172                 2.5718
 IR Inten    --     43.7225                10.1733                 0.1003

                     76                     77                     78
                      A                      A                      A
 Frequencies --   1496.6552              1510.6832              1514.8795
 Red. masses --      2.0655                 1.0800                 1.0758
 Frc consts  --      2.7260                 1.4522                 1.4545
 IR Inten    --      2.1685                 7.4499                 0.1251

                     79                     80                     81
                      A                      A                      A
 Frequencies --   1518.3578              1519.3007              1520.3669
 Red. masses --      1.0492                 1.0510                 1.0507
 Frc consts  --      1.4251                 1.4294                 1.4309
 IR Inten    --     10.5131                 0.3804                 4.4015

                     82                     83                     84
                      A                      A                      A
 Frequencies --   1522.7941              1527.0646              1529.2854
 Red. masses --      1.0507                 1.0696                 1.1786
 Frc consts  --      1.4355                 1.4695                 1.6240
 IR Inten    --      0.0234                 2.9633                 8.4619

                     85                     86                     87
                      A                      A                      A
 Frequencies --   1532.6553              1537.3945              1539.2513
 Red. masses --      1.1061                 1.2327                 1.1652
 Frc consts  --      1.5309                 1.7167                 1.6266
 IR Inten    --     12.2845                13.3685                 3.3113

                     88                     89                     90
                      A                      A                      A
 Frequencies --   1546.3054              1662.9614              1663.3552
 Red. masses --      1.0630                 5.5333                 5.5533
 Frc consts  --      1.4975                 9.0157                 9.0525
 IR Inten    --     16.5280                18.8134                23.8342

                     91                     92                     93
                      A                      A                      A
 Frequencies --   3030.1177              3039.8480              3040.6995
 Red. masses --      1.0616                 1.0409                 1.0361
 Frc consts  --      5.7427                 5.6673                 5.6444
 IR Inten    --     23.1853                37.9033                23.7283

                     94                     95                     96
                      A                      A                      A
 Frequencies --   3041.2677              3042.3881              3047.8734
 Red. masses --      1.0409                 1.0535                 1.0422
 Frc consts  --      5.6724                 5.7454                 5.7044
 IR Inten    --     27.7839                14.2144                33.7346

                     97                     98                     99
                      A                      A                      A
 Frequencies --   3050.4031              3070.0969              3086.4984
 Red. masses --      1.0472                 1.0930                 1.0910
 Frc consts  --      5.7408                 6.0701                 6.1236
 IR Inten    --     14.8972                 4.1859                30.6391

                    100                    101                    102
                      A                      A                      A
 Frequencies --   3097.2134              3098.5489              3102.0877
 Red. masses --      1.0950                 1.0956                 1.0957
 Frc consts  --      6.1886                 6.1973                 6.2125
 IR Inten    --     20.4585                22.5028                18.3088

                    103                    104                    105
                      A                      A                      A
 Frequencies --   3103.9864              3110.1386              3113.4714
 Red. masses --      1.1018                 1.1012                 1.1016
 Frc consts  --      6.2548                 6.2759                 6.2916
 IR Inten    --      2.5196                69.3435                38.1113

                    106                    107                    108
                      A                      A                      A
 Frequencies --   3120.7623              3124.4623              3125.1641
 Red. masses --      1.0976                 1.1027                 1.1028
 Frc consts  --      6.2982                 6.3427                 6.3456
 IR Inten    --     66.3360                14.1666                18.6581

                    109                    110                    111
                      A                      A                      A
 Frequencies --   3128.6658              3136.3203              3168.0459
 Red. masses --      1.1007                 1.1012                 1.0898
 Frc consts  --      6.3478                 6.3818                 6.4444
 IR Inten    --     33.5953                26.1433                25.1366

                    112                    113                    114
                      A                      A                      A
 Frequencies --   3178.2075              3191.1753              3718.3398
 Red. masses --      1.0896                 1.0886                 1.0658
 Frc consts  --      6.4848                 6.5319                 8.6818
 IR Inten    --     16.0107                12.2764                 4.2869

 - Thermochemistry -
 -------------------
 Temperature   298.150 Kelvin.  Pressure   1.00000 Atm.
 Atom     1 has atomic number  6 and mass  12.00000

 Molecular mass:   220.18272 amu.
 Principal axes and moments of inertia in atomic units:
                           1         2         3
     Eigenvalues --  2463.708415519.212637062.30596
           X            0.99987  -0.00877  -0.01328
           Y            0.00861   0.99989  -0.01202
           Z            0.01338   0.01190   0.99984
 This molecule is an asymmetric top.
 Rotational symmetry number  1.
 Warning -- assumption of classical behavior for rotation
           may cause significant error
 Rotational temperatures (Kelvin)      0.03516     0.01569     0.01226
 Rotational constants (GHZ):           0.73253     0.32699     0.25555
 Zero-point vibrational energy     945463.1 (Joules/Mol)
                                  225.97109 (Kcal/Mol)
 Warning -- explicit consideration of  30 degrees of freedom as
           vibrations may cause significant error
 Vibrational temperatures:     24.09    30.83    58.68    75.70    91.57
          (Kelvin)            126.09   185.94   271.97   280.25   325.77
                              335.00   361.23   366.96   394.01   405.32
                              427.43   436.78   460.71   467.06   508.35
                              520.26   637.54   657.79   665.27   672.02
                              732.26   756.10   759.95   780.85   819.52
                              959.59  1047.99  1121.24  1202.01  1249.45
                             1274.57  1289.37  1299.60  1319.07  1336.78
                             1370.61  1381.58  1400.30  1405.82  1454.87
                             1473.12  1490.72  1507.78  1514.74  1545.83
                             1547.42  1547.59  1591.03  1645.45  1683.68
                             1721.82  1733.23  1735.40  1772.24  1843.32
                             1866.44  1913.92  1922.68  1931.07  1964.05
                             1974.38  2000.59  2030.59  2055.89  2057.80
                             2072.74  2076.53  2083.01  2088.00  2132.69
                             2153.35  2173.54  2179.57  2184.58  2185.93
                             2187.47  2190.96  2197.11  2200.30  2205.15
                             2211.97  2214.64  2224.79  2392.63  2393.20
                             4359.66  4373.66  4374.89  4375.71  4377.32
                             4385.21  4388.85  4417.18  4440.78  4456.20
                             4458.12  4463.21  4465.94  4474.80  4479.59
                             4490.08  4495.40  4496.41  4501.45  4512.47
                             4558.11  4572.73  4591.39  5349.86

 Zero-point correction=                           0.360108 (Hartree/Particle)
 Thermal correction to Energy=                    0.378512
 Thermal correction to Enthalpy=                  0.379456
 Thermal correction to Gibbs Free Energy=         0.312227
 Sum of electronic and zero-point Energies=           -661.000454
 Sum of electronic and thermal Energies=              -660.982050
 Sum of electronic and thermal Enthalpies=            -660.981106
 Sum of electronic and thermal Free Energies=         -661.048335

                     E (Thermal)             CV                S
                      KCal/Mol        Cal/Mol-Kelvin    Cal/Mol-Kelvin
 Total                  237.520             69.483            141.496
 Electronic               0.000              0.000              0.000
 Translational            0.889              2.981             42.071
 Rotational               0.889              2.981             32.929
 Vibrational            235.742             63.522             66.496
 Vibration     1          0.593              1.986              6.987
 Vibration     2          0.593              1.985              6.498
 Vibration     3          0.594              1.981              5.221
 Vibration     4          0.596              1.977              4.717
 Vibration     5          0.597              1.972              4.341
 Vibration     6          0.601              1.958              3.712
 Vibration     7          0.612              1.924              2.957
 Vibration     8          0.633              1.855              2.237
 Vibration     9          0.635              1.847              2.182
 Vibration    10          0.650              1.801              1.907
 Vibration    11          0.654              1.791              1.857
 Vibration    12          0.663              1.761              1.723
 Vibration    13          0.665              1.754              1.695
 Vibration    14          0.676              1.722              1.572
 Vibration    15          0.681              1.707              1.523
 Vibration    16          0.691              1.679              1.433
 Vibration    17          0.695              1.667              1.397
 Vibration    18          0.706              1.635              1.309
 Vibration    19          0.709              1.626              1.287
 Vibration    20          0.730              1.568              1.151
 Vibration    21          0.736              1.551              1.115
 Vibration    22          0.803              1.376              0.817
 Vibration    23          0.815              1.345              0.774
 Vibration    24          0.820              1.333              0.759
 Vibration    25          0.824              1.323              0.746
 Vibration    26          0.864              1.230              0.636
 Vibration    27          0.880              1.194              0.597
 Vibration    28          0.883              1.188              0.591
 Vibration    29          0.898              1.156              0.559
 Vibration    30          0.926              1.097              0.505

 Optimization completed on the basis of negligible forces.
    -- Stationary point found.
 Normal termination of Gaussian 16 at Fri Dec 11 01:55:54 2020.

 ----------------------------------------------------------------------
 # B3LYP/6-311++G(d,p) empiricaldispersion=gd3bj scf=xqc pop=npa geom=c
 heck
 ----------------------------------------------------------------------

 --------------------------------------
 CID_64716199_JID_6882_Energie_neutraal
 --------------------------------------
 Structure from the checkpoint file:  "JID_6882.chk"
 Charge =  0 Multiplicity = 1

 SCF Done:  E(RB3LYP) =  -661.548117925     A.U. after   14 cycles
 Normal termination of Gaussian 16 at Fri Dec 11 02:04:16 2020.

 ----------------------------------------------------------------------
 # B3LYP/6-311++G(d,p) empiricaldispersion=gd3bj scf=xqc pop=npa geom=c
 heck
 ----------------------------------------------------------------------

 ------------------------------------
 CID_64716199_JID_6882_Energie_kation
 ------------------------------------
 Structure from the checkpoint file:  "JID_6882.chk"
 Charge =  1 Multiplicity = 2

 SCF Done:  E(UB3LYP) =  -661.242613817     A.U. after   33 cycles
 SCF Done:  E(UB3LYP) =  -661.243098791     a.u. after    7 cycles
 Normal termination of Gaussian 16 at Fri Dec 11 04:45:56 2020.
 Gaussian 16:  ES64L-G16RevA.03 25-Dec-2016

 ----------------------------------------------------------------------
 # B3LYP/6-311++G(d,p) empiricaldispersion=gd3bj scf=xqc pop=npa geom=c
 heck
 ----------------------------------------------------------------------

 -----------------------------------
 CID_64716199_JID_6882_Energie_anion
 -----------------------------------
 Structure from the checkpoint file:  "JID_6882.chk"
 Charge = -1 Multiplicity = 2

                         Standard orientation:
 ---------------------------------------------------------------------
 Center     Atomic      Atomic             Coordinates (Angstroms)
 Number     Number       Type             X           Y           Z
 ---------------------------------------------------------------------
      1          6           0       -2.301440    3.104185   -0.017027
      2          6           0       -2.170190    1.604371   -0.131925
      3          6           0       -3.222517    0.763601    0.241303
      4          6           0       -3.108243   -0.627617    0.154959
      5          6           0       -1.905307   -1.172842   -0.302682
      6          6           0       -0.825225   -0.362495   -0.671913
      7          6           0       -0.983263    1.025538   -0.592398
      8          6           0        0.475120   -0.973463   -1.142679
      9          6           0        1.504275   -1.347928   -0.029254
     10          6           0        0.854751   -2.343698    0.949795
     11          6           0        2.694968   -2.047993   -0.707598
     12          6           0        1.976821   -0.125021    0.802901
     13          6           0        3.114852    0.767417    0.278214
     14          6           0        2.812392    1.581908   -0.978598
     15          8           0        3.537843    1.644376    1.331310
     16          6           0       -4.272150   -1.520440    0.512835
     17          1           0       -3.331611    3.431502   -0.192591
     18          1           0       -2.017070    3.452376    0.984982
     19          1           0       -1.654762    3.618171   -0.735930
     20          1           0       -4.153644    1.200571    0.597279
     21          1           0       -1.808710   -2.253220   -0.379610
     22          1           0       -0.167882    1.671117   -0.907109
     23          1           0        0.253959   -1.895098   -1.696384
     24          1           0        0.952675   -0.295759   -1.856937
     25          1           0        0.441662   -3.208768    0.416707
     26          1           0        1.597513   -2.714084    1.665591
     27          1           0        0.041975   -1.877762    1.515190
     28          1           0        3.152204   -1.423878   -1.483277
     29          1           0        3.471961   -2.300467    0.023490
     30          1           0        2.369972   -2.980504   -1.183866
     31          1           0        1.105979    0.507206    1.028272
     32          1           0        2.337564   -0.497910    1.769178
     33          1           0        3.996364    0.146416    0.089304
     34          1           0        1.929596    2.216084   -0.828791
     35          1           0        3.662817    2.233405   -1.202355
     36          1           0        2.626055    0.947745   -1.850608
     37          1           0        2.766709    2.182014    1.575246
     38          1           0       -4.888084   -1.077656    1.302679
     39          1           0       -4.925403   -1.687258   -0.353912
     40          1           0       -3.931643   -2.502389    0.857392
 ---------------------------------------------------------------------

 SCF Done:  E(UB3LYP) =  -661.535011847     A.U. after   33 cycles
 SCF Done:  E(UB3LYP) =  -661.535011847     a.u. after    1 cycles

 The electronic state is 2-A.
 Alpha  occ. eigenvalues --  -19.02648 -10.12824 -10.09707 -10.08674 -10.08588
 Alpha  occ. eigenvalues --  -10.08391 -10.07610 -10.07469 -10.07030 -10.07012
 Alpha  occ. eigenvalues --  -10.06971 -10.06966 -10.06960 -10.06945 -10.06839
 Alpha  occ. eigenvalues --  -10.06337  -0.92831  -0.76926  -0.73794  -0.68713
 Alpha  occ. eigenvalues --   -0.67967  -0.66160  -0.60600  -0.60079  -0.59311
 Alpha  occ. eigenvalues --   -0.58487  -0.58389  -0.51641  -0.48568  -0.47952
 Alpha  occ. eigenvalues --   -0.44471  -0.40351  -0.39184  -0.39146  -0.38273
 Alpha  occ. eigenvalues --   -0.36522  -0.35443  -0.34252  -0.33127  -0.32953
 Alpha  occ. eigenvalues --   -0.32130  -0.31962  -0.31235  -0.30712  -0.30347
 Alpha  occ. eigenvalues --   -0.30015  -0.29128  -0.28840  -0.28234  -0.27404
 Alpha  occ. eigenvalues --   -0.26762  -0.25824  -0.25050  -0.24304  -0.24130
 Alpha  occ. eigenvalues --   -0.22656  -0.22545  -0.21744  -0.18241  -0.14564
 Alpha  occ. eigenvalues --   -0.14439   0.04137
 Alpha virt. eigenvalues --    0.06121   0.06230   0.07449   0.07576   0.07800
 Alpha virt. eigenvalues --    0.07922   0.08114   0.09308   0.09475   0.09755
 Alpha virt. eigenvalues --    0.09973   0.10220   0.11254   0.11546   0.11760

  Beta  occ. eigenvalues --  -19.02626 -10.12818 -10.09705 -10.08675 -10.08587
  Beta  occ. eigenvalues --  -10.08390 -10.07598 -10.07441 -10.06996 -10.06993
  Beta  occ. eigenvalues --  -10.06955 -10.06952 -10.06946 -10.06933 -10.06812
  Beta  occ. eigenvalues --  -10.06319  -0.92785  -0.76915  -0.73779  -0.68691
  Beta  occ. eigenvalues --   -0.67946  -0.66130  -0.60559  -0.60038  -0.59273
  Beta  occ. eigenvalues --   -0.58442  -0.58357  -0.51592  -0.48536  -0.47913
  Beta  occ. eigenvalues --   -0.44435  -0.40312  -0.39149  -0.39121  -0.38250
  Beta  occ. eigenvalues --   -0.36498  -0.35412  -0.34227  -0.33094  -0.32914
  Beta  occ. eigenvalues --   -0.32102  -0.31926  -0.31209  -0.30685  -0.30310
  Beta  occ. eigenvalues --   -0.29988  -0.29101  -0.28818  -0.28204  -0.27378
  Beta  occ. eigenvalues --   -0.26740  -0.25803  -0.25028  -0.24280  -0.24108
  Beta  occ. eigenvalues --   -0.22634  -0.22526  -0.21716  -0.18218  -0.14548
  Beta  occ. eigenvalues --   -0.14416
  Beta virt. eigenvalues --    0.06061   0.06773   0.07006   0.07588   0.07886
  Beta virt. eigenvalues --    0.08088   0.08247   0.08556   0.09602   0.09702
  Beta virt. eigenvalues --    0.09988   0.10220   0.10613   0.11484   0.11803

 Mulliken charges and spin densities:
               1          2
     1  C    1.441937  -1.977380
     2  C    0.125742   0.459090
     3  C   -1.949208   0.871527
     4  C    0.209326   0.225794
     5  C   -0.746732   0.188992
     6  C    0.567401   0.132888
     7  C   -0.783895   0.306510
     8  C    1.000838  -0.963689
     9  C   -1.141613   1.748825
    10  C    0.284646  -0.960814
    11  C    0.560928  -1.156284
    12  C    0.045051  -0.777374
    13  C   -0.928510   0.584482
    14  C    0.339690  -0.781886
    15  O   -0.182320   0.004294
    16  C    1.155873  -1.706217
    17  H   -0.153558   0.290147
    18  H   -0.205750   0.389423
    19  H   -0.343377   0.493673
    20  H   -0.282078   0.432825
    21  H   -0.164854   0.295487
    22  H    0.393056  -0.354750
    23  H   -0.016763   0.228366
    24  H   -0.013742   0.190071
    25  H   -0.132513   0.288008
    26  H    0.018160   0.108912
    27  H    0.129920   0.026643
    28  H   -0.019603   0.157559
    29  H   -0.007166   0.166955
    30  H   -0.061789   0.200095
    31  H    0.347955  -0.156677
    32  H    0.028278   0.162736
    33  H    0.168633   0.014911
    34  H   -0.244931   0.430064
    35  H   -0.177827   0.350118
    36  H    0.020893   0.102321
    37  H    0.073570   0.171610
    38  H   -0.179956   0.324476
    39  H   -0.005214   0.174812
    40  H   -0.170495   0.313456
 Sum of Mulliken charges =  -1.00000   1.00000

 Dipole moment (field-independent basis, Debye):
    X=              1.3602    Y=             -2.1110    Z=             -0.8571  Tot=              2.6535
 Quadrupole moment (field-independent basis, Debye-Ang):
   XX=           -178.0538   YY=           -164.3791   ZZ=           -137.0897
   XY=             -3.5654   XZ=              1.1947   YZ=             -2.7336

 Summary of Natural Population Analysis:

                                       Natural Population
                Natural  -----------------------------------------------
    Atom  No    Charge         Core      Valence    Rydberg      Total
 -----------------------------------------------------------------------
      C    1   -0.29271      0.99964     2.28719    0.00588     3.29271
      C    2   -0.00809      0.99952     1.99921    0.00937     3.00809
      C    3   -0.10416      0.99946     2.09554    0.00915     3.10416
      C    4   -0.01167      0.99952     2.00209    0.01006     3.01167
      C    5   -0.10484      0.99946     2.09653    0.00885     3.10484
      C    6   -0.00656      0.99951     1.99635    0.01070     3.00656
      C    7   -0.10811      0.99946     2.09987    0.00878     3.10811
      C    8   -0.19670      0.99956     2.18629    0.01085     3.19670
      C    9   -0.03902      0.99957     2.02874    0.01070     3.03902
      C   10   -0.28570      0.99963     2.27837    0.00770     3.28570
      C   11   -0.28687      0.99962     2.27962    0.00763     3.28687
      C   12   -0.20386      0.99956     2.19375    0.01055     3.20386
      C   13    0.06316      0.99958     1.92496    0.01231     2.93684
      C   14   -0.29744      0.99964     2.29243    0.00537     3.29744
      O   15   -0.37195      0.99990     3.36568    0.00637     4.37195
      C   16   -0.29022      0.99964     2.28557    0.00501     3.29022
      H   17    0.10190      0.00000     0.39706    0.00105     0.39810
      H   18    0.10713      0.00000     0.39146    0.00141     0.39287
      H   19    0.10351      0.00000     0.39535    0.00115     0.39649
      H   20    0.09781      0.00000     0.40116    0.00103     0.40219
      H   21    0.09930      0.00000     0.39924    0.00146     0.40070
      H   22    0.09879      0.00000     0.39931    0.00190     0.40121
      H   23    0.10276      0.00000     0.39576    0.00148     0.39724
      H   24    0.10312      0.00000     0.39511    0.00178     0.39688
      H   25    0.09905      0.00000     0.39985    0.00110     0.40095
      H   26    0.09823      0.00000     0.40095    0.00082     0.40177
      H   27    0.10601      0.00000     0.39291    0.00108     0.39399
      H   28    0.09949      0.00000     0.39958    0.00093     0.40051
      H   29    0.09953      0.00000     0.39963    0.00085     0.40047
      H   30    0.10148      0.00000     0.39762    0.00090     0.39852
      H   31    0.10377      0.00000     0.39459    0.00164     0.39623
      H   32    0.10371      0.00000     0.39495    0.00134     0.39629
      H   33    0.08385      0.00000     0.41432    0.00183     0.41615
      H   34    0.09692      0.00000     0.40147    0.00161     0.40308
      H   35    0.10357      0.00000     0.39550    0.00094     0.39643
      H   36    0.09951      0.00000     0.39936    0.00112     0.40049
      H   37    0.22611      0.00000     0.27097    0.00292     0.27389
      H   38    0.10268      0.00000     0.39618    0.00114     0.39732
      H   39    0.10363      0.00000     0.39520    0.00118     0.39637
      H   40    0.10290      0.00000     0.39596    0.00114     0.39710
 =======================================================================
   * Total *   -0.00000     15.99326    44.83569    0.17105    61.00000

 Normal termination of Gaussian 16 at Fri Dec 11 05:13:48 2020.
