 Gaussian 16, Revision A.03,

 -----------------------------------------------------------
 # opt freq B3LYP/6-31G(d) empiricaldispersion=gd3bj scf=xqc
 -----------------------------------------------------------

 ------------------------------
 CID_64755152_JID_5040_neutraal
 ------------------------------
 Symbolic Z-matrix:
 Charge =  0 Multiplicity = 1

 SCF Done:  E(RB3LYP) =  -656.537862593     A.U. after   14 cycles
 SCF Done:  E(RB3LYP) =  -656.543813737     A.U. after   12 cycles
 SCF Done:  E(RB3LYP) =  -656.545771912     A.U. after   12 cycles
 SCF Done:  E(RB3LYP) =  -656.546878868     A.U. after   13 cycles
 SCF Done:  E(RB3LYP) =  -656.548001981     A.U. after   12 cycles
 SCF Done:  E(RB3LYP) =  -656.548151524     A.U. after   11 cycles
 SCF Done:  E(RB3LYP) =  -656.548337507     A.U. after   12 cycles
 SCF Done:  E(RB3LYP) =  -656.548479951     A.U. after   11 cycles
 SCF Done:  E(RB3LYP) =  -656.548476293     A.U. after   11 cycles
 SCF Done:  E(RB3LYP) =  -656.548511635     A.U. after   12 cycles
 SCF Done:  E(RB3LYP) =  -656.548591628     A.U. after   10 cycles
 SCF Done:  E(RB3LYP) =  -656.548595971     A.U. after   10 cycles
 SCF Done:  E(RB3LYP) =  -656.548596131     A.U. after    8 cycles
 SCF Done:  E(RB3LYP) =  -656.548596396     A.U. after    7 cycles
 SCF Done:  E(RB3LYP) =  -656.548596387     A.U. after    7 cycles
 SCF Done:  E(RB3LYP) =  -656.548596457     A.U. after    7 cycles
 Optimization completed.
    -- Stationary point found.
 Normal termination of Gaussian 16 at Thu Dec 10 15:01:23 2020.

 --------------------------------------------------------------------
 #N Geom=AllCheck Guess=TCheck SCRF=Check GenChk RB3LYP/6-31G(d) Freq
 --------------------------------------------------------------------

 Structure from the checkpoint file:  "JID_5040.chk"
 ------------------------------
 CID_64755152_JID_5040_neutraal
 ------------------------------
 Charge =  0 Multiplicity = 1

 SCF Done:  E(RB3LYP) =  -656.548596457     A.U. after    1 cycles

  Exact polarizability: 148.414  -2.116 140.439  -3.085   2.140 124.681
 Approx polarizability: 200.003  -8.917 199.217  -7.590   0.700 182.823

                      1                      2                      3
                      A                      A                      A
 Frequencies --     39.3659                43.4881                70.0144
 Red. masses --      2.6203                 3.3571                 4.5621
 Frc consts  --      0.0024                 0.0037                 0.0132
 IR Inten    --      0.2047                 1.4482                 4.9162

                      4                      5                      6
                      A                      A                      A
 Frequencies --     97.5192               107.5636               138.3870
 Red. masses --      1.7819                 3.2420                 2.1700
 Frc consts  --      0.0100                 0.0221                 0.0245
 IR Inten    --      0.8470                 1.3425                 1.4915

                      7                      8                      9
                      A                      A                      A
 Frequencies --    166.5824               184.8756               195.3513
 Red. masses --      3.7382                 2.8981                 1.3510
 Frc consts  --      0.0611                 0.0584                 0.0304
 IR Inten    --     24.3613                16.6230                67.1721

                     10                     11                     12
                      A                      A                      A
 Frequencies --    205.7125               227.6432               235.4609
 Red. masses --      1.5437                 1.8012                 1.1624
 Frc consts  --      0.0385                 0.0550                 0.0380
 IR Inten    --     71.6053                 8.7528                 1.3184

                     13                     14                     15
                      A                      A                      A
 Frequencies --    257.0704               270.1530               287.0349
 Red. masses --      2.4564                 1.4471                 2.0277
 Frc consts  --      0.0956                 0.0622                 0.0984
 IR Inten    --      2.6038                 1.4870                 1.0568

                     16                     17                     18
                      A                      A                      A
 Frequencies --    321.6580               324.2188               346.8025
 Red. masses --      3.2206                 2.7695                 2.4553
 Frc consts  --      0.1963                 0.1715                 0.1740
 IR Inten    --      0.9895                 9.6167                 3.9569

                     19                     20                     21
                      A                      A                      A
 Frequencies --    386.3785               399.4937               405.9892
 Red. masses --      2.1807                 2.0709                 2.5957
 Frc consts  --      0.1918                 0.1947                 0.2521
 IR Inten    --      1.8167                 1.2402                 0.8010

                     22                     23                     24
                      A                      A                      A
 Frequencies --    432.9247               477.8058               506.3249
 Red. masses --      2.5410                 2.6352                 2.4000
 Frc consts  --      0.2806                 0.3545                 0.3625
 IR Inten    --      2.7300                 1.6204                 2.1416

                     25                     26                     27
                      A                      A                      A
 Frequencies --    516.4540               577.6428               612.0463
 Red. masses --      2.2515                 1.4854                 2.6269
 Frc consts  --      0.3538                 0.2920                 0.5798
 IR Inten    --      3.9578                 7.3200                 5.1149

                     28                     29                     30
                      A                      A                      A
 Frequencies --    680.9656               705.9166               737.3745
 Red. masses --      2.4346                 2.7722                 3.4488
 Frc consts  --      0.6652                 0.8139                 1.1048
 IR Inten    --     10.9293                33.5684                 5.9922

                     31                     32                     33
                      A                      A                      A
 Frequencies --    759.6935               784.5250               807.6245
 Red. masses --      1.7421                 1.3067                 2.8092
 Frc consts  --      0.5924                 0.4739                 1.0796
 IR Inten    --     37.0220                 3.8097                 2.2958

                     34                     35                     36
                      A                      A                      A
 Frequencies --    842.8943               882.6965               907.6289
 Red. masses --      2.0281                 2.3503                 2.1533
 Frc consts  --      0.8489                 1.0789                 1.0452
 IR Inten    --      1.9948                 0.6914                 2.0169

                     37                     38                     39
                      A                      A                      A
 Frequencies --    923.7137               943.7277               957.3006
 Red. masses --      1.5973                 1.3857                 1.5583
 Frc consts  --      0.8030                 0.7272                 0.8414
 IR Inten    --      2.1399                 6.2589                 8.0303

                     40                     41                     42
                      A                      A                      A
 Frequencies --    981.2994               993.1332              1005.6874
 Red. masses --      1.6868                 2.1008                 2.2997
 Frc consts  --      0.9570                 1.2208                 1.3704
 IR Inten    --      1.3081                 8.0423                 1.1457

                     43                     44                     45
                      A                      A                      A
 Frequencies --   1021.4459              1042.2974              1064.7315
 Red. masses --      1.9453                 1.6421                 1.9602
 Frc consts  --      1.1958                 1.0511                 1.3093
 IR Inten    --      2.8097                 6.6488                13.8994

                     46                     47                     48
                      A                      A                      A
 Frequencies --   1075.2998              1097.0925              1100.9266
 Red. masses --      1.6935                 1.9211                 2.1527
 Frc consts  --      1.1537                 1.3623                 1.5373
 IR Inten    --      1.5725                 1.8800                 4.5577

                     49                     50                     51
                      A                      A                      A
 Frequencies --   1117.6411              1137.1070              1138.9474
 Red. masses --      2.4224                 2.6033                 1.5134
 Frc consts  --      1.7828                 1.9833                 1.1567
 IR Inten    --     10.7481                 9.4085                 1.2964

                     52                     53                     54
                      A                      A                      A
 Frequencies --   1172.6606              1174.8325              1194.2226
 Red. masses --      1.3927                 1.8772                 2.6998
 Frc consts  --      1.1284                 1.5265                 2.2686
 IR Inten    --      1.0109                 1.2479                11.4590

                     55                     56                     57
                      A                      A                      A
 Frequencies --   1212.6347              1241.2007              1280.2790
 Red. masses --      2.3392                 1.4319                 1.5232
 Frc consts  --      2.0266                 1.2997                 1.4710
 IR Inten    --     15.4193                 3.6346                20.5686

                     58                     59                     60
                      A                      A                      A
 Frequencies --   1288.3085              1316.9984              1335.1460
 Red. masses --      1.3404                 1.3180                 1.3290
 Frc consts  --      1.3108                 1.3469                 1.3958
 IR Inten    --      1.0259                12.4007                 1.1435

                     61                     62                     63
                      A                      A                      A
 Frequencies --   1345.3801              1357.7690              1365.3537
 Red. masses --      2.5655                 1.2741                 1.8406
 Frc consts  --      2.7360                 1.3839                 2.0217
 IR Inten    --     91.4836                 0.9961                14.1358

                     64                     65                     66
                      A                      A                      A
 Frequencies --   1382.2398              1395.0711              1397.6636
 Red. masses --      1.3762                 1.3699                 1.4186
 Frc consts  --      1.5492                 1.5708                 1.6327
 IR Inten    --      2.2614                 5.7264                 3.8250

                     67                     68                     69
                      A                      A                      A
 Frequencies --   1398.2159              1405.9835              1412.0490
 Red. masses --      1.4180                 1.3696                 1.3468
 Frc consts  --      1.6334                 1.5951                 1.5822
 IR Inten    --      0.4020                 1.6549                 0.4879

                     70                     71                     72
                      A                      A                      A
 Frequencies --   1418.1785              1440.8239              1446.2168
 Red. masses --      1.4511                 1.2815                 1.2252
 Frc consts  --      1.7196                 1.5675                 1.5099
 IR Inten    --      3.9811                 9.8997                 2.8970

                     73                     74                     75
                      A                      A                      A
 Frequencies --   1454.0403              1507.8934              1509.3579
 Red. masses --      1.2417                 1.0754                 1.0680
 Frc consts  --      1.5467                 1.4406                 1.4335
 IR Inten    --      7.9604                 0.4097                 1.7082

                     76                     77                     78
                      A                      A                      A
 Frequencies --   1511.8151              1519.5497              1523.5426
 Red. masses --      1.0767                 1.0756                 1.0768
 Frc consts  --      1.4499                 1.4632                 1.4726
 IR Inten    --      2.8188                 7.7332                 2.6633

                     79                     80                     81
                      A                      A                      A
 Frequencies --   1526.5334              1530.6742              1531.0373
 Red. masses --      1.0699                 1.0488                 1.0724
 Frc consts  --      1.4689                 1.4478                 1.4811
 IR Inten    --     10.9738                12.7808                 6.9932

                     82                     83                     84
                      A                      A                      A
 Frequencies --   1536.3295              1546.2119              1552.3172
 Red. masses --      1.0561                 1.0520                 1.0722
 Frc consts  --      1.4686                 1.4818                 1.5222
 IR Inten    --      6.1529                 5.7716                 2.0439

                     85                     86                     87
                      A                      A                      A
 Frequencies --   1570.6147              1638.3245              1779.3025
 Red. masses --      1.1487                 1.2565                 8.6709
 Frc consts  --      1.6696                 1.9871                16.1739
 IR Inten    --     23.3399               114.7506               259.6210

                     88                     89                     90
                      A                      A                      A
 Frequencies --   2981.6384              2999.8942              3008.1839
 Red. masses --      1.0814                 1.0692                 1.0777
 Frc consts  --      5.6645                 5.6691                 5.7458
 IR Inten    --     31.3268                38.3570                12.5982

                     91                     92                     93
                      A                      A                      A
 Frequencies --   3022.3837              3036.4219              3040.6782
 Red. masses --      1.0702                 1.0614                 1.0502
 Frc consts  --      5.7598                 5.7655                 5.7211
 IR Inten    --     53.4718                24.1793                38.4090

                     94                     95                     96
                      A                      A                      A
 Frequencies --   3044.4516              3047.3514              3055.5703
 Red. masses --      1.0611                 1.0571                 1.0365
 Frc consts  --      5.7944                 5.7838                 5.7018
 IR Inten    --     54.1533                29.7450                22.5665

                     97                     98                     99
                      A                      A                      A
 Frequencies --   3057.0922              3068.3350              3072.3429
 Red. masses --      1.0426                 1.0950                 1.1026
 Frc consts  --      5.7411                 6.0740                 6.1319
 IR Inten    --     37.0296                40.7793                27.3234

                    100                    101                    102
                      A                      A                      A
 Frequencies --   3074.8587              3079.2637              3097.8625
 Red. masses --      1.0913                 1.1032                 1.1015
 Frc consts  --      6.0789                 6.1631                 6.2282
 IR Inten    --     56.8232                27.2745                52.8253

                    103                    104                    105
                      A                      A                      A
 Frequencies --   3098.7833              3116.2685              3119.6122
 Red. masses --      1.0986                 1.0998                 1.1016
 Frc consts  --      6.2154                 6.2925                 6.3166
 IR Inten    --     28.0752                36.5730                54.4065

                    106                    107                    108
                      A                      A                      A
 Frequencies --   3127.8249              3149.5023              3160.2003
 Red. masses --      1.1022                 1.0983                 1.0970
 Frc consts  --      6.3534                 6.4188                 6.4546
 IR Inten    --     36.9288                27.5117                12.2609

                    109                    110                    111
                      A                      A                      A
 Frequencies --   3522.4461              3594.9033              3728.5040
 Red. masses --      1.0727                 1.0463                 1.1028
 Frc consts  --      7.8419                 7.9668                 9.0323
 IR Inten    --      2.8506                25.0986                29.8905

 - Thermochemistry -
 -------------------
 Temperature   298.150 Kelvin.  Pressure   1.00000 Atm.
 Atom     1 has atomic number  6 and mass  12.00000

 Molecular mass:   212.18886 amu.
 Principal axes and moments of inertia in atomic units:
                           1         2         3
     Eigenvalues --  2545.552633699.923114318.71259
           X            0.99962  -0.02597   0.00903
           Y            0.02538   0.99788   0.05991
           Z           -0.01057  -0.05966   0.99816
 This molecule is an asymmetric top.
 Rotational symmetry number  1.
 Warning -- assumption of classical behavior for rotation
           may cause significant error
 Rotational temperatures (Kelvin)      0.03403     0.02341     0.02006
 Rotational constants (GHZ):           0.70898     0.48778     0.41789
 Zero-point vibrational energy     939468.0 (Joules/Mol)
                                  224.53823 (Kcal/Mol)
 Warning -- explicit consideration of  27 degrees of freedom as
           vibrations may cause significant error
 Vibrational temperatures:     56.64    62.57   100.74   140.31   154.76
          (Kelvin)            199.11   239.67   265.99   281.07   295.97
                              327.53   338.78   369.87   388.69   412.98
                              462.79   466.48   498.97   555.91   574.78
                              584.13   622.88   687.46   728.49   743.06
                              831.10   880.60   979.76  1015.66  1060.92
                             1093.03  1128.76  1161.99  1212.74  1270.00
                             1305.88  1329.02  1357.81  1377.34  1411.87
                             1428.90  1446.96  1469.63  1499.63  1531.91
                             1547.12  1578.47  1583.99  1608.04  1636.04
                             1638.69  1687.20  1690.32  1718.22  1744.71
                             1785.81  1842.04  1853.59  1894.87  1920.98
                             1935.70  1953.53  1964.44  1988.73  2007.20
                             2010.93  2011.72  2022.90  2031.62  2040.44
                             2073.02  2080.78  2092.04  2169.52  2171.63
                             2175.16  2186.29  2192.04  2196.34  2202.30
                             2202.82  2210.44  2224.65  2233.44  2259.76
                             2357.18  2560.02  4289.91  4316.18  4328.11
                             4348.54  4368.73  4374.86  4380.29  4384.46
                             4396.28  4398.47  4414.65  4420.42  4424.04
                             4430.37  4457.13  4458.46  4483.62  4488.43
                             4500.24  4531.43  4546.82  5068.01  5172.26
                             5364.49

 Zero-point correction=                           0.357824 (Hartree/Particle)
 Thermal correction to Energy=                    0.374888
 Thermal correction to Enthalpy=                  0.375833
 Thermal correction to Gibbs Free Energy=         0.314016
 Sum of electronic and zero-point Energies=           -656.190772
 Sum of electronic and thermal Energies=              -656.173708
 Sum of electronic and thermal Enthalpies=            -656.172764
 Sum of electronic and thermal Free Energies=         -656.234581

                     E (Thermal)             CV                S
                      KCal/Mol        Cal/Mol-Kelvin    Cal/Mol-Kelvin
 Total                  235.246             65.454            130.105
 Electronic               0.000              0.000              0.000
 Translational            0.889              2.981             41.960
 Rotational               0.889              2.981             32.075
 Vibrational            233.469             59.492             56.069
 Vibration     1          0.594              1.981              5.291
 Vibration     2          0.595              1.980              5.094
 Vibration     3          0.598              1.968              4.153
 Vibration     4          0.603              1.951              3.503
 Vibration     5          0.606              1.943              3.312
 Vibration     6          0.614              1.915              2.826
 Vibration     7          0.624              1.884              2.474
 Vibration     8          0.631              1.860              2.279
 Vibration     9          0.636              1.846              2.176
 Vibration    10          0.640              1.832              2.081
 Vibration    11          0.651              1.799              1.897
 Vibration    12          0.655              1.787              1.837
 Vibration    13          0.667              1.751              1.682
 Vibration    14          0.674              1.728              1.595
 Vibration    15          0.684              1.698              1.491
 Vibration    16          0.707              1.632              1.302
 Vibration    17          0.709              1.627              1.289
 Vibration    18          0.725              1.582              1.181
 Vibration    19          0.755              1.499              1.014
 Vibration    20          0.766              1.471              0.965
 Vibration    21          0.771              1.457              0.941
 Vibration    22          0.794              1.398              0.849
 Vibration    23          0.834              1.299              0.716
 Vibration    24          0.862              1.236              0.642
 Vibration    25          0.871              1.214              0.618
 Vibration    26          0.934              1.080              0.490
 Vibration    27          0.971              1.006              0.429

 Optimization completed.
    -- Stationary point found.
 Normal termination of Gaussian 16 at Thu Dec 10 15:17:15 2020.

 ----------------------------------------------------------------------
 # B3LYP/6-311++G(d,p) empiricaldispersion=gd3bj scf=xqc pop=npa geom=c
 heck
 ----------------------------------------------------------------------

 --------------------------------------
 CID_64755152_JID_5040_Energie_neutraal
 --------------------------------------
 Structure from the checkpoint file:  "JID_5040.chk"
 Charge =  0 Multiplicity = 1

 SCF Done:  E(RB3LYP) =  -656.741935992     A.U. after   14 cycles
 Normal termination of Gaussian 16 at Thu Dec 10 15:25:15 2020.

 ----------------------------------------------------------------------
 # B3LYP/6-311++G(d,p) empiricaldispersion=gd3bj scf=xqc pop=npa geom=c
 heck
 ----------------------------------------------------------------------

 ------------------------------------
 CID_64755152_JID_5040_Energie_kation
 ------------------------------------
 Structure from the checkpoint file:  "JID_5040.chk"
 Charge =  1 Multiplicity = 2

 SCF Done:  E(UB3LYP) =  -656.445900443     A.U. after   23 cycles
 Normal termination of Gaussian 16 at Thu Dec 10 15:43:57 2020.
 Gaussian 16:  ES64L-G16RevA.03 25-Dec-2016

 ----------------------------------------------------------------------
 # B3LYP/6-311++G(d,p) empiricaldispersion=gd3bj scf=xqc pop=npa geom=c
 heck
 ----------------------------------------------------------------------

 -----------------------------------
 CID_64755152_JID_5040_Energie_anion
 -----------------------------------
 Structure from the checkpoint file:  "JID_5040.chk"
 Charge = -1 Multiplicity = 2

                         Standard orientation:
 ---------------------------------------------------------------------
 Center     Atomic      Atomic             Coordinates (Angstroms)
 Number     Number       Type             X           Y           Z
 ---------------------------------------------------------------------
      1          6           0        3.652594   -1.288596   -0.265091
      2          6           0        2.829581   -1.417262    1.021610
      3          6           0        1.704891   -0.386009    1.153769
      4          7           0        0.619220   -0.679133    0.209266
      5          6           0       -0.217678    0.426386   -0.260134
      6          6           0       -1.127244   -0.123697   -1.399548
      7          6           0       -2.193122   -1.154247   -0.970840
      8          6           0       -2.991741   -0.624011    0.234581
      9          6           0       -2.089622   -0.100514    1.356773
     10          6           0       -1.145609    0.999914    0.848657
     11          6           0       -0.460077    1.726433    2.016732
     12          6           0       -1.633668   -2.562280   -0.723076
     13          6           0        0.671512    1.494188   -0.966144
     14          8           0        1.704744    1.163644   -1.536094
     15          7           0        0.211720    2.779131   -1.024099
     16          1           0        3.044378   -1.421214   -1.165785
     17          1           0        4.451626   -2.038029   -0.290512
     18          1           0        4.107368   -0.295223   -0.338602
     19          1           0        2.390481   -2.421868    1.092571
     20          1           0        3.495506   -1.307440    1.886920
     21          1           0        1.309127   -0.433139    2.173748
     22          1           0        2.127133    0.621425    1.012041
     23          1           0        1.043499   -1.074625   -0.625335
     24          1           0       -1.634842    0.736055   -1.855494
     25          1           0       -0.482060   -0.546920   -2.179745
     26          1           0       -2.890600   -1.234986   -1.817043
     27          1           0       -3.656711   -1.410056    0.613987
     28          1           0       -3.641041    0.198581   -0.099790
     29          1           0       -1.487318   -0.912385    1.779033
     30          1           0       -2.706419    0.301718    2.170821
     31          1           0       -1.789063    1.736848    0.341416
     32          1           0        0.343541    2.391965    1.685410
     33          1           0       -1.197766    2.331504    2.556664
     34          1           0       -0.033948    1.022301    2.734647
     35          1           0       -2.452972   -3.269282   -0.543937
     36          1           0       -1.074163   -2.915979   -1.597963
     37          1           0       -0.954651   -2.578662    0.131027
     38          1           0       -0.559224    3.107273   -0.465803
     39          1           0        0.794692    3.461169   -1.489418
 ---------------------------------------------------------------------

 SCF Done:  E(UB3LYP) =  -656.731141436     A.U. after   32 cycles

 The electronic state is 2-A.
 Alpha  occ. eigenvalues --  -18.98651 -14.22588 -14.19408 -10.16784 -10.11313
 Alpha  occ. eigenvalues --  -10.09159 -10.07861 -10.07477 -10.07242 -10.06818
 Alpha  occ. eigenvalues --  -10.06775 -10.05971 -10.05900 -10.05569 -10.05308
 Alpha  occ. eigenvalues --   -0.93755  -0.81423  -0.79944  -0.73110  -0.68470
 Alpha  occ. eigenvalues --   -0.67671  -0.63764  -0.60726  -0.57657  -0.55249
 Alpha  occ. eigenvalues --   -0.53023  -0.49571  -0.49044  -0.46543  -0.44681
 Alpha  occ. eigenvalues --   -0.43332  -0.39380  -0.37820  -0.37060  -0.35110
 Alpha  occ. eigenvalues --   -0.34785  -0.34016  -0.33771  -0.32622  -0.31737
 Alpha  occ. eigenvalues --   -0.31246  -0.30733  -0.30200  -0.28838  -0.28524
 Alpha  occ. eigenvalues --   -0.28180  -0.26848  -0.25717  -0.25070  -0.24908
 Alpha  occ. eigenvalues --   -0.24153  -0.23404  -0.22213  -0.21712  -0.20862
 Alpha  occ. eigenvalues --   -0.19732  -0.17022  -0.15803  -0.12884   0.04356
 Alpha virt. eigenvalues --    0.06497   0.06750   0.07503   0.08496   0.08765
 Alpha virt. eigenvalues --    0.09194   0.09343   0.10034   0.10741   0.11138
 Alpha virt. eigenvalues --    0.11354   0.11708   0.12005   0.12590   0.12733

  Beta  occ. eigenvalues --  -18.98645 -14.22521 -14.19399 -10.16779 -10.11311
  Beta  occ. eigenvalues --  -10.09153 -10.07858 -10.07455 -10.07237 -10.06813
  Beta  occ. eigenvalues --  -10.06761 -10.05951 -10.05889 -10.05539 -10.05297
  Beta  occ. eigenvalues --   -0.93739  -0.81408  -0.79855  -0.73081  -0.68453
  Beta  occ. eigenvalues --   -0.67639  -0.63739  -0.60691  -0.57636  -0.55202
  Beta  occ. eigenvalues --   -0.52966  -0.49533  -0.48993  -0.46473  -0.44634
  Beta  occ. eigenvalues --   -0.43281  -0.39341  -0.37791  -0.37030  -0.35086
  Beta  occ. eigenvalues --   -0.34763  -0.33994  -0.33751  -0.32575  -0.31715
  Beta  occ. eigenvalues --   -0.31230  -0.30709  -0.30180  -0.28813  -0.28501
  Beta  occ. eigenvalues --   -0.28154  -0.26820  -0.25686  -0.25048  -0.24897
  Beta  occ. eigenvalues --   -0.24129  -0.23377  -0.22180  -0.21680  -0.20832
  Beta  occ. eigenvalues --   -0.19697  -0.16976  -0.15779  -0.12858
  Beta virt. eigenvalues --    0.06290   0.07011   0.07620   0.07961   0.08945
  Beta virt. eigenvalues --    0.09053   0.09523   0.09666   0.10330   0.10983
  Beta virt. eigenvalues --    0.11249   0.11647   0.11931   0.12377   0.12734

 Mulliken charges and spin densities:
               1          2
     1  C   -0.373675  -0.150053
     2  C   -0.138185  -0.270804
     3  C   -0.085926   0.015215
     4  N    0.372274   0.060352
     5  C    0.674596  -0.996443
     6  C   -0.379586  -0.175389
     7  C   -0.258809   0.742723
     8  C    0.528257  -1.273620
     9  C    0.356786  -0.576118
    10  C   -1.264995   0.832155
    11  C    0.491647  -0.948141
    12  C   -0.029247  -0.723802
    13  C    0.605727  -0.490531
    14  O   -0.280615  -0.006845
    15  N   -0.326049  -0.021109
    16  H    0.062295   0.087404
    17  H    0.118455   0.006503
    18  H    0.095225   0.053689
    19  H    0.106122   0.020311
    20  H    0.030495   0.113518
    21  H    0.143968  -0.006998
    22  H    0.095182   0.052856
    23  H    0.430483  -0.156846
    24  H   -0.107147   0.294238
    25  H    0.075796   0.074084
    26  H   -0.234259   0.448642
    27  H   -0.075208   0.237922
    28  H   -0.162341   0.299880
    29  H    0.089121   0.048262
    30  H   -0.118911   0.304803
    31  H   -0.287143   0.467602
    32  H    0.045000   0.083227
    33  H   -0.704925   0.888411
    34  H    0.004072   0.134648
    35  H   -0.076510   0.200197
    36  H    0.026079   0.088600
    37  H    0.179075   0.012020
    38  H   -0.370960   0.663042
    39  H   -0.256162   0.566393
 Sum of Mulliken charges =  -1.00000   1.00000

 Dipole moment (field-independent basis, Debye):
    X=              4.5827    Y=             -6.9542    Z=              1.2010  Tot=              8.4146
 Quadrupole moment (field-independent basis, Debye-Ang):
   XX=           -151.3210   YY=           -157.6925   ZZ=           -133.0601
   XY=              5.2115   XZ=              4.8803   YZ=             -0.7446

 Summary of Natural Population Analysis:

                                       Natural Population
                Natural  -----------------------------------------------
    Atom  No    Charge         Core      Valence    Rydberg      Total
 -----------------------------------------------------------------------
      C    1   -0.28673      0.99967     2.28251    0.00456     3.28673
      C    2   -0.19222      0.99964     2.18597    0.00661     3.19222
      C    3   -0.08435      0.99962     2.07559    0.00914     3.08435
      N    4   -0.35057      0.99972     2.83879    0.01206     3.85057
      C    5    0.03704      0.99949     1.94598    0.01749     2.96296
      C    6   -0.18376      0.99957     2.17350    0.01068     3.18376
      C    7   -0.10923      0.99959     2.09901    0.01062     3.10923
      C    8   -0.18531      0.99961     2.17647    0.00923     3.18531
      C    9   -0.18695      0.99960     2.17789    0.00946     3.18695
      C   10   -0.12155      0.99956     2.10735    0.01465     3.12155
      C   11   -0.28577      0.99964     2.27956    0.00657     3.28577
      C   12   -0.28891      0.99964     2.28277    0.00649     3.28891
      C   13    0.34177      0.99962     1.63272    0.02590     2.65823
      O   14   -0.33392      0.99988     3.32767    0.00638     4.33392
      N   15   -0.39975      0.99969     2.89101    0.00905     3.89975
      H   16    0.09972      0.00000     0.39932    0.00096     0.40028
      H   17    0.09240      0.00000     0.40672    0.00087     0.40760
      H   18    0.10166      0.00000     0.39734    0.00100     0.39834
      H   19    0.09358      0.00000     0.40501    0.00141     0.40642
      H   20    0.09420      0.00000     0.40467    0.00113     0.40580
      H   21    0.08816      0.00000     0.41047    0.00137     0.41184
      H   22    0.08512      0.00000     0.41261    0.00227     0.41488
      H   23    0.17808      0.00000     0.31885    0.00307     0.32192
      H   24    0.10734      0.00000     0.39108    0.00158     0.39266
      H   25    0.10117      0.00000     0.39775    0.00108     0.39883
      H   26    0.09619      0.00000     0.40219    0.00162     0.40381
      H   27    0.09630      0.00000     0.40278    0.00092     0.40370
      H   28    0.09895      0.00000     0.39944    0.00161     0.40105
      H   29    0.09940      0.00000     0.39916    0.00144     0.40060
      H   30    0.10034      0.00000     0.39871    0.00095     0.39966
      H   31    0.09945      0.00000     0.39607    0.00447     0.40055
      H   32    0.10141      0.00000     0.39711    0.00148     0.39859
      H   33    0.10434      0.00000     0.39440    0.00126     0.39566
      H   34    0.09567      0.00000     0.40302    0.00131     0.40433
      H   35    0.09367      0.00000     0.40551    0.00082     0.40633
      H   36    0.09452      0.00000     0.40473    0.00075     0.40548
      H   37    0.10862      0.00000     0.39026    0.00112     0.39138
      H   38    0.20310      0.00000     0.28733    0.00957     0.29690
      H   39    0.19683      0.00000     0.30004    0.00312     0.30317
 =======================================================================
   * Total *    0.00000     14.99454    43.80138    0.20408    59.00000

 Normal termination of Gaussian 16 at Thu Dec 10 16:11:19 2020.
