 Gaussian 16, Revision A.03,

 -----------------------------------------------------------
 # opt freq B3LYP/6-31G(d) empiricaldispersion=gd3bj scf=xqc
 -----------------------------------------------------------

 -------------------------------
 CID_150578971_JID_8321_neutraal
 -------------------------------
 Symbolic Z-matrix:
 Charge =  0 Multiplicity = 1

 SCF Done:  E(RB3LYP) =  -797.982227494     A.U. after   19 cycles
 SCF Done:  E(RB3LYP) =  -797.990023928     A.U. after   15 cycles
 SCF Done:  E(RB3LYP) =  -797.990872360     A.U. after   12 cycles
 SCF Done:  E(RB3LYP) =  -797.991764928     A.U. after   13 cycles
 SCF Done:  E(RB3LYP) =  -797.991978198     A.U. after   13 cycles
 SCF Done:  E(RB3LYP) =  -797.992038022     A.U. after   13 cycles
 SCF Done:  E(RB3LYP) =  -797.992086554     A.U. after   11 cycles
 SCF Done:  E(RB3LYP) =  -797.992096741     A.U. after   10 cycles
 SCF Done:  E(RB3LYP) =  -797.992100629     A.U. after    9 cycles
 SCF Done:  E(RB3LYP) =  -797.992101568     A.U. after    8 cycles
 SCF Done:  E(RB3LYP) =  -797.992101784     A.U. after    8 cycles
 Optimization completed.
    -- Stationary point found.
 Normal termination of Gaussian 16 at Fri Dec 11 20:03:08 2020.

 --------------------------------------------------------------------
 #N Geom=AllCheck Guess=TCheck SCRF=Check GenChk RB3LYP/6-31G(d) Freq
 --------------------------------------------------------------------

 Structure from the checkpoint file:  "JID_8321.chk"
 -------------------------------
 CID_150578971_JID_8321_neutraal
 -------------------------------
 Charge =  0 Multiplicity = 1

 SCF Done:  E(RB3LYP) =  -797.992101784     A.U. after    1 cycles

  Exact polarizability: 215.950  -9.187 150.197  27.128  -8.383 117.352
 Approx polarizability: 314.826 -31.481 228.604  66.435 -25.123 232.384

                      1                      2                      3
                      A                      A                      A
 Frequencies --     14.3732                30.9477                66.6857
 Red. masses --      6.9412                 3.9966                 6.4985
 Frc consts  --      0.0008                 0.0023                 0.0170
 IR Inten    --      0.6375                 0.0604                 1.0893

                      4                      5                      6
                      A                      A                      A
 Frequencies --     81.2595                90.4584               103.0490
 Red. masses --      7.3850                 6.9984                 2.7207
 Frc consts  --      0.0287                 0.0337                 0.0170
 IR Inten    --      1.5791                 0.4720                 0.6841

                      7                      8                      9
                      A                      A                      A
 Frequencies --    146.7711               156.3150               203.0567
 Red. masses --      2.0219                 3.2371                 3.6925
 Frc consts  --      0.0257                 0.0466                 0.0897
 IR Inten    --      0.6312                 0.1647                 1.3236

                     10                     11                     12
                      A                      A                      A
 Frequencies --    232.5097               252.9529               279.2752
 Red. masses --      3.4427                 1.6379                 2.1042
 Frc consts  --      0.1097                 0.0617                 0.0967
 IR Inten    --      0.3626                 0.1980                 0.0802

                     13                     14                     15
                      A                      A                      A
 Frequencies --    302.6032               319.1075               333.2733
 Red. masses --      3.0574                 2.3690                 2.0987
 Frc consts  --      0.1649                 0.1421                 0.1373
 IR Inten    --      0.6220                 0.2450                 0.7658

                     16                     17                     18
                      A                      A                      A
 Frequencies --    360.4605               386.3029               412.0405
 Red. masses --      3.1552                 5.8101                 4.8204
 Frc consts  --      0.2415                 0.5108                 0.4822
 IR Inten    --      0.2139                 1.5724                 1.1672

                     19                     20                     21
                      A                      A                      A
 Frequencies --    415.0597               486.0923               510.4638
 Red. masses --      3.2786                 4.6114                 3.9305
 Frc consts  --      0.3328                 0.6420                 0.6034
 IR Inten    --      0.1537                 0.8409                 2.2813

                     22                     23                     24
                      A                      A                      A
 Frequencies --    526.0213               565.1583               580.2175
 Red. masses --     13.5425                 4.9188                 4.3186
 Frc consts  --      2.2078                 0.9257                 0.8566
 IR Inten    --      7.2762                 8.7974                 5.0806

                     25                     26                     27
                      A                      A                      A
 Frequencies --    638.0232               653.9473               671.8721
 Red. masses --      6.3254                 5.0795                 8.2257
 Frc consts  --      1.5171                 1.2799                 2.1877
 IR Inten    --      0.0055                 3.8833                 1.6339

                     28                     29                     30
                      A                      A                      A
 Frequencies --    714.5854               732.8561               768.2162
 Red. masses --      1.7378                 2.7950                 4.9835
 Frc consts  --      0.5228                 0.8844                 1.7328
 IR Inten    --     27.2436                 6.5468                 7.7076

                     31                     32                     33
                      A                      A                      A
 Frequencies --    777.3321               784.4841               796.0295
 Red. masses --      1.6911                 2.1299                 1.7570
 Frc consts  --      0.6020                 0.7723                 0.6559
 IR Inten    --     22.3323                14.4720                 4.1134

                     34                     35                     36
                      A                      A                      A
 Frequencies --    843.8736               858.0898               901.6153
 Red. masses --      1.6804                 1.2774                 2.3571
 Frc consts  --      0.7051                 0.5542                 1.1290
 IR Inten    --      8.0294                 1.1945                 3.7408

                     37                     38                     39
                      A                      A                      A
 Frequencies --    926.1956               934.6867               967.0667
 Red. masses --      1.4428                 9.9219                 1.3483
 Frc consts  --      0.7292                 5.1071                 0.7429
 IR Inten    --      0.8483                20.3725                 0.1502

                     40                     41                     42
                      A                      A                      A
 Frequencies --    991.9222               995.9795              1022.2377
 Red. masses --      1.5379                 2.0327                 4.3180
 Frc consts  --      0.8915                 1.1880                 2.6585
 IR Inten    --      1.7058                 2.8277                 5.3911

                     43                     44                     45
                      A                      A                      A
 Frequencies --   1023.3907              1030.1906              1036.8972
 Red. masses --      3.6975                 1.8391                 4.1179
 Frc consts  --      2.2816                 1.1500                 2.6086
 IR Inten    --      4.4035                 5.5431                 7.8487

                     46                     47                     48
                      A                      A                      A
 Frequencies --   1064.5171              1080.4920              1115.6917
 Red. masses --      2.2879                 1.7264                 1.7011
 Frc consts  --      1.5275                 1.1875                 1.2476
 IR Inten    --      9.0067                 6.0048                 4.1506

                     49                     50                     51
                      A                      A                      A
 Frequencies --   1121.8982              1138.7056              1191.8946
 Red. masses --      1.9098                 1.7173                 2.9855
 Frc consts  --      1.4163                 1.3119                 2.4988
 IR Inten    --      7.2469                 2.0008                 0.9238

                     52                     53                     54
                      A                      A                      A
 Frequencies --   1195.8153              1219.3780              1227.9412
 Red. masses --      1.0979                 2.5042                 1.2004
 Frc consts  --      0.9250                 2.1938                 1.0664
 IR Inten    --      0.0439                 4.6869                 2.3221

                     55                     56                     57
                      A                      A                      A
 Frequencies --   1244.8630              1289.5243              1343.4982
 Red. masses --      3.0883                 4.5198                 1.2827
 Frc consts  --      2.8198                 4.4282                 1.3642
 IR Inten    --      7.8421                 1.3903                 3.2303

                     58                     59                     60
                      A                      A                      A
 Frequencies --   1349.9401              1368.2810              1373.7023
 Red. masses --      3.9642                10.8165                 1.4775
 Frc consts  --      4.2564                11.9313                 1.6428
 IR Inten    --      1.7763                83.9111                 4.5181

                     61                     62                     63
                      A                      A                      A
 Frequencies --   1389.1645              1434.6305              1444.3524
 Red. masses --      1.4726                 1.2712                 1.2297
 Frc consts  --      1.6743                 1.5415                 1.5115
 IR Inten    --      2.5507                10.7599                 2.9866

                     64                     65                     66
                      A                      A                      A
 Frequencies --   1465.6917              1496.4783              1506.0891
 Red. masses --      4.3861                 2.3390                 7.9643
 Frc consts  --      5.5515                 3.0862                10.6439
 IR Inten    --     72.3998                 2.0453               142.2035

                     67                     68                     69
                      A                      A                      A
 Frequencies --   1516.2424              1526.5981              1531.6311
 Red. masses --      1.0952                 1.0556                 1.0622
 Frc consts  --      1.4835                 1.4494                 1.4682
 IR Inten    --      1.8342                 9.2329                 6.6098

                     70                     71                     72
                      A                      A                      A
 Frequencies --   1537.4478              1544.4622              1551.0269
 Red. masses --      1.0659                 1.0648                 2.0493
 Frc consts  --      1.4845                 1.4965                 2.9046
 IR Inten    --      2.8804                 2.7551                19.5216

                     73                     74                     75
                      A                      A                      A
 Frequencies --   1621.2313              1645.3859              1667.4122
 Red. masses --      8.6379                 5.4404                 5.4902
 Frc consts  --     13.3767                 8.6780                 8.9934
 IR Inten    --    235.8475                 2.1620                 6.4405

                     76                     77                     78
                      A                      A                      A
 Frequencies --   2289.0226              3054.9488              3058.2613
 Red. masses --     13.9958                 1.0600                 1.0368
 Frc consts  --     43.2063                 5.8287                 5.7136
 IR Inten    --    757.0391                26.3587                17.1717

                     79                     80                     81
                      A                      A                      A
 Frequencies --   3063.5288              3102.4049              3122.1809
 Red. masses --      1.0359                 1.1011                 1.1014
 Frc consts  --      5.7282                 6.2444                 6.3257
 IR Inten    --     24.7440                 4.3967                35.6926

                     82                     83                     84
                      A                      A                      A
 Frequencies --   3132.6079              3135.8083              3137.4658
 Red. masses --      1.1025                 1.1025                 1.1028
 Frc consts  --      6.3743                 6.3876                 6.3959
 IR Inten    --     25.3702                42.3869                25.5127

                     85                     86                     87
                      A                      A                      A
 Frequencies --   3179.7886              3187.4983              3197.0493
 Red. masses --      1.0850                 1.0877                 1.0925
 Frc consts  --      6.4635                 6.5112                 6.5791
 IR Inten    --      4.7417                 2.0240                31.4497

                     88                     89                     90
                      A                      A                      A
 Frequencies --   3209.4211              3229.4754              3300.3035
 Red. masses --      1.0968                 1.0913                 1.0977
 Frc consts  --      6.6563                 6.7059                 7.0444
 IR Inten    --     31.4715                12.2044                 1.3644

 - Thermochemistry -
 -------------------
 Temperature   298.150 Kelvin.  Pressure   1.00000 Atm.
 Atom     1 has atomic number  6 and mass  12.00000

 Molecular mass:   242.11676 amu.
 Principal axes and moments of inertia in atomic units:
                           1         2         3
     Eigenvalues --  2567.700727080.845288230.73985
           X            0.99996   0.00803   0.00269
           Y           -0.00806   0.99990   0.01194
           Z           -0.00259  -0.01196   0.99993
 This molecule is an asymmetric top.
 Rotational symmetry number  1.
 Warning -- assumption of classical behavior for rotation
           may cause significant error
 Rotational temperatures (Kelvin)      0.03373     0.01223     0.01052
 Rotational constants (GHZ):           0.70286     0.25488     0.21927
 Zero-point vibrational energy     673065.1 (Joules/Mol)
                                  160.86642 (Kcal/Mol)
 Warning -- explicit consideration of  24 degrees of freedom as
           vibrations may cause significant error
 Vibrational temperatures:     20.68    44.53    95.95   116.91   130.15
          (Kelvin)            148.26   211.17   224.90   292.15   334.53
                              363.94   401.81   435.38   459.12   479.51
                              518.62   555.80   592.83   597.18   699.38
                              734.44   756.83   813.14   834.80   917.97
                              940.88   966.67  1028.13  1054.42  1105.29
                             1118.41  1128.70  1145.31  1214.15  1234.60
                             1297.22  1332.59  1344.81  1391.39  1427.15
                             1432.99  1470.77  1472.43  1482.21  1491.86
                             1531.60  1554.59  1605.23  1614.16  1638.34
                             1714.87  1720.51  1754.41  1766.73  1791.08
                             1855.34  1932.99  1942.26  1968.65  1976.45
                             1998.70  2064.11  2078.10  2108.80  2153.10
                             2166.93  2181.53  2196.43  2203.68  2212.04
                             2222.14  2231.58  2332.59  2367.34  2399.03
                             3293.39  4395.39  4400.16  4407.73  4463.67
                             4492.12  4507.12  4511.73  4514.11  4575.01
                             4586.10  4599.84  4617.64  4646.49  4748.40

 Zero-point correction=                           0.256357 (Hartree/Particle)
 Thermal correction to Energy=                    0.272564
 Thermal correction to Enthalpy=                  0.273508
 Thermal correction to Gibbs Free Energy=         0.210795
 Sum of electronic and zero-point Energies=           -797.735745
 Sum of electronic and thermal Energies=              -797.719538
 Sum of electronic and thermal Enthalpies=            -797.718594
 Sum of electronic and thermal Free Energies=         -797.781307

                     E (Thermal)             CV                S
                      KCal/Mol        Cal/Mol-Kelvin    Cal/Mol-Kelvin
 Total                  171.036             61.646            131.990
 Electronic               0.000              0.000              0.000
 Translational            0.889              2.981             42.354
 Rotational               0.889              2.981             33.370
 Vibrational            169.259             55.685             56.266
 Vibration     1          0.593              1.986              7.290
 Vibration     2          0.594              1.984              5.768
 Vibration     3          0.598              1.970              4.249
 Vibration     4          0.600              1.962              3.860
 Vibration     5          0.602              1.956              3.650
 Vibration     6          0.605              1.947              3.396
 Vibration     7          0.617              1.906              2.714
 Vibration     8          0.620              1.896              2.594
 Vibration     9          0.639              1.836              2.105
 Vibration    10          0.653              1.791              1.859
 Vibration    11          0.664              1.758              1.710
 Vibration    12          0.680              1.712              1.538
 Vibration    13          0.694              1.669              1.402
 Vibration    14          0.705              1.637              1.315
 Vibration    15          0.715              1.609              1.244
 Vibration    16          0.735              1.554              1.120
 Vibration    17          0.755              1.499              1.014
 Vibration    18          0.776              1.444              0.919
 Vibration    19          0.778              1.438              0.909
 Vibration    20          0.842              1.281              0.694
 Vibration    21          0.866              1.227              0.632
 Vibration    22          0.881              1.192              0.596
 Vibration    23          0.921              1.107              0.514
 Vibration    24          0.937              1.074              0.485

                           ! Non-Optimized Parameters !
 Normal termination of Gaussian 16 at Fri Dec 11 20:15:43 2020.

 ----------------------------------------------------------------------
 # B3LYP/6-311++G(d,p) empiricaldispersion=gd3bj scf=xqc pop=npa geom=c
 heck
 ----------------------------------------------------------------------

 ---------------------------------------
 CID_150578971_JID_8321_Energie_neutraal
 ---------------------------------------
 Structure from the checkpoint file:  "JID_8321.chk"
 Charge =  0 Multiplicity = 1

 SCF Done:  E(RB3LYP) =  -798.200409391     A.U. after   19 cycles
 Normal termination of Gaussian 16 at Fri Dec 11 20:22:17 2020.

 ----------------------------------------------------------------------
 # B3LYP/6-311++G(d,p) empiricaldispersion=gd3bj scf=xqc pop=npa geom=c
 heck
 ----------------------------------------------------------------------

 -------------------------------------
 CID_150578971_JID_8321_Energie_kation
 -------------------------------------
 Structure from the checkpoint file:  "JID_8321.chk"
 Charge =  1 Multiplicity = 2

 SCF Done:  E(UB3LYP) =  -797.894909080     A.U. after   29 cycles
 Normal termination of Gaussian 16 at Fri Dec 11 20:35:33 2020.
 Gaussian 16:  ES64L-G16RevA.03 25-Dec-2016

 ----------------------------------------------------------------------
 # B3LYP/6-311++G(d,p) empiricaldispersion=gd3bj scf=xqc pop=npa geom=c
 heck
 ----------------------------------------------------------------------

 ------------------------------------
 CID_150578971_JID_8321_Energie_anion
 ------------------------------------
 Structure from the checkpoint file:  "JID_8321.chk"
 Charge = -1 Multiplicity = 2

                         Standard orientation:
 ---------------------------------------------------------------------
 Center     Atomic      Atomic             Coordinates (Angstroms)
 Number     Number       Type             X           Y           Z
 ---------------------------------------------------------------------
      1          6           0       -0.085487    3.393943   -0.013742
      2          6           0       -1.171278    2.324050   -0.155087
      3          6           0       -0.812056    0.939761    0.447176
      4          6           0       -0.632947    1.061956    1.976505
      5          6           0       -1.911186   -0.108023    0.185866
      6          6           0       -3.194344    0.233209   -0.251534
      7          6           0       -4.176036   -0.745466   -0.426895
      8          6           0       -3.892671   -2.084003   -0.167877
      9          6           0       -2.614323   -2.438525    0.267566
     10          6           0       -1.639536   -1.460401    0.441433
     11          6           0        0.482358    0.454345   -0.190122
     12          7           0        0.589286    0.418965   -1.503319
     13          8           0        1.882655   -0.069975   -1.770583
     14          6           0        2.495769   -0.305896   -0.603430
     15          6           0        1.674629    0.004314    0.447080
     16          7           0        3.789724   -0.794459   -0.736035
     17          7           0        4.398206   -1.031910    0.320603
     18          7           0        5.068603   -1.291619    1.202091
     19          1           0        0.141390    3.617528    1.034039
     20          1           0       -0.417827    4.326267   -0.482243
     21          1           0        0.842457    3.088165   -0.506429
     22          1           0       -2.086218    2.680791    0.332207
     23          1           0       -1.401038    2.186595   -1.216625
     24          1           0       -1.558305    1.440743    2.421002
     25          1           0       -0.423029    0.088933    2.430475
     26          1           0        0.180564    1.746305    2.236544
     27          1           0       -3.444733    1.264886   -0.467572
     28          1           0       -5.164408   -0.453714   -0.771341
     29          1           0       -4.655742   -2.844408   -0.307243
     30          1           0       -2.374104   -3.479157    0.467575
     31          1           0       -0.645459   -1.753808    0.767876
     32          1           0        1.887109   -0.071748    1.501379
 ---------------------------------------------------------------------

 SCF Done:  E(UB3LYP) =  -798.205020002     A.U. after   33 cycles
 SCF Done:  E(UB3LYP) =  -798.205020004     a.u. after    2 cycles

 The electronic state is 2-A.
 Alpha  occ. eigenvalues --  -19.09561 -14.31041 -14.24216 -14.23732 -14.22939
 Alpha  occ. eigenvalues --  -10.16411 -10.11289 -10.10977 -10.09564 -10.08708
 Alpha  occ. eigenvalues --  -10.08582 -10.08503 -10.08345 -10.08303 -10.08060
 Alpha  occ. eigenvalues --  -10.07962 -10.07200 -10.06674  -1.03684  -0.99898
 Alpha  occ. eigenvalues --   -0.85396  -0.78931  -0.76357  -0.71911  -0.68457
 Alpha  occ. eigenvalues --   -0.66370  -0.65763  -0.63306  -0.57628  -0.55139
 Alpha  occ. eigenvalues --   -0.53352  -0.51042  -0.50363  -0.47397  -0.44160
 Alpha  occ. eigenvalues --   -0.42152  -0.38680  -0.38570  -0.37696  -0.37389
 Alpha  occ. eigenvalues --   -0.36377  -0.35882  -0.35553  -0.34806  -0.33393
 Alpha  occ. eigenvalues --   -0.32708  -0.31705  -0.31437  -0.30960  -0.30069
 Alpha  occ. eigenvalues --   -0.28200  -0.27690  -0.26997  -0.26457  -0.24931
 Alpha  occ. eigenvalues --   -0.24431  -0.23835  -0.20381  -0.20067  -0.19155
 Alpha  occ. eigenvalues --   -0.18846  -0.16690  -0.15770  -0.11110   0.04266
 Alpha virt. eigenvalues --    0.05397   0.06401   0.07202   0.07363   0.07484
 Alpha virt. eigenvalues --    0.08278   0.08403   0.08729   0.09358   0.10649
 Alpha virt. eigenvalues --    0.11259   0.11521   0.11833   0.12588   0.13023

  Beta  occ. eigenvalues --  -19.09566 -14.30415 -14.24224 -14.23749 -14.22268
  Beta  occ. eigenvalues --  -10.16294 -10.11289 -10.10972 -10.09562 -10.08704
  Beta  occ. eigenvalues --  -10.08569 -10.08493 -10.08339 -10.08301 -10.08052
  Beta  occ. eigenvalues --  -10.07958 -10.07194 -10.06680  -1.03656  -0.98832
  Beta  occ. eigenvalues --   -0.84895  -0.78914  -0.76338  -0.71883  -0.68340
  Beta  occ. eigenvalues --   -0.66353  -0.65749  -0.63288  -0.57534  -0.54832
  Beta  occ. eigenvalues --   -0.53303  -0.51009  -0.50300  -0.47245  -0.44125
  Beta  occ. eigenvalues --   -0.42090  -0.38493  -0.38303  -0.37532  -0.36978
  Beta  occ. eigenvalues --   -0.35850  -0.35533  -0.34788  -0.34322  -0.33371
  Beta  occ. eigenvalues --   -0.32563  -0.31567  -0.30859  -0.30029  -0.29941
  Beta  occ. eigenvalues --   -0.28174  -0.27672  -0.26985  -0.26440  -0.24903
  Beta  occ. eigenvalues --   -0.24418  -0.23805  -0.19995  -0.19940  -0.18845
  Beta  occ. eigenvalues --   -0.17859  -0.16682  -0.15756  -0.11010
  Beta virt. eigenvalues --    0.06012   0.06687   0.07277   0.07441   0.07644
  Beta virt. eigenvalues --    0.08301   0.08588   0.08964   0.09526   0.10623
  Beta virt. eigenvalues --    0.11076   0.11370   0.11533   0.12323   0.12721

 Mulliken charges and spin densities:
               1          2
     1  C   -0.067073  -0.557965
     2  C   -0.707910   0.321624
     3  C    0.712693   0.017168
     4  C   -0.591312  -0.146523
     5  C    0.649804   0.150736
     6  C   -0.687720   0.544782
     7  C   -0.103360  -0.445723
     8  C    0.429017  -0.702390
     9  C   -0.286775  -0.094734
    10  C   -0.618279   0.252535
    11  C    0.239780   0.063536
    12  N   -0.454966   0.002059
    13  O    0.209794   0.031379
    14  C   -0.012702  -0.707468
    15  C    0.365072  -0.294811
    16  N   -0.641281   0.424317
    17  N    0.634315  -0.110033
    18  N   -0.221106   0.209785
    19  H    0.095058   0.038978
    20  H    0.032652   0.097595
    21  H    0.163083   0.028534
    22  H   -0.165400   0.290241
    23  H    0.168174   0.018312
    24  H    0.015446   0.147433
    25  H    0.121077   0.009342
    26  H    0.120710  -0.000653
    27  H   -0.061477   0.216353
    28  H   -0.500942   0.683586
    29  H   -0.228973   0.375844
    30  H    0.023999   0.137014
    31  H    0.144479   0.045313
    32  H    0.224121  -0.046165
 Sum of Mulliken charges =  -1.00000   1.00000

 Dipole moment (field-independent basis, Debye):
    X=             -3.1536    Y=              2.4139    Z=              2.4256  Tot=              4.6536
 Quadrupole moment (field-independent basis, Debye-Ang):
   XX=           -211.0118   YY=           -130.6622   ZZ=           -132.0521
   XY=              8.7508   XZ=             -3.9545   YZ=              0.4419

 Summary of Natural Population Analysis:

                                       Natural Population
                Natural  -----------------------------------------------
    Atom  No    Charge         Core      Valence    Rydberg      Total
 -----------------------------------------------------------------------
      C    1   -0.28587      0.99966     2.28193    0.00428     3.28587
      C    2   -0.18835      0.99962     2.17853    0.01020     3.18835
      C    3   -0.05605      0.99949     2.04466    0.01190     3.05605
      C    4   -0.28213      0.99964     2.27553    0.00696     3.28213
      C    5    0.00121      0.99948     1.98680    0.01251     2.99879
      C    6   -0.10410      0.99950     2.09537    0.00923     3.10410
      C    7   -0.09701      0.99957     2.08725    0.01020     3.09701
      C    8   -0.10741      0.99956     2.09775    0.01009     3.10741
      C    9   -0.09931      0.99957     2.08971    0.01004     3.09931
      C   10   -0.09986      0.99951     2.09171    0.00864     3.09986
      C   11    0.09689      0.99957     1.88706    0.01648     2.90311
      N   12   -0.10745      0.99965     2.59547    0.01234     3.60745
      O   13   -0.16764      0.99985     3.15921    0.00858     4.16764
      C   14    0.26971      0.99944     1.71221    0.01863     2.73029
      C   15   -0.21620      0.99942     2.21008    0.00670     3.21620
      N   16   -0.21155      0.99963     2.69734    0.01458     3.71155
      N   17    0.17201      0.99971     2.31328    0.01500     3.32799
      N   18    0.05007      0.99982     2.43722    0.01289     3.44993
      H   19    0.09357      0.00000     0.40550    0.00093     0.40643
      H   20    0.09828      0.00000     0.40096    0.00076     0.40172
      H   21    0.10514      0.00000     0.39391    0.00095     0.39486
      H   22    0.09588      0.00000     0.40292    0.00120     0.40412
      H   23    0.10728      0.00000     0.39077    0.00194     0.39272
      H   24    0.10294      0.00000     0.39638    0.00067     0.39706
      H   25    0.10280      0.00000     0.39647    0.00073     0.39720
      H   26    0.10103      0.00000     0.39814    0.00082     0.39897
      H   27    0.10317      0.00000     0.39507    0.00176     0.39683
      H   28    0.10143      0.00000     0.39726    0.00131     0.39857
      H   29    0.10060      0.00000     0.39847    0.00092     0.39940
      H   30    0.09983      0.00000     0.39945    0.00072     0.40017
      H   31    0.10460      0.00000     0.39371    0.00169     0.39540
      H   32    0.11648      0.00000     0.38266    0.00086     0.38352
 =======================================================================
   * Total *   -0.00000     17.99268    45.79281    0.21451    64.00000

 Normal termination of Gaussian 16 at Fri Dec 11 21:14:39 2020.
