 Gaussian 16, Revision A.03,

 -----------------------------------------------------------
 # opt freq B3LYP/6-31G(d) empiricaldispersion=gd3bj scf=xqc
 -----------------------------------------------------------

 -------------------------------
 CID_151500525_JID_6402_neutraal
 -------------------------------
 Symbolic Z-matrix:
 Charge =  0 Multiplicity = 1

 SCF Done:  E(RB3LYP) =  -757.463622750     A.U. after   16 cycles
 SCF Done:  E(RB3LYP) =  -757.474207160     A.U. after   14 cycles
 SCF Done:  E(RB3LYP) =  -757.476826970     A.U. after   15 cycles
 SCF Done:  E(RB3LYP) =  -757.479122785     A.U. after   14 cycles
 SCF Done:  E(RB3LYP) =  -757.480225230     A.U. after   15 cycles
 SCF Done:  E(RB3LYP) =  -757.481607273     A.U. after   13 cycles
 SCF Done:  E(RB3LYP) =  -757.483002077     A.U. after   13 cycles
 SCF Done:  E(RB3LYP) =  -757.483511879     A.U. after   13 cycles
 SCF Done:  E(RB3LYP) =  -757.483631203     A.U. after   12 cycles
 SCF Done:  E(RB3LYP) =  -757.483671336     A.U. after   11 cycles
 SCF Done:  E(RB3LYP) =  -757.483703642     A.U. after    9 cycles
 SCF Done:  E(RB3LYP) =  -757.483705158     A.U. after    8 cycles
 SCF Done:  E(RB3LYP) =  -757.483706274     A.U. after    9 cycles
 SCF Done:  E(RB3LYP) =  -757.483706490     A.U. after    8 cycles
 SCF Done:  E(RB3LYP) =  -757.483706646     A.U. after    8 cycles
 SCF Done:  E(RB3LYP) =  -757.483706745     A.U. after    7 cycles
 Optimization completed.
    -- Stationary point found.
 Normal termination of Gaussian 16 at Thu Dec 10 22:42:45 2020.

 --------------------------------------------------------------------
 #N Geom=AllCheck Guess=TCheck SCRF=Check GenChk RB3LYP/6-31G(d) Freq
 --------------------------------------------------------------------

 Structure from the checkpoint file:  "JID_6402.chk"
 -------------------------------
 CID_151500525_JID_6402_neutraal
 -------------------------------
 Charge =  0 Multiplicity = 1

 SCF Done:  E(RB3LYP) =  -757.483706745     A.U. after    2 cycles

  Exact polarizability: 161.511  -9.083 137.067  -4.407  -2.078 110.995
 Approx polarizability: 218.449 -28.504 246.862 -10.293   3.967 166.191

                      1                      2                      3
                      A                      A                      A
 Frequencies --     35.0473                54.9638                60.6578
 Red. masses --      7.3124                 3.9961                 3.8202
 Frc consts  --      0.0053                 0.0071                 0.0083
 IR Inten    --      0.3468                 0.6447                 0.2566

                      4                      5                      6
                      A                      A                      A
 Frequencies --     76.7915                87.8740               109.6731
 Red. masses --      4.3615                 3.2678                 2.3310
 Frc consts  --      0.0152                 0.0149                 0.0165
 IR Inten    --      0.3087                 2.0828                 3.9845

                      7                      8                      9
                      A                      A                      A
 Frequencies --    130.5217               144.5767               152.5112
 Red. masses --      1.4568                 2.8717                 1.5735
 Frc consts  --      0.0146                 0.0354                 0.0216
 IR Inten    --      0.2303                 1.8731                 0.1920

                     10                     11                     12
                      A                      A                      A
 Frequencies --    167.2670               203.0501               215.2381
 Red. masses --      2.0258                 2.9588                 1.1309
 Frc consts  --      0.0334                 0.0719                 0.0309
 IR Inten    --      1.4085                 0.4155                 0.0980

                     13                     14                     15
                      A                      A                      A
 Frequencies --    228.2295               266.2064               273.6171
 Red. masses --      3.8218                 1.1068                 1.1096
 Frc consts  --      0.1173                 0.0462                 0.0489
 IR Inten    --      0.5406                 0.6579                 0.1158

                     16                     17                     18
                      A                      A                      A
 Frequencies --    284.4619               293.6954               314.3135
 Red. masses --      3.0106                 2.3294                 2.4301
 Frc consts  --      0.1435                 0.1184                 0.1415
 IR Inten    --      2.4519                 4.5072                 0.4204

                     19                     20                     21
                      A                      A                      A
 Frequencies --    325.7183               331.9249               379.0322
 Red. masses --      3.3089                 2.9779                 2.8298
 Frc consts  --      0.2068                 0.1933                 0.2395
 IR Inten    --      5.8988                 3.4773                 2.9366

                     22                     23                     24
                      A                      A                      A
 Frequencies --    408.9752               430.7274               505.7287
 Red. masses --      3.2684                 2.9577                 3.4044
 Frc consts  --      0.3221                 0.3233                 0.5130
 IR Inten    --      2.6286                 4.2164                 2.9268

                     25                     26                     27
                      A                      A                      A
 Frequencies --    556.8453               570.9244               582.3635
 Red. masses --      3.9635                11.1921                 4.6780
 Frc consts  --      0.7241                 2.1494                 0.9348
 IR Inten    --     10.1208                10.7368                 3.8670

                     28                     29                     30
                      A                      A                      A
 Frequencies --    591.0838               643.8767               694.2439
 Red. masses --      4.7047                 6.2424                 6.1811
 Frc consts  --      0.9685                 1.5248                 1.7553
 IR Inten    --      7.1897                25.0763                 4.4864

                     31                     32                     33
                      A                      A                      A
 Frequencies --    762.7251               792.7556               844.0431
 Red. masses --      6.3599                 4.1730                 3.0297
 Frc consts  --      2.1799                 1.5452                 1.2717
 IR Inten    --     20.3494                13.5261                 4.2960

                     34                     35                     36
                      A                      A                      A
 Frequencies --    891.3074               915.3638               932.0986
 Red. masses --      6.1667                 4.8319                 1.7669
 Frc consts  --      2.8864                 2.3854                 0.9044
 IR Inten    --     37.2496                25.0821                 5.8205

                     37                     38                     39
                      A                      A                      A
 Frequencies --    947.7927               956.2919               978.0205
 Red. masses --      1.6516                 4.0918                 1.2072
 Frc consts  --      0.8741                 2.2047                 0.6803
 IR Inten    --      1.0410                19.0457                 0.0532

                     40                     41                     42
                      A                      A                      A
 Frequencies --    987.9624              1021.3749              1047.7960
 Red. masses --      2.1277                 3.0087                 1.6340
 Frc consts  --      1.2236                 1.8493                 1.0570
 IR Inten    --     41.5524                24.9943                18.5632

                     43                     44                     45
                      A                      A                      A
 Frequencies --   1061.8201              1119.5246              1123.9595
 Red. masses --      1.4359                 3.1608                 3.1478
 Frc consts  --      0.9539                 2.3340                 2.3429
 IR Inten    --      4.6207                75.0040               125.1193

                     46                     47                     48
                      A                      A                      A
 Frequencies --   1136.7543              1164.2352              1186.7277
 Red. masses --      3.8536                 1.3916                 1.2930
 Frc consts  --      2.9340                 1.1113                 1.0729
 IR Inten    --     66.6091                28.0044                 3.5311

                     49                     50                     51
                      A                      A                      A
 Frequencies --   1216.1340              1224.9432              1256.3981
 Red. masses --      1.7181                 1.7449                 1.8357
 Frc consts  --      1.4971                 1.5426                 1.7073
 IR Inten    --      0.7540                22.2727                26.0542

                     52                     53                     54
                      A                      A                      A
 Frequencies --   1268.7497              1272.7817              1278.8141
 Red. masses --      2.2363                 1.9794                 2.7305
 Frc consts  --      2.1210                 1.8892                 2.6309
 IR Inten    --     14.1751               123.5344                 5.3500

                     55                     56                     57
                      A                      A                      A
 Frequencies --   1304.4975              1313.5148              1363.3502
 Red. masses --      3.2290                 3.1030                 2.2687
 Frc consts  --      3.2375                 3.1543                 2.4845
 IR Inten    --     47.2851                99.4940                22.0297

                     58                     59                     60
                      A                      A                      A
 Frequencies --   1398.4117              1419.5041              1428.8242
 Red. masses --      1.7054                 1.2508                 1.2527
 Frc consts  --      1.9650                 1.4850                 1.5068
 IR Inten    --      9.5598                11.2178                10.3581

                     61                     62                     63
                      A                      A                      A
 Frequencies --   1432.7618              1452.8943              1457.9627
 Red. masses --      1.1756                 1.7879                 1.3217
 Frc consts  --      1.4218                 2.2236                 1.6553
 IR Inten    --     27.2131                35.8857                29.2664

                     64                     65                     66
                      A                      A                      A
 Frequencies --   1484.7143              1501.6103              1505.2129
 Red. masses --      1.1948                 1.4089                 1.0534
 Frc consts  --      1.5518                 1.8717                 1.4062
 IR Inten    --      8.7339                29.7982                 0.3679

                     67                     68                     69
                      A                      A                      A
 Frequencies --   1511.3144              1513.1878              1514.7962
 Red. masses --      1.1004                 1.0489                 1.0845
 Frc consts  --      1.4808                 1.4150                 1.4662
 IR Inten    --     11.7540                 0.1445                 1.2161

                     70                     71                     72
                      A                      A                      A
 Frequencies --   1519.2951              1521.1341              1530.8170
 Red. masses --      1.0466                 1.0648                 1.0606
 Frc consts  --      1.4234                 1.4516                 1.4644
 IR Inten    --      0.6937                12.0111                 2.9416

                     73                     74                     75
                      A                      A                      A
 Frequencies --   1534.2365              1543.9854              1549.4155
 Red. masses --      1.0573                 1.1079                 1.0590
 Frc consts  --      1.4663                 1.5561                 1.4979
 IR Inten    --      4.8311                12.2410                 7.3042

                     76                     77                     78
                      A                      A                      A
 Frequencies --   1550.8823              1684.0733              2249.9848
 Red. masses --      1.0641                 9.4305                13.6294
 Frc consts  --      1.5080                15.7582                40.6523
 IR Inten    --      1.3638                36.3645               407.7513

                     79                     80                     81
                      A                      A                      A
 Frequencies --   2976.8787              3006.7580              3048.8269
 Red. masses --      1.0831                 1.0554                 1.0656
 Frc consts  --      5.6554                 5.6219                 5.8357
 IR Inten    --     59.0295                75.3240                15.1271

                     82                     83                     84
                      A                      A                      A
 Frequencies --   3049.3613              3049.5292              3060.6851
 Red. masses --      1.0414                 1.0322                 1.0362
 Frc consts  --      5.7054                 5.6555                 5.7190
 IR Inten    --     36.0133                40.0157                14.0822

                     85                     86                     87
                      A                      A                      A
 Frequencies --   3067.0161              3112.7365              3114.7621
 Red. masses --      1.0368                 1.1006                 1.1054
 Frc consts  --      5.7460                 6.2832                 6.3183
 IR Inten    --     24.9441                24.3101                21.0682

                     88                     89                     90
                      A                      A                      A
 Frequencies --   3118.3285              3127.4974              3131.7960
 Red. masses --      1.0799                 1.1027                 1.1026
 Frc consts  --      6.1870                 6.3551                 6.3715
 IR Inten    --     19.1265                 6.9616                13.6538

                     91                     92                     93
                      A                      A                      A
 Frequencies --   3135.4725              3143.0024              3157.4880
 Red. masses --      1.1020                 1.1026                 1.1034
 Frc consts  --      6.3834                 6.4173                 6.4815
 IR Inten    --     61.7330                26.7271                25.6422

                     94                     95                     96
                      A                      A                      A
 Frequencies --   3158.3774              3158.6462              3177.0882
 Red. masses --      1.1037                 1.1006                 1.0934
 Frc consts  --      6.4867                 6.4697                 6.5028
 IR Inten    --      8.4111                20.7122                 2.5047

 - Thermochemistry -
 -------------------
 Temperature   298.150 Kelvin.  Pressure   1.00000 Atm.
 Atom     1 has atomic number  6 and mass  12.00000

 Molecular mass:   226.15421 amu.
 Principal axes and moments of inertia in atomic units:
                           1         2         3
     Eigenvalues --  1999.488664777.414325422.00045
           X            0.99981  -0.01086  -0.01612
           Y            0.01044   0.99961  -0.02572
           Z            0.01639   0.02555   0.99954
 This molecule is an asymmetric top.
 Rotational symmetry number  1.
 Warning -- assumption of classical behavior for rotation
           may cause significant error
 Rotational temperatures (Kelvin)      0.04332     0.01813     0.01597
 Rotational constants (GHZ):           0.90260     0.37777     0.33286
 Zero-point vibrational energy     757171.2 (Joules/Mol)
                                  180.96827 (Kcal/Mol)
 Warning -- explicit consideration of  28 degrees of freedom as
           vibrations may cause significant error
 Vibrational temperatures:     50.43    79.08    87.27   110.49   126.43
          (Kelvin)            157.80   187.79   208.01   219.43   240.66
                              292.14   309.68   328.37   383.01   393.67
                              409.28   422.56   452.23   468.64   477.57
                              545.34   588.42   619.72   727.63   801.18
                              821.43   837.89   850.44   926.39   998.86
                             1097.39  1140.60  1214.39  1282.39  1317.00
                             1341.08  1363.66  1375.89  1407.15  1421.46
                             1469.53  1507.54  1527.72  1610.75  1617.13
                             1635.54  1675.07  1707.44  1749.75  1762.42
                             1807.68  1825.45  1831.25  1839.93  1876.88
                             1889.85  1961.56  2012.00  2042.35  2055.76
                             2061.42  2090.39  2097.68  2136.17  2160.48
                             2165.67  2174.44  2177.14  2179.45  2185.93
                             2188.57  2202.50  2207.42  2221.45  2229.26
                             2231.37  2423.01  3237.23  4283.06  4326.05
                             4386.58  4387.35  4387.59  4403.64  4412.75
                             4478.53  4481.45  4486.58  4499.77  4505.96
                             4511.25  4522.08  4542.92  4544.20  4544.59
                             4571.12

 Zero-point correction=                           0.288391 (Hartree/Particle)
 Thermal correction to Energy=                    0.306186
 Thermal correction to Enthalpy=                  0.307130
 Thermal correction to Gibbs Free Energy=         0.242786
 Sum of electronic and zero-point Energies=           -757.195315
 Sum of electronic and thermal Energies=              -757.177521
 Sum of electronic and thermal Enthalpies=            -757.176577
 Sum of electronic and thermal Free Energies=         -757.240921

                     E (Thermal)             CV                S
                      KCal/Mol        Cal/Mol-Kelvin    Cal/Mol-Kelvin
 Total                  192.135             64.521            135.423
 Electronic               0.000              0.000              0.000
 Translational            0.889              2.981             42.150
 Rotational               0.889              2.981             32.316
 Vibrational            190.357             58.559             60.957
 Vibration     1          0.594              1.982              5.521
 Vibration     2          0.596              1.976              4.630
 Vibration     3          0.597              1.973              4.436
 Vibration     4          0.599              1.965              3.971
 Vibration     5          0.601              1.958              3.707
 Vibration     6          0.606              1.941              3.275
 Vibration     7          0.612              1.923              2.938
 Vibration     8          0.616              1.909              2.742
 Vibration     9          0.619              1.900              2.641
 Vibration    10          0.624              1.883              2.466
 Vibration    11          0.639              1.836              2.105
 Vibration    12          0.645              1.818              1.999
 Vibration    13          0.651              1.798              1.893
 Vibration    14          0.672              1.735              1.621
 Vibration    15          0.676              1.722              1.573
 Vibration    16          0.683              1.702              1.507
 Vibration    17          0.688              1.685              1.453
 Vibration    18          0.702              1.646              1.340
 Vibration    19          0.710              1.624              1.281
 Vibration    20          0.714              1.612              1.251
 Vibration    21          0.749              1.515              1.043
 Vibration    22          0.773              1.451              0.930
 Vibration    23          0.792              1.403              0.856
 Vibration    24          0.861              1.237              0.644
 Vibration    25          0.912              1.125              0.530
 Vibration    26          0.927              1.094              0.502
 Vibration    27          0.939              1.069              0.481
 Vibration    28          0.948              1.051              0.465

                           ! Non-Optimized Parameters !
 Normal termination of Gaussian 16 at Thu Dec 10 22:56:02 2020.

 ----------------------------------------------------------------------
 # B3LYP/6-311++G(d,p) empiricaldispersion=gd3bj scf=xqc pop=npa geom=c
 heck
 ----------------------------------------------------------------------

 ---------------------------------------
 CID_151500525_JID_6402_Energie_neutraal
 ---------------------------------------
 Structure from the checkpoint file:  "JID_6402.chk"
 Charge =  0 Multiplicity = 1

 SCF Done:  E(RB3LYP) =  -757.692936329     A.U. after   15 cycles
 Normal termination of Gaussian 16 at Thu Dec 10 23:02:57 2020.

 ----------------------------------------------------------------------
 # B3LYP/6-311++G(d,p) empiricaldispersion=gd3bj scf=xqc pop=npa geom=c
 heck
 ----------------------------------------------------------------------

 -------------------------------------
 CID_151500525_JID_6402_Energie_kation
 -------------------------------------
 Structure from the checkpoint file:  "JID_6402.chk"
 Charge =  1 Multiplicity = 2

 SCF Done:  E(UB3LYP) =  -757.421627909     A.U. after   20 cycles
 Normal termination of Gaussian 16 at Thu Dec 10 23:13:34 2020.
 Gaussian 16:  ES64L-G16RevA.03 25-Dec-2016

 ----------------------------------------------------------------------
 # B3LYP/6-311++G(d,p) empiricaldispersion=gd3bj scf=xqc pop=npa geom=c
 heck
 ----------------------------------------------------------------------

 ------------------------------------
 CID_151500525_JID_6402_Energie_anion
 ------------------------------------
 Structure from the checkpoint file:  "JID_6402.chk"
 Charge = -1 Multiplicity = 2

                         Standard orientation:
 ---------------------------------------------------------------------
 Center     Atomic      Atomic             Coordinates (Angstroms)
 Number     Number       Type             X           Y           Z
 ---------------------------------------------------------------------
      1          6           0        2.938367   -1.267213   -1.349262
      2          6           0        2.552456   -0.401111   -0.142836
      3          6           0        2.869286   -1.145852    1.166963
      4          6           0        3.315446    0.929086   -0.207354
      5          7           0        1.103131   -0.113789   -0.242209
      6          6           0        0.493538    0.877512    0.640962
      7          7           0       -0.827095    0.303325    0.837481
      8          6           0       -0.808200   -0.969775    0.279638
      9          7           0        0.283778   -1.244883   -0.349211
     10          6           0       -2.009004   -1.855062    0.231468
     11          7           0       -3.032682   -1.426571   -0.764545
     12          7           0       -3.404002   -0.252072   -0.699236
     13          7           0       -3.834142    0.806186   -0.755183
     14          6           0       -1.595584    0.702222    1.999808
     15          8           0        0.464913    2.180775    0.114017
     16          6           0       -0.193614    2.295341   -1.147518
     17          1           0        4.014119   -1.471971   -1.329524
     18          1           0        2.697969   -0.745907   -2.281287
     19          1           0        2.397433   -2.215587   -1.339129
     20          1           0        3.936073   -1.386497    1.227759
     21          1           0        2.616931   -0.538585    2.044409
     22          1           0        2.299300   -2.078810    1.217204
     23          1           0        3.067620    1.472145   -1.123970
     24          1           0        3.087269    1.581389    0.640259
     25          1           0        4.391770    0.728127   -0.198505
     26          1           0        1.026683    1.013604    1.596844
     27          1           0       -1.691446   -2.844558   -0.093481
     28          1           0       -2.482607   -1.948655    1.217332
     29          1           0       -2.627540    0.356013    1.912662
     30          1           0       -1.168858    0.316646    2.939114
     31          1           0       -1.614085    1.793875    2.043664
     32          1           0        0.254430    1.621179   -1.885347
     33          1           0       -1.263543    2.072816   -1.059812
     34          1           0       -0.059889    3.332317   -1.461219
 ---------------------------------------------------------------------

 SCF Done:  E(UB3LYP) =  -757.686813788     A.U. after   31 cycles

 The electronic state is 2-A.
 Alpha  occ. eigenvalues --  -19.03056 -14.33233 -14.23584 -14.23562 -14.23484
 Alpha  occ. eigenvalues --  -14.23049 -14.21333 -10.18238 -10.12579 -10.11876
 Alpha  occ. eigenvalues --  -10.10862 -10.10690 -10.10323 -10.06554 -10.05932
 Alpha  occ. eigenvalues --  -10.05774  -1.00329  -0.96705  -0.91544  -0.84763
 Alpha  occ. eigenvalues --   -0.81902  -0.74819  -0.68882  -0.63762  -0.61683
 Alpha  occ. eigenvalues --   -0.59725  -0.59379  -0.59094  -0.52446  -0.48819
 Alpha  occ. eigenvalues --   -0.46597  -0.42570  -0.41736  -0.41175  -0.39500
 Alpha  occ. eigenvalues --   -0.38436  -0.37629  -0.36335  -0.35083  -0.34461
 Alpha  occ. eigenvalues --   -0.33688  -0.33202  -0.32743  -0.32195  -0.30794
 Alpha  occ. eigenvalues --   -0.30482  -0.29843  -0.29083  -0.28789  -0.27239
 Alpha  occ. eigenvalues --   -0.27047  -0.26085  -0.24252  -0.24117  -0.23611
 Alpha  occ. eigenvalues --   -0.20170  -0.18768  -0.17150  -0.16724  -0.13114
 Alpha  occ. eigenvalues --   -0.09317   0.04479
 Alpha virt. eigenvalues --    0.06257   0.07244   0.08133   0.08611   0.09245
 Alpha virt. eigenvalues --    0.09579   0.09963   0.10293   0.10910   0.11720
 Alpha virt. eigenvalues --    0.11781   0.12500   0.12599   0.13023   0.13292

  Beta  occ. eigenvalues --  -19.03053 -14.32954 -14.23569 -14.23566 -14.23106
  Beta  occ. eigenvalues --  -14.23078 -14.21272 -10.18230 -10.12581 -10.11871
  Beta  occ. eigenvalues --  -10.10736 -10.10689 -10.10292 -10.06545 -10.05925
  Beta  occ. eigenvalues --  -10.05746  -0.99775  -0.96685  -0.91508  -0.84484
  Beta  occ. eigenvalues --   -0.81876  -0.74774  -0.68824  -0.63611  -0.61587
  Beta  occ. eigenvalues --   -0.59699  -0.59346  -0.59061  -0.52405  -0.48718
  Beta  occ. eigenvalues --   -0.46554  -0.42489  -0.41665  -0.40978  -0.39353
  Beta  occ. eigenvalues --   -0.37816  -0.37253  -0.36300  -0.35008  -0.34389
  Beta  occ. eigenvalues --   -0.33600  -0.33027  -0.32664  -0.31622  -0.30719
  Beta  occ. eigenvalues --   -0.30385  -0.29503  -0.28940  -0.28743  -0.27194
  Beta  occ. eigenvalues --   -0.27030  -0.26008  -0.24194  -0.24095  -0.23585
  Beta  occ. eigenvalues --   -0.20110  -0.18177  -0.17105  -0.16545  -0.12985
  Beta  occ. eigenvalues --   -0.09183
  Beta virt. eigenvalues --    0.06591   0.07839   0.08188   0.08579   0.09345
  Beta virt. eigenvalues --    0.09539   0.10055   0.10226   0.10666   0.11081
  Beta virt. eigenvalues --    0.11938   0.11987   0.12765   0.12871   0.13176

 Mulliken charges and spin densities:
               1          2
     1  C   -0.281784  -0.103615
     2  C   -1.395108   1.189502
     3  C    0.849013  -1.353442
     4  C    0.043920  -0.422072
     5  N    0.460686   0.035461
     6  C   -1.303778  -0.325139
     7  N    0.214177   0.026389
     8  C   -0.444635   0.624770
     9  N   -0.084722   0.034407
    10  C    0.517053  -1.026352
    11  N   -0.553232   0.290454
    12  N    0.582122  -0.052352
    13  N   -0.234966   0.086223
    14  C    0.877983  -1.198521
    15  O    0.102359   0.013804
    16  C   -0.019266  -0.080462
    17  H    0.001999   0.120120
    18  H    0.100199   0.041192
    19  H    0.149680   0.027919
    20  H   -0.181172   0.339373
    21  H   -0.290028   0.420377
    22  H    0.008059   0.159634
    23  H    0.142292  -0.017663
    24  H    0.013391   0.156336
    25  H   -0.080338   0.249165
    26  H    0.240953  -0.041249
    27  H   -0.105481   0.324418
    28  H   -0.500037   0.701427
    29  H    0.115649   0.015253
    30  H   -0.536864   0.706060
    31  H    0.199263  -0.028258
    32  H    0.132552   0.030209
    33  H    0.136281   0.041830
    34  H    0.123779   0.014805
 Sum of Mulliken charges =  -1.00000   1.00000

 Dipole moment (field-independent basis, Debye):
    X=              2.6043    Y=              3.4132    Z=             -2.6384  Tot=              5.0392
 Quadrupole moment (field-independent basis, Debye-Ang):
   XX=           -162.1881   YY=           -131.8401   ZZ=           -134.6937
   XY=             -0.7142   XZ=             -8.2838   YZ=              3.4422

 Summary of Natural Population Analysis:

                                       Natural Population
                Natural  -----------------------------------------------
    Atom  No    Charge         Core      Valence    Rydberg      Total
 -----------------------------------------------------------------------
      C    1   -0.28617      0.99961     2.28043    0.00613     3.28617
      C    2    0.06623      0.99958     1.92061    0.01357     2.93377
      C    3   -0.29646      0.99961     2.28978    0.00707     3.29646
      C    4   -0.28913      0.99961     2.28210    0.00742     3.28913
      N    5   -0.19784      0.99964     2.68331    0.01489     3.69784
      C    6    0.24399      0.99957     1.73631    0.02013     2.75601
      N    7   -0.27146      0.99963     2.75858    0.01325     3.77146
      C    8    0.19409      0.99957     1.78921    0.01713     2.80591
      N    9   -0.15320      0.99966     2.64200    0.01154     3.65320
      C   10   -0.10627      0.99954     2.09425    0.01248     3.10627
      N   11   -0.20437      0.99971     2.69031    0.01434     3.70437
      N   12    0.13311      0.99970     2.35181    0.01539     3.36689
      N   13   -0.01456      0.99982     2.50122    0.01353     3.51456
      C   14   -0.17473      0.99963     2.16652    0.00857     3.17473
      O   15   -0.30414      0.99988     3.29596    0.00830     4.30414
      C   16   -0.11247      0.99959     2.10482    0.00806     3.11247
      H   17    0.09555      0.00000     0.40372    0.00073     0.40445
      H   18    0.10061      0.00000     0.39847    0.00091     0.39939
      H   19    0.11182      0.00000     0.38706    0.00112     0.38818
      H   20    0.09944      0.00000     0.39951    0.00105     0.40056
      H   21    0.09962      0.00000     0.39901    0.00137     0.40038
      H   22    0.10848      0.00000     0.39030    0.00122     0.39152
      H   23    0.10288      0.00000     0.39614    0.00097     0.39712
      H   24    0.10384      0.00000     0.39507    0.00110     0.39616
      H   25    0.09888      0.00000     0.40038    0.00074     0.40112
      H   26    0.08034      0.00000     0.41708    0.00258     0.41966
      H   27    0.11179      0.00000     0.38658    0.00162     0.38821
      H   28    0.09791      0.00000     0.39991    0.00218     0.40209
      H   29    0.10344      0.00000     0.39551    0.00105     0.39656
      H   30    0.09194      0.00000     0.40614    0.00192     0.40806
      H   31    0.10054      0.00000     0.39845    0.00101     0.39946
      H   32    0.08817      0.00000     0.41066    0.00117     0.41183
      H   33    0.09258      0.00000     0.40604    0.00138     0.40742
      H   34    0.08551      0.00000     0.41371    0.00077     0.41449
 =======================================================================
   * Total *    0.00000     15.99435    44.79097    0.21468    61.00000

 Normal termination of Gaussian 16 at Thu Dec 10 23:28:48 2020.
