 Gaussian 16, Revision A.03,

 -----------------------------------------------------------
 # opt freq B3LYP/6-31G(d) empiricaldispersion=gd3bj scf=xqc
 -----------------------------------------------------------

 -------------------------------
 CID_115753955_JID_5009_neutraal
 -------------------------------
 Symbolic Z-matrix:
 Charge =  0 Multiplicity = 1

 SCF Done:  E(RB3LYP) =  -1087.09217051     A.U. after   14 cycles
 SCF Done:  E(RB3LYP) =  -1087.10282274     A.U. after   12 cycles
 SCF Done:  E(RB3LYP) =  -1087.10444171     A.U. after   12 cycles
 SCF Done:  E(RB3LYP) =  -1087.10595173     A.U. after   13 cycles
 SCF Done:  E(RB3LYP) =  -1087.10761307     A.U. after   12 cycles
 SCF Done:  E(RB3LYP) =  -1087.10978179     A.U. after   12 cycles
 SCF Done:  E(RB3LYP) =  -1087.11158757     A.U. after   12 cycles
 SCF Done:  E(RB3LYP) =  -1087.11272298     A.U. after   13 cycles
 SCF Done:  E(RB3LYP) =  -1087.11406904     A.U. after   12 cycles
 SCF Done:  E(RB3LYP) =  -1087.11483950     A.U. after   12 cycles
 SCF Done:  E(RB3LYP) =  -1087.11984680     A.U. after   11 cycles
 SCF Done:  E(RB3LYP) =  -1087.11993675     A.U. after   11 cycles
 SCF Done:  E(RB3LYP) =  -1087.11996584     A.U. after   10 cycles
 SCF Done:  E(RB3LYP) =  -1087.11997020     A.U. after    8 cycles
 SCF Done:  E(RB3LYP) =  -1087.11997155     A.U. after    8 cycles
 SCF Done:  E(RB3LYP) =  -1087.11997180     A.U. after    7 cycles
 Optimization completed.
    -- Stationary point found.
 Normal termination of Gaussian 16 at Thu Dec 10 15:05:44 2020.

 --------------------------------------------------------------------
 #N Geom=AllCheck Guess=TCheck SCRF=Check GenChk RB3LYP/6-31G(d) Freq
 --------------------------------------------------------------------

 Structure from the checkpoint file:  "JID_5009.chk"
 -------------------------------
 CID_115753955_JID_5009_neutraal
 -------------------------------
 Charge =  0 Multiplicity = 1

 SCF Done:  E(RB3LYP) =  -1087.11997180     A.U. after    1 cycles

  Exact polarizability: 160.957  -3.075 115.777  -2.389   1.072 107.965
 Approx polarizability: 181.914  -3.408 178.183  -3.041   6.075 179.533

                      1                      2                      3
                      A                      A                      A
 Frequencies --     21.4238                45.3201                51.4392
 Red. masses --      2.8951                 4.4560                 3.3810
 Frc consts  --      0.0008                 0.0054                 0.0053
 IR Inten    --      0.3722                 1.7467                 0.9018

                      4                      5                      6
                      A                      A                      A
 Frequencies --     75.9762               109.9688               127.1399
 Red. masses --      3.7966                 3.2629                 2.9873
 Frc consts  --      0.0129                 0.0232                 0.0285
 IR Inten    --      1.3066                 2.5290                 1.4113

                      7                      8                      9
                      A                      A                      A
 Frequencies --    139.3824               198.8412               208.7663
 Red. masses --      3.8222                 3.8501                 4.6252
 Frc consts  --      0.0438                 0.0897                 0.1188
 IR Inten    --      1.7539                 8.7640                 1.5731

                     10                     11                     12
                      A                      A                      A
 Frequencies --    235.2353               261.9518               289.9276
 Red. masses --      3.4874                 1.7737                 3.9447
 Frc consts  --      0.1137                 0.0717                 0.1954
 IR Inten    --      9.2153                 1.9156                16.7898

                     13                     14                     15
                      A                      A                      A
 Frequencies --    360.0584               368.7042               388.2302
 Red. masses --      2.5263                 3.8095                 5.5614
 Frc consts  --      0.1930                 0.3051                 0.4939
 IR Inten    --      3.5906                11.8230                 1.3989

                     16                     17                     18
                      A                      A                      A
 Frequencies --    406.2658               425.2089               474.8122
 Red. masses --      2.6838                 3.1160                 4.6399
 Frc consts  --      0.2610                 0.3319                 0.6163
 IR Inten    --      6.5090                 4.6636                14.2741

                     19                     20                     21
                      A                      A                      A
 Frequencies --    482.8247               509.3985               572.1762
 Red. masses --      4.6336                 6.0206                 1.8191
 Frc consts  --      0.6364                 0.9205                 0.3509
 IR Inten    --     18.5519                14.5182                 2.5604

                     22                     23                     24
                      A                      A                      A
 Frequencies --    589.3046               621.5404               682.2333
 Red. masses --      2.1901                 1.6447                 2.2360
 Frc consts  --      0.4481                 0.3744                 0.6132
 IR Inten    --    245.5275                39.3638                44.3068

                     25                     26                     27
                      A                      A                      A
 Frequencies --    698.2329               749.1169               754.9420
 Red. masses --      2.3353                 2.5422                 2.2741
 Frc consts  --      0.6708                 0.8405                 0.7636
 IR Inten    --     50.7138                12.9074                18.5067

                     28                     29                     30
                      A                      A                      A
 Frequencies --    791.5179               846.6905               873.5165
 Red. masses --      1.4613                 1.6583                 1.9194
 Frc consts  --      0.5394                 0.7004                 0.8629
 IR Inten    --     10.7453                71.4696                 1.2033

                     31                     32                     33
                      A                      A                      A
 Frequencies --    884.7611               886.8807               928.1432
 Red. masses --      2.1968                 1.9761                 2.2932
 Frc consts  --      1.0132                 0.9158                 1.1639
 IR Inten    --      5.1482                 2.7480                 5.5018

                     34                     35                     36
                      A                      A                      A
 Frequencies --    939.4827               944.3933               950.1254
 Red. masses --      1.6075                 2.3911                 2.4318
 Frc consts  --      0.8360                 1.2565                 1.2934
 IR Inten    --      0.2042                26.6191                 2.2385

                     37                     38                     39
                      A                      A                      A
 Frequencies --    965.1075               974.3194               982.5987
 Red. masses --      1.9609                 2.4451                 1.6942
 Frc consts  --      1.0761                 1.3676                 0.9638
 IR Inten    --     40.2504                 5.2412                19.3032

                     40                     41                     42
                      A                      A                      A
 Frequencies --   1000.5709              1062.0698              1066.5948
 Red. masses --      3.4953                 2.2957                 1.2711
 Frc consts  --      2.0617                 1.5257                 0.8520
 IR Inten    --    197.3461               112.5671                 5.7623

                     43                     44                     45
                      A                      A                      A
 Frequencies --   1075.4430              1088.4024              1114.9276
 Red. masses --      2.6655                 2.5716                 6.6259
 Frc consts  --      1.8164                 1.7949                 4.8527
 IR Inten    --     10.1776                41.4559               136.0768

                     46                     47                     48
                      A                      A                      A
 Frequencies --   1138.4761              1164.4506              1167.8284
 Red. masses --      6.2526                 1.9324                 2.3947
 Frc consts  --      4.7748                 1.5438                 1.9243
 IR Inten    --     60.9105                14.3247                 7.5072

                     49                     50                     51
                      A                      A                      A
 Frequencies --   1205.6059              1211.0335              1217.9248
 Red. masses --      1.3006                 1.9022                 1.4226
 Frc consts  --      1.1138                 1.6437                 1.2433
 IR Inten    --      4.9919                11.7653                 1.1871

                     52                     53                     54
                      A                      A                      A
 Frequencies --   1224.0045              1255.2972              1271.6963
 Red. masses --      1.5592                 1.4418                 1.5621
 Frc consts  --      1.3763                 1.3386                 1.4885
 IR Inten    --     21.6626                61.4438                15.0481

                     55                     56                     57
                      A                      A                      A
 Frequencies --   1274.9158              1283.2067              1288.3869
 Red. masses --      1.3940                 1.2302                 1.4125
 Frc consts  --      1.3349                 1.1935                 1.3814
 IR Inten    --      9.4269                 4.7886                21.7302

                     58                     59                     60
                      A                      A                      A
 Frequencies --   1289.9095              1325.5648              1330.7497
 Red. masses --      1.9937                 1.7441                 1.6882
 Frc consts  --      1.9545                 1.8056                 1.7615
 IR Inten    --     33.1900                18.2276                65.6515

                     61                     62                     63
                      A                      A                      A
 Frequencies --   1338.9318              1370.5421              1373.4703
 Red. masses --      1.3719                 1.2916                 1.3158
 Frc consts  --      1.4491                 1.4294                 1.4625
 IR Inten    --      9.9043                 0.4925                15.1179

                     64                     65                     66
                      A                      A                      A
 Frequencies --   1384.6779              1396.3915              1428.9501
 Red. masses --      1.3597                 1.3581                 1.4239
 Frc consts  --      1.5360                 1.5603                 1.7131
 IR Inten    --      1.0309                 4.1924                40.6724

                     67                     68                     69
                      A                      A                      A
 Frequencies --   1461.5905              1494.3459              1501.6309
 Red. masses --      1.2130                 1.0909                 1.0874
 Frc consts  --      1.5267                 1.4353                 1.4447
 IR Inten    --     29.3620                 3.0280                 3.6101

                     70                     71                     72
                      A                      A                      A
 Frequencies --   1509.4076              1517.9504              1525.5693
 Red. masses --      1.0858                 1.0900                 1.0980
 Frc consts  --      1.4575                 1.4797                 1.5056
 IR Inten    --      1.8272                 3.5226                 3.2431

                     73                     74                     75
                      A                      A                      A
 Frequencies --   1531.5352              1550.2887              1560.7076
 Red. masses --      1.1348                 1.0824                 1.0945
 Frc consts  --      1.5683                 1.5328                 1.5708
 IR Inten    --      0.4554                 0.7803                 4.4356

                     76                     77                     78
                      A                      A                      A
 Frequencies --   3058.3486              3064.6911              3065.2145
 Red. masses --      1.0686                 1.0617                 1.0688
 Frc consts  --      5.8892                 5.8751                 5.9165
 IR Inten    --     20.7725                18.2470                22.5351

                     79                     80                     81
                      A                      A                      A
 Frequencies --   3069.8273              3073.9302              3074.6587
 Red. masses --      1.0640                 1.0644                 1.0656
 Frc consts  --      5.9079                 5.9260                 5.9350
 IR Inten    --     17.5069                34.6308                37.0520

                     82                     83                     84
                      A                      A                      A
 Frequencies --   3085.0139              3090.2973              3122.0933
 Red. masses --      1.0580                 1.0622                 1.0976
 Frc consts  --      5.9325                 5.9766                 6.3034
 IR Inten    --     50.1767                13.2009                26.9600

                     85                     86                     87
                      A                      A                      A
 Frequencies --   3125.0649              3127.3578              3137.1677
 Red. masses --      1.1061                 1.1007                 1.1030
 Frc consts  --      6.3644                 6.3428                 6.3957
 IR Inten    --      5.7271                29.9465                 6.2253

                     88                     89                     90
                      A                      A                      A
 Frequencies --   3137.2587              3143.1455              3145.6401
 Red. masses --      1.1063                 1.1013                 1.1012
 Frc consts  --      6.4154                 6.4102                 6.4202
 IR Inten    --     31.0083                 1.8114                15.2372

                     91                     92                     93
                      A                      A                      A
 Frequencies --   3150.7623              3500.9946              3646.4756
 Red. masses --      1.1066                 1.0737                 1.0661
 Frc consts  --      6.4727                 7.7540                 8.3522
 IR Inten    --     42.1821                22.4506               114.3332

 - Thermochemistry -
 -------------------
 Temperature   298.150 Kelvin.  Pressure   1.00000 Atm.
 Atom     1 has atomic number  6 and mass  12.00000

 Molecular mass:   234.10381 amu.
 Principal axes and moments of inertia in atomic units:
                           1         2         3
     Eigenvalues --  1109.124886412.536056599.72289
           X            0.99999  -0.00031  -0.00500
           Y            0.00028   0.99998  -0.00673
           Z            0.00500   0.00673   0.99996
 This molecule is an asymmetric top.
 Rotational symmetry number  1.
 Warning -- assumption of classical behavior for rotation
           may cause significant error
 Rotational temperatures (Kelvin)      0.07809     0.01351     0.01312
 Rotational constants (GHZ):           1.62718     0.28144     0.27346
 Zero-point vibrational energy     745494.5 (Joules/Mol)
                                  178.17746 (Kcal/Mol)
 Warning -- explicit consideration of  22 degrees of freedom as
           vibrations may cause significant error
 Vibrational temperatures:     30.82    65.21    74.01   109.31   158.22
          (Kelvin)            182.93   200.54   286.09   300.37   338.45
                              376.89   417.14   518.04   530.48   558.58
                              584.53   611.78   683.15   694.68   732.91
                              823.23   847.88   894.26   981.58  1004.60
                             1077.81  1086.19  1138.82  1218.20  1256.80
                             1272.97  1276.02  1335.39  1351.71  1358.77
                             1367.02  1388.57  1401.83  1413.74  1439.60
                             1528.08  1534.59  1547.32  1565.97  1604.13
                             1638.01  1675.38  1680.24  1734.60  1742.41
                             1752.32  1761.07  1806.09  1829.69  1834.32
                             1846.25  1853.70  1855.89  1907.19  1914.65
                             1926.42  1971.90  1976.12  1992.24  2009.10
                             2055.94  2102.90  2150.03  2160.51  2171.70
                             2183.99  2194.95  2203.54  2230.52  2245.51
                             4400.28  4409.41  4410.16  4416.80  4422.70
                             4423.75  4438.65  4446.25  4492.00  4496.27
                             4499.57  4513.68  4513.82  4522.29  4525.87
                             4533.24  5037.15  5246.47

 Zero-point correction=                           0.283944 (Hartree/Particle)
 Thermal correction to Energy=                    0.299028
 Thermal correction to Enthalpy=                  0.299972
 Thermal correction to Gibbs Free Energy=         0.240401
 Sum of electronic and zero-point Energies=          -1086.836028
 Sum of electronic and thermal Energies=             -1086.820944
 Sum of electronic and thermal Enthalpies=           -1086.820000
 Sum of electronic and thermal Free Energies=        -1086.879571

                     E (Thermal)             CV                S
                      KCal/Mol        Cal/Mol-Kelvin    Cal/Mol-Kelvin
 Total                  187.643             57.835            125.378
 Electronic               0.000              0.000              0.000
 Translational            0.889              2.981             42.253
 Rotational               0.889              2.981             32.218
 Vibrational            185.865             51.873             50.907
 Vibration     1          0.593              1.985              6.498
 Vibration     2          0.595              1.979              5.012
 Vibration     3          0.596              1.977              4.761
 Vibration     4          0.599              1.965              3.992
 Vibration     5          0.606              1.941              3.269
 Vibration     6          0.611              1.926              2.989
 Vibration     7          0.615              1.914              2.812
 Vibration     8          0.637              1.842              2.144
 Vibration     9          0.642              1.827              2.054
 Vibration    10          0.655              1.787              1.839
 Vibration    11          0.669              1.742              1.649
 Vibration    12          0.686              1.692              1.474
 Vibration    13          0.735              1.555              1.122
 Vibration    14          0.741              1.537              1.085
 Vibration    15          0.756              1.495              1.007
 Vibration    16          0.771              1.457              0.940
 Vibration    17          0.787              1.415              0.874
 Vibration    18          0.832              1.306              0.724
 Vibration    19          0.839              1.288              0.702
 Vibration    20          0.865              1.229              0.635
 Vibration    21          0.928              1.091              0.500
 Vibration    22          0.947              1.055              0.468

                           ! Non-Optimized Parameters !
 Normal termination of Gaussian 16 at Thu Dec 10 15:16:14 2020.

 ----------------------------------------------------------------------
 # B3LYP/6-311++G(d,p) empiricaldispersion=gd3bj scf=xqc pop=npa geom=c
 heck
 ----------------------------------------------------------------------

 ---------------------------------------
 CID_115753955_JID_5009_Energie_neutraal
 ---------------------------------------
 Structure from the checkpoint file:  "JID_5009.chk"
 Charge =  0 Multiplicity = 1

 SCF Done:  E(RB3LYP) =  -1087.35275027     A.U. after   14 cycles
 Normal termination of Gaussian 16 at Thu Dec 10 15:20:35 2020.

 ----------------------------------------------------------------------
 # B3LYP/6-311++G(d,p) empiricaldispersion=gd3bj scf=xqc pop=npa geom=c
 heck
 ----------------------------------------------------------------------

 -------------------------------------
 CID_115753955_JID_5009_Energie_kation
 -------------------------------------
 Structure from the checkpoint file:  "JID_5009.chk"
 Charge =  1 Multiplicity = 2

 SCF Done:  E(UB3LYP) =  -1087.03287690     A.U. after   25 cycles
 Normal termination of Gaussian 16 at Thu Dec 10 15:31:23 2020.
 Gaussian 16:  ES64L-G16RevA.03 25-Dec-2016

 ----------------------------------------------------------------------
 # B3LYP/6-311++G(d,p) empiricaldispersion=gd3bj scf=xqc pop=npa geom=c
 heck
 ----------------------------------------------------------------------

 ------------------------------------
 CID_115753955_JID_5009_Energie_anion
 ------------------------------------
 Structure from the checkpoint file:  "JID_5009.chk"
 Charge = -1 Multiplicity = 2

                         Standard orientation:
 ---------------------------------------------------------------------
 Center     Atomic      Atomic             Coordinates (Angstroms)
 Number     Number       Type             X           Y           Z
 ---------------------------------------------------------------------
      1          6           0       -4.267165    0.692974   -0.182435
      2          6           0       -4.270814   -0.831549    0.000269
      3          6           0       -2.802902   -1.204061   -0.225284
      4          7           0       -2.073677   -0.058198    0.377924
      5          6           0       -2.970211    1.129159    0.510221
      6         16           0       -0.529382    0.212606   -0.175302
      7          8           0       -0.382428    0.051981   -1.625436
      8          8           0       -0.099260    1.482327    0.443710
      9          7           0        0.216996   -1.119577    0.526996
     10          6           0        1.579783   -1.416357    0.041504
     11          6           0        2.602294   -0.290634    0.264808
     12          6           0        2.844774    0.753766   -0.866615
     13          6           0        4.367231    0.633854   -0.599034
     14          6           0        4.091913   -0.692954    0.154771
     15          8           0        2.381983    0.326775    1.530033
     16          1           0       -4.221342    0.940191   -1.249320
     17          1           0       -5.147800    1.183171    0.242269
     18          1           0       -4.936192   -1.350705   -0.695164
     19          1           0       -4.574528   -1.092161    1.020846
     20          1           0       -2.499998   -2.131563    0.264753
     21          1           0       -2.575969   -1.282220   -1.295525
     22          1           0       -2.520988    2.019761    0.068151
     23          1           0       -3.124702    1.326169    1.576283
     24          1           0        0.234846   -0.958623    1.534534
     25          1           0        1.890784   -2.306471    0.599444
     26          1           0        1.511575   -1.685875   -1.014680
     27          1           0        2.556156    0.360589   -1.845738
     28          1           0        2.368887    1.727783   -0.729905
     29          1           0        4.726167    1.414411    0.076341
     30          1           0        5.025738    0.585985   -1.470768
     31          1           0        4.594771   -0.863296    1.110584
     32          1           0        4.226548   -1.570040   -0.488738
     33          1           0        1.681150    0.991764    1.391349
 ---------------------------------------------------------------------

 SCF Done:  E(UB3LYP) =  -1087.34028061     A.U. after   29 cycles

 The electronic state is 2-A.
 Alpha  occ. eigenvalues --  -88.98483 -19.03047 -19.02852 -19.02565 -14.25268
 Alpha  occ. eigenvalues --  -14.24901 -10.14056 -10.11771 -10.11085 -10.10667
 Alpha  occ. eigenvalues --  -10.08369 -10.08235 -10.07751 -10.07653 -10.07513
 Alpha  occ. eigenvalues --   -8.04459  -6.00719  -6.00689  -6.00641  -1.03665
 Alpha  occ. eigenvalues --   -0.93895  -0.91773  -0.85530  -0.83362  -0.75199
 Alpha  occ. eigenvalues --   -0.70058  -0.64526  -0.63516  -0.58208  -0.56936
 Alpha  occ. eigenvalues --   -0.53055  -0.50009  -0.49057  -0.47170  -0.45578
 Alpha  occ. eigenvalues --   -0.42335  -0.41910  -0.40663  -0.39774  -0.37718
 Alpha  occ. eigenvalues --   -0.37410  -0.36903  -0.34011  -0.33611  -0.32490
 Alpha  occ. eigenvalues --   -0.31820  -0.31569  -0.29714  -0.29223  -0.27135
 Alpha  occ. eigenvalues --   -0.26547  -0.26029  -0.25733  -0.25379  -0.24933
 Alpha  occ. eigenvalues --   -0.24338  -0.24147  -0.23270  -0.21943  -0.21375
 Alpha  occ. eigenvalues --   -0.19836  -0.17189  -0.15809   0.04298
 Alpha virt. eigenvalues --    0.05871   0.07061   0.07727   0.08131   0.08408
 Alpha virt. eigenvalues --    0.08584   0.09894   0.10079   0.10445   0.11013
 Alpha virt. eigenvalues --    0.11041   0.11476   0.11854   0.12942   0.13223

  Beta  occ. eigenvalues --  -88.98480 -19.03038 -19.02843 -19.02553 -14.25252
  Beta  occ. eigenvalues --  -14.24901 -10.14055 -10.11752 -10.11060 -10.10645
  Beta  occ. eigenvalues --  -10.08363 -10.08223 -10.07744 -10.07621 -10.07472
  Beta  occ. eigenvalues --   -8.04454  -6.00716  -6.00686  -6.00638  -1.03639
  Beta  occ. eigenvalues --   -0.93877  -0.91746  -0.85508  -0.83332  -0.75186
  Beta  occ. eigenvalues --   -0.70019  -0.64470  -0.63478  -0.58185  -0.56902
  Beta  occ. eigenvalues --   -0.53014  -0.49910  -0.49009  -0.47142  -0.45533
  Beta  occ. eigenvalues --   -0.42310  -0.41889  -0.40638  -0.39742  -0.37692
  Beta  occ. eigenvalues --   -0.37388  -0.36871  -0.33972  -0.33563  -0.32468
  Beta  occ. eigenvalues --   -0.31784  -0.31546  -0.29680  -0.29194  -0.27116
  Beta  occ. eigenvalues --   -0.26496  -0.26003  -0.25692  -0.25356  -0.24916
  Beta  occ. eigenvalues --   -0.24305  -0.24120  -0.23246  -0.21922  -0.21359
  Beta  occ. eigenvalues --   -0.19819  -0.17169  -0.15791
  Beta virt. eigenvalues --    0.06177   0.06950   0.07650   0.08208   0.08692
  Beta virt. eigenvalues --    0.08855   0.08915   0.10257   0.10398   0.10769
  Beta virt. eigenvalues --    0.11137   0.11355   0.11773   0.12324   0.13174

 Mulliken charges and spin densities:
               1          2
     1  C    0.115196  -0.430738
     2  C    0.773553  -1.189114
     3  C    0.238807  -0.475521
     4  N   -0.355501   0.301923
     5  C    0.197194  -0.409171
     6  S    0.149375  -0.041374
     7  O   -0.157585  -0.001655
     8  O   -0.146503   0.000710
     9  N   -0.486600   0.094606
    10  C    0.931869  -1.749349
    11  C   -1.446389   1.820188
    12  C    0.214072  -0.564046
    13  C   -0.382813   0.197366
    14  C    0.742307  -1.284551
    15  O   -0.148245  -0.001942
    16  H    0.047338   0.093975
    17  H   -0.536037   0.719480
    18  H   -0.560467   0.731078
    19  H   -0.231434   0.404978
    20  H   -0.242400   0.423907
    21  H    0.086143   0.127220
    22  H    0.083741   0.110835
    23  H   -0.273404   0.474901
    24  H    0.051064   0.314695
    25  H   -0.244039   0.452954
    26  H    0.027722   0.211723
    27  H    0.095765   0.077015
    28  H    0.155728   0.024914
    29  H    0.103746   0.021957
    30  H    0.007845   0.134473
    31  H    0.058384   0.099074
    32  H   -0.113195   0.250849
    33  H    0.244761   0.058637
 Sum of Mulliken charges =  -1.00000   1.00000

 Dipole moment (field-independent basis, Debye):
    X=              6.9468    Y=              2.0824    Z=             -1.5348  Tot=              7.4129
 Quadrupole moment (field-independent basis, Debye-Ang):
   XX=           -194.6550   YY=           -136.1299   ZZ=           -135.6801
   XY=             -0.0798   XZ=              4.0694   YZ=             -0.8247

 Summary of Natural Population Analysis:

                                       Natural Population
                Natural  -----------------------------------------------
    Atom  No    Charge         Core      Valence    Rydberg      Total
 -----------------------------------------------------------------------
      C    1   -0.19635      0.99963     2.18812    0.00860     3.19635
      C    2   -0.19381      0.99963     2.18564    0.00854     3.19381
      C    3   -0.08614      0.99961     2.07452    0.01201     3.08614
      N    4   -0.37581      0.99973     2.86175    0.01433     3.87581
      C    5   -0.08118      0.99961     2.07021    0.01136     3.08118
      S    6    1.17090      4.99925     1.72768    0.10217     6.82910
      O    7   -0.46007      0.99990     3.45503    0.00514     4.46007
      O    8   -0.47718      0.99990     3.47176    0.00552     4.47718
      N    9   -0.42209      0.99976     2.90865    0.01367     3.92209
      C   10   -0.10434      0.99954     2.09084    0.01395     3.10434
      C   11    0.11882      0.99952     1.86411    0.01755     2.88118
      C   12   -0.19995      0.99960     2.19250    0.00786     3.19995
      C   13   -0.19190      0.99965     2.18467    0.00758     3.19190
      C   14   -0.19148      0.99960     2.18309    0.00879     3.19148
      O   15   -0.38799      0.99989     3.38100    0.00710     4.38799
      H   16    0.09712      0.00000     0.40157    0.00132     0.40288
      H   17    0.10760      0.00000     0.39031    0.00209     0.39240
      H   18    0.10678      0.00000     0.39129    0.00193     0.39322
      H   19    0.10148      0.00000     0.39578    0.00273     0.39852
      H   20    0.10572      0.00000     0.39248    0.00180     0.39428
      H   21    0.09853      0.00000     0.39993    0.00154     0.40147
      H   22    0.10536      0.00000     0.39350    0.00114     0.39464
      H   23    0.09743      0.00000     0.40095    0.00161     0.40257
      H   24    0.19849      0.00000     0.29879    0.00273     0.30151
      H   25    0.10477      0.00000     0.39392    0.00130     0.39523
      H   26    0.10814      0.00000     0.39050    0.00136     0.39186
      H   27    0.10473      0.00000     0.39415    0.00112     0.39527
      H   28    0.10636      0.00000     0.39258    0.00106     0.39364
      H   29    0.09773      0.00000     0.40105    0.00121     0.40227
      H   30    0.09364      0.00000     0.40515    0.00121     0.40636
      H   31    0.10327      0.00000     0.39571    0.00103     0.39673
      H   32    0.09848      0.00000     0.40020    0.00132     0.40152
      H   33    0.24295      0.00000     0.25400    0.00304     0.25705
 =======================================================================
   * Total *    0.00000     18.99483    43.73145    0.27373    63.00000

 Normal termination of Gaussian 16 at Thu Dec 10 15:43:56 2020.
