 Gaussian 16, Revision A.03,

 -----------------------------------------------------------
 # opt freq B3LYP/6-31G(d) empiricaldispersion=gd3bj scf=xqc
 -----------------------------------------------------------

 -------------------------------
 CID_114735247_JID_6757_neutraal
 -------------------------------
 Symbolic Z-matrix:
 Charge =  0 Multiplicity = 1

 SCF Done:  E(RB3LYP) =  -673.737753850     A.U. after   14 cycles
 SCF Done:  E(RB3LYP) =  -673.744716380     A.U. after   12 cycles
 SCF Done:  E(RB3LYP) =  -673.745804602     A.U. after   12 cycles
 SCF Done:  E(RB3LYP) =  -673.746065318     A.U. after   11 cycles
 SCF Done:  E(RB3LYP) =  -673.746209985     A.U. after   11 cycles
 SCF Done:  E(RB3LYP) =  -673.746294853     A.U. after   11 cycles
 SCF Done:  E(RB3LYP) =  -673.746318625     A.U. after   11 cycles
 SCF Done:  E(RB3LYP) =  -673.746326579     A.U. after    9 cycles
 SCF Done:  E(RB3LYP) =  -673.746329512     A.U. after    9 cycles
 SCF Done:  E(RB3LYP) =  -673.746330232     A.U. after    8 cycles
 SCF Done:  E(RB3LYP) =  -673.746870890     A.U. after   12 cycles
 SCF Done:  E(RB3LYP) =  -673.747122763     A.U. after   12 cycles
 SCF Done:  E(RB3LYP) =  -673.747148503     A.U. after   10 cycles
 SCF Done:  E(RB3LYP) =  -673.747158030     A.U. after   10 cycles
 SCF Done:  E(RB3LYP) =  -673.747158367     A.U. after    8 cycles
 SCF Done:  E(RB3LYP) =  -673.747158578     A.U. after    7 cycles
 Optimization completed.
    -- Stationary point found.
 Normal termination of Gaussian 16 at Fri Dec 11 00:02:56 2020.

 --------------------------------------------------------------------
 #N Geom=AllCheck Guess=TCheck SCRF=Check GenChk RB3LYP/6-31G(d) Freq
 --------------------------------------------------------------------

 Structure from the checkpoint file:  "JID_6757.chk"
 -------------------------------
 CID_114735247_JID_6757_neutraal
 -------------------------------
 Charge =  0 Multiplicity = 1

 SCF Done:  E(RB3LYP) =  -673.747158579     A.U. after    1 cycles

  Exact polarizability: 248.409  10.148 167.390   6.521  -0.588  82.425
 Approx polarizability: 352.082  23.881 273.166  15.361   1.972 125.479

                      1                      2                      3
                      A                      A                      A
 Frequencies --     23.1025                64.4222                78.1992
 Red. masses --      3.9562                 3.9614                 1.9015
 Frc consts  --      0.0012                 0.0097                 0.0069
 IR Inten    --      0.2902                 0.5762                 0.4377

                      4                      5                      6
                      A                      A                      A
 Frequencies --     86.6829                94.3726               134.1620
 Red. masses --      1.8656                 2.2406                 2.1886
 Frc consts  --      0.0083                 0.0118                 0.0232
 IR Inten    --      0.6142                 0.8255                 4.7838

                      7                      8                      9
                      A                      A                      A
 Frequencies --    139.3818               174.8528               189.8891
 Red. masses --      3.2191                 3.5681                 1.2782
 Frc consts  --      0.0368                 0.0643                 0.0272
 IR Inten    --      1.7696                 2.4674                 0.6260

                     10                     11                     12
                      A                      A                      A
 Frequencies --    208.4453               264.8933               282.6160
 Red. masses --      2.3993                 2.7790                 3.2799
 Frc consts  --      0.0614                 0.1149                 0.1543
 IR Inten    --      1.8562                15.5750                 0.7252

                     13                     14                     15
                      A                      A                      A
 Frequencies --    285.7784               291.6042               331.8613
 Red. masses --      1.8911                 1.9410                 3.5116
 Frc consts  --      0.0910                 0.0972                 0.2279
 IR Inten    --     28.3353                29.0602                 0.9440

                     16                     17                     18
                      A                      A                      A
 Frequencies --    393.2613               458.8175               474.5348
 Red. masses --      2.6315                 3.7018                 3.2134
 Frc consts  --      0.2398                 0.4591                 0.4263
 IR Inten    --      8.7826                 5.1824                 3.2843

                     19                     20                     21
                      A                      A                      A
 Frequencies --    498.6607               517.5115               546.2345
 Red. masses --      3.5511                 3.0614                 3.7302
 Frc consts  --      0.5203                 0.4831                 0.6557
 IR Inten    --      5.4332                 0.3230                 1.2414

                     22                     23                     24
                      A                      A                      A
 Frequencies --    567.2131               580.0884               609.5094
 Red. masses --      4.1194                 3.7837                 3.6194
 Frc consts  --      0.7809                 0.7502                 0.7922
 IR Inten    --      2.5981                 0.4586                 0.8535

                     25                     26                     27
                      A                      A                      A
 Frequencies --    622.3585               706.0487               729.7812
 Red. masses --      5.9566                 4.2888                 4.4700
 Frc consts  --      1.3594                 1.2597                 1.4026
 IR Inten    --      4.5085                 1.5869                 0.0570

                     28                     29                     30
                      A                      A                      A
 Frequencies --    754.6313               780.3222               820.8881
 Red. masses --      3.0869                 1.3926                 1.5217
 Frc consts  --      1.0357                 0.4996                 0.6042
 IR Inten    --     16.4009                10.8445                18.3176

                     31                     32                     33
                      A                      A                      A
 Frequencies --    842.6014               870.3983               879.1962
 Red. masses --      1.5262                 2.0522                 2.5329
 Frc consts  --      0.6384                 0.9160                 1.1536
 IR Inten    --     10.0744                10.7021                76.2772

                     34                     35                     36
                      A                      A                      A
 Frequencies --    883.9876               890.5536               916.8367
 Red. masses --      1.7073                 1.3544                 1.6848
 Frc consts  --      0.7861                 0.6329                 0.8344
 IR Inten    --     61.4957                 0.7757                45.1594

                     37                     38                     39
                      A                      A                      A
 Frequencies --    942.5935               956.7112               990.3814
 Red. masses --      4.5395                 1.2547                 1.9238
 Frc consts  --      2.3763                 0.6766                 1.1117
 IR Inten    --     11.4912                 0.5989                 1.1355

                     40                     41                     42
                      A                      A                      A
 Frequencies --   1007.5464              1065.9454              1076.3976
 Red. masses --      1.7058                 2.3742                 1.4791
 Frc consts  --      1.0202                 1.5894                 1.0097
 IR Inten    --      9.4106                27.1356                 2.2417

                     43                     44                     45
                      A                      A                      A
 Frequencies --   1079.2812              1085.3306              1093.4235
 Red. masses --      2.0836                 1.7847                 1.6208
 Frc consts  --      1.4300                 1.2386                 1.1417
 IR Inten    --      2.3469                 1.3381                18.5475

                     46                     47                     48
                      A                      A                      A
 Frequencies --   1107.9144              1113.2384              1136.0339
 Red. masses --      2.0213                 1.9278                 2.4986
 Frc consts  --      1.4618                 1.4076                 1.8999
 IR Inten    --      0.1198                 6.0532                13.8614

                     49                     50                     51
                      A                      A                      A
 Frequencies --   1183.7258              1198.3406              1218.5818
 Red. masses --      1.3119                 1.2853                 1.6977
 Frc consts  --      1.0831                 1.0874                 1.4853
 IR Inten    --      2.5680                 1.4689                24.4279

                     52                     53                     54
                      A                      A                      A
 Frequencies --   1225.3659              1273.1495              1281.8742
 Red. masses --      2.7800                 1.7122                 2.4184
 Frc consts  --      2.4594                 1.6352                 2.3414
 IR Inten    --     28.1971                 0.4969                10.6124

                     55                     56                     57
                      A                      A                      A
 Frequencies --   1306.2703              1348.3783              1359.0740
 Red. masses --      1.8788                 3.9020                 1.3872
 Frc consts  --      1.8888                 4.1798                 1.5097
 IR Inten    --      4.5769                17.3063                 8.1667

                     58                     59                     60
                      A                      A                      A
 Frequencies --   1372.0127              1399.7311              1411.1192
 Red. masses --      1.2050                 2.2119                 2.8855
 Frc consts  --      1.3364                 2.5533                 3.3853
 IR Inten    --      4.1670                17.0323                 3.9159

                     61                     62                     63
                      A                      A                      A
 Frequencies --   1438.8002              1444.0496              1445.0009
 Red. masses --      1.3785                 1.2553                 1.2655
 Frc consts  --      1.6814                 1.5423                 1.5568
 IR Inten    --     27.3158                 0.4083                 1.6979

                     64                     65                     66
                      A                      A                      A
 Frequencies --   1462.1997              1507.5668              1510.0435
 Red. masses --      2.4356                 1.0455                 1.0437
 Frc consts  --      3.0680                 1.4001                 1.4022
 IR Inten    --      4.8194                 4.8960                 7.8337

                     67                     68                     69
                      A                      A                      A
 Frequencies --   1512.5626              1525.2931              1525.5178
 Red. masses --      1.1080                 1.0886                 1.1879
 Frc consts  --      1.4936                 1.4922                 1.6288
 IR Inten    --      4.7288                 5.7659                13.1525

                     70                     71                     72
                      A                      A                      A
 Frequencies --   1537.3372              1541.1591              1619.5504
 Red. masses --      1.0893                 2.5771                 6.9336
 Frc consts  --      1.5168                 3.6064                10.7152
 IR Inten    --      2.1901                 6.6869                 2.6699

                     73                     74                     75
                      A                      A                      A
 Frequencies --   1652.4187              1670.6020              1695.4711
 Red. masses --      6.1605                 8.1656                 1.1268
 Frc consts  --      9.9108                13.4271                 1.9084
 IR Inten    --      2.7080                 0.9989                36.2388

                     76                     77                     78
                      A                      A                      A
 Frequencies --   1711.5459              2961.2621              3048.3589
 Red. masses --      5.5851                 1.0721                 1.0367
 Frc consts  --      9.6395                 5.5391                 5.6760
 IR Inten    --      1.7543                70.1167                26.1919

                     79                     80                     81
                      A                      A                      A
 Frequencies --   3051.9631              3052.7096              3074.8875
 Red. masses --      1.0390                 1.0592                 1.0878
 Frc consts  --      5.7017                 5.8155                 6.0601
 IR Inten    --     28.4724                15.9696                70.1018

                     82                     83                     84
                      A                      A                      A
 Frequencies --   3100.0750              3101.2908              3107.4710
 Red. masses --      1.1007                 1.1031                 1.0995
 Frc consts  --      6.2326                 6.2512                 6.2554
 IR Inten    --     16.6457                13.6935                16.2738

                     85                     86                     87
                      A                      A                      A
 Frequencies --   3133.3586              3137.8566              3159.6821
 Red. masses --      1.1019                 1.1028                 1.0883
 Frc consts  --      6.3737                 6.3973                 6.4017
 IR Inten    --     20.2287                16.6491                22.3211

                     88                     89                     90
                      A                      A                      A
 Frequencies --   3182.3243              3195.4677              3209.9426
 Red. masses --      1.0865                 1.0901                 1.0960
 Frc consts  --      6.4830                 6.5580                 6.6534
 IR Inten    --      5.3138                18.4216                31.0897

                     91                     92                     93
                      A                      A                      A
 Frequencies --   3293.6760              3465.1022              3549.0986
 Red. masses --      1.0954                 1.0500                 1.0919
 Frc consts  --      7.0014                 7.4279                 8.1037
 IR Inten    --      2.7735                 1.7821                 0.6815

 - Thermochemistry -
 -------------------
 Temperature   298.150 Kelvin.  Pressure   1.00000 Atm.
 Atom     1 has atomic number  6 and mass  12.00000

 Molecular mass:   215.13101 amu.
 Principal axes and moments of inertia in atomic units:
                           1         2         3
     Eigenvalues --  1677.677066409.416937829.17077
           X            0.99994  -0.01102  -0.00216
           Y            0.01101   0.99993  -0.00482
           Z            0.00221   0.00480   0.99999
 This molecule is an asymmetric top.
 Rotational symmetry number  1.
 Warning -- assumption of classical behavior for rotation
           may cause significant error
 Rotational temperatures (Kelvin)      0.05163     0.01351     0.01106
 Rotational constants (GHZ):           1.07574     0.28158     0.23051
 Zero-point vibrational energy     740786.1 (Joules/Mol)
                                  177.05213 (Kcal/Mol)
 Warning -- explicit consideration of  24 degrees of freedom as
           vibrations may cause significant error
 Vibrational temperatures:     33.24    92.69   112.51   124.72   135.78
          (Kelvin)            193.03   200.54   251.57   273.21   299.91
                              381.12   406.62   411.17   419.55   477.47
                              565.82   660.14   682.75   717.46   744.58
                              785.91   816.09   834.62   876.95   895.44
                             1015.85  1049.99  1085.75  1122.71  1181.07
                             1212.32  1252.31  1264.97  1271.86  1281.31
                             1319.12  1356.18  1376.49  1424.94  1449.63
                             1533.66  1548.70  1552.84  1561.55  1573.19
                             1594.04  1601.70  1634.50  1703.12  1724.14
                             1753.27  1763.03  1831.78  1844.33  1879.43
                             1940.02  1955.40  1974.02  2013.90  2030.29
                             2070.11  2077.67  2079.03  2103.78  2169.05
                             2172.62  2176.24  2194.56  2194.88  2211.89
                             2217.38  2330.17  2377.46  2403.62  2439.40
                             2462.53  4260.60  4385.91  4391.09  4392.17
                             4424.08  4460.32  4462.07  4470.96  4508.20
                             4514.68  4546.08  4578.65  4597.57  4618.39
                             4738.87  4985.51  5106.36

 Zero-point correction=                           0.282151 (Hartree/Particle)
 Thermal correction to Energy=                    0.297668
 Thermal correction to Enthalpy=                  0.298612
 Thermal correction to Gibbs Free Energy=         0.238668
 Sum of electronic and zero-point Energies=           -673.465008
 Sum of electronic and thermal Energies=              -673.449491
 Sum of electronic and thermal Enthalpies=            -673.448547
 Sum of electronic and thermal Free Energies=         -673.508491

                     E (Thermal)             CV                S
                      KCal/Mol        Cal/Mol-Kelvin    Cal/Mol-Kelvin
 Total                  186.789             59.130            126.163
 Electronic               0.000              0.000              0.000
 Translational            0.889              2.981             42.002
 Rotational               0.889              2.981             32.798
 Vibrational            185.012             53.169             51.363
 Vibration     1          0.593              1.985              6.348
 Vibration     2          0.597              1.971              4.317
 Vibration     3          0.599              1.964              3.936
 Vibration     4          0.601              1.958              3.734
 Vibration     5          0.603              1.953              3.567
 Vibration     6          0.613              1.919              2.885
 Vibration     7          0.615              1.914              2.812
 Vibration     8          0.627              1.873              2.383
 Vibration     9          0.633              1.854              2.229
 Vibration    10          0.642              1.828              2.057
 Vibration    11          0.671              1.737              1.629
 Vibration    12          0.682              1.706              1.518
 Vibration    13          0.684              1.700              1.499
 Vibration    14          0.687              1.689              1.465
 Vibration    15          0.714              1.612              1.251
 Vibration    16          0.760              1.485              0.988
 Vibration    17          0.817              1.341              0.770
 Vibration    18          0.831              1.307              0.725
 Vibration    19          0.854              1.253              0.661
 Vibration    20          0.873              1.211              0.616
 Vibration    21          0.901              1.148              0.552
 Vibration    22          0.923              1.102              0.510
 Vibration    23          0.937              1.074              0.485
 Vibration    24          0.968              1.012              0.434

                           ! Non-Optimized Parameters !
 Normal termination of Gaussian 16 at Fri Dec 11 00:13:22 2020.

 ----------------------------------------------------------------------
 # B3LYP/6-311++G(d,p) empiricaldispersion=gd3bj scf=xqc pop=npa geom=c
 heck
 ----------------------------------------------------------------------

 ---------------------------------------
 CID_114735247_JID_6757_Energie_neutraal
 ---------------------------------------
 Structure from the checkpoint file:  "JID_6757.chk"
 Charge =  0 Multiplicity = 1

 SCF Done:  E(RB3LYP) =  -673.931174837     A.U. after   15 cycles
 Normal termination of Gaussian 16 at Fri Dec 11 00:18:33 2020.

 ----------------------------------------------------------------------
 # B3LYP/6-311++G(d,p) empiricaldispersion=gd3bj scf=xqc pop=npa geom=c
 heck
 ----------------------------------------------------------------------

 -------------------------------------
 CID_114735247_JID_6757_Energie_kation
 -------------------------------------
 Structure from the checkpoint file:  "JID_6757.chk"
 Charge =  1 Multiplicity = 2

 SCF Done:  E(UB3LYP) =  -673.660258772     A.U. after   26 cycles
 Normal termination of Gaussian 16 at Fri Dec 11 00:31:17 2020.
 Gaussian 16:  ES64L-G16RevA.03 25-Dec-2016

 ----------------------------------------------------------------------
 # B3LYP/6-311++G(d,p) empiricaldispersion=gd3bj scf=xqc pop=npa geom=c
 heck
 ----------------------------------------------------------------------

 ------------------------------------
 CID_114735247_JID_6757_Energie_anion
 ------------------------------------
 Structure from the checkpoint file:  "JID_6757.chk"
 Charge = -1 Multiplicity = 2

                         Standard orientation:
 ---------------------------------------------------------------------
 Center     Atomic      Atomic             Coordinates (Angstroms)
 Number     Number       Type             X           Y           Z
 ---------------------------------------------------------------------
      1          6           0       -3.698913    1.867066    0.110078
      2          6           0       -3.183138    0.456073    0.027783
      3          6           0       -1.817787    0.176811    0.006326
      4          6           0       -1.264348   -1.113794   -0.067217
      5          6           0       -2.129333   -2.218147   -0.129455
      6          6           0       -3.497805   -1.975430   -0.110818
      7          6           0       -4.012011   -0.666913   -0.033345
      8          6           0        0.160647   -0.919476   -0.065295
      9          6           0        0.387504    0.429207    0.015591
     10          8           0       -0.822040    1.113871    0.051015
     11          6           0        1.572885    1.280027    0.031630
     12          6           0        2.785965    0.868405    0.455932
     13          6           0        3.173417   -0.471605    1.012264
     14          6           0        3.811118   -1.400374   -0.036974
     15          7           0        5.024397   -0.791656   -0.592074
     16          6           0        1.361051    2.701030   -0.443266
     17          1           0       -3.347266    2.468423   -0.736753
     18          1           0       -3.346752    2.365862    1.020912
     19          1           0       -4.792543    1.883790    0.111431
     20          1           0       -1.740674   -3.230406   -0.187774
     21          1           0       -4.191106   -2.810413   -0.156265
     22          1           0       -5.088814   -0.519600   -0.020971
     23          1           0        0.914157   -1.685643   -0.158066
     24          1           0        3.591979    1.598535    0.398857
     25          1           0        3.912954   -0.320248    1.807659
     26          1           0        2.303588   -0.971254    1.452571
     27          1           0        4.099541   -2.338416    0.452292
     28          1           0        3.054483   -1.652814   -0.801139
     29          1           0        5.479960   -1.449463   -1.222258
     30          1           0        4.761664    0.008897   -1.165739
     31          1           0        0.961273    2.724970   -1.464111
     32          1           0        0.635726    3.223334    0.190050
     33          1           0        2.301857    3.257796   -0.423709
 ---------------------------------------------------------------------

 SCF Done:  E(UB3LYP) =  -673.930274578     A.U. after   25 cycles

 The electronic state is 2-A.
 Alpha  occ. eigenvalues --  -19.04572 -14.17623 -10.09544 -10.08704 -10.07282
 Alpha  occ. eigenvalues --  -10.06538 -10.05816 -10.05080 -10.04892 -10.04609
 Alpha  occ. eigenvalues --  -10.04525 -10.04371 -10.04326 -10.04247 -10.02881
 Alpha  occ. eigenvalues --  -10.02466  -0.97229  -0.76673  -0.73417  -0.69260
 Alpha  occ. eigenvalues --   -0.67201  -0.63735  -0.62606  -0.59813  -0.57434
 Alpha  occ. eigenvalues --   -0.54915  -0.50733  -0.48210  -0.46660  -0.45137
 Alpha  occ. eigenvalues --   -0.40918  -0.38516  -0.37434  -0.36402  -0.35034
 Alpha  occ. eigenvalues --   -0.33656  -0.33643  -0.32219  -0.30992  -0.30623
 Alpha  occ. eigenvalues --   -0.29708  -0.29300  -0.28953  -0.27819  -0.27505
 Alpha  occ. eigenvalues --   -0.25830  -0.25432  -0.25065  -0.23812  -0.22671
 Alpha  occ. eigenvalues --   -0.22482  -0.21746  -0.20281  -0.16902  -0.14198
 Alpha  occ. eigenvalues --   -0.12876  -0.11401  -0.08209   0.04572
 Alpha virt. eigenvalues --    0.07348   0.07600   0.08442   0.09156   0.09417
 Alpha virt. eigenvalues --    0.10105   0.11029   0.11193   0.11507   0.11892
 Alpha virt. eigenvalues --    0.12112   0.12476   0.13035   0.13492   0.13822

  Beta  occ. eigenvalues --  -19.04481 -14.17575 -10.09564 -10.08485 -10.07229
  Beta  occ. eigenvalues --  -10.06546 -10.05714 -10.05126 -10.04891 -10.04611
  Beta  occ. eigenvalues --  -10.04410 -10.04271 -10.04260 -10.04206 -10.02780
  Beta  occ. eigenvalues --  -10.02176  -0.97054  -0.76576  -0.73241  -0.68894
  Beta  occ. eigenvalues --   -0.66974  -0.63578  -0.62385  -0.59668  -0.57254
  Beta  occ. eigenvalues --   -0.54671  -0.50410  -0.48134  -0.46505  -0.44971
  Beta  occ. eigenvalues --   -0.40645  -0.38358  -0.37303  -0.36302  -0.34926
  Beta  occ. eigenvalues --   -0.33487  -0.33259  -0.32119  -0.30806  -0.30506
  Beta  occ. eigenvalues --   -0.29570  -0.29224  -0.28830  -0.27747  -0.27433
  Beta  occ. eigenvalues --   -0.25730  -0.25242  -0.24957  -0.23728  -0.22459
  Beta  occ. eigenvalues --   -0.22098  -0.21665  -0.20120  -0.16062  -0.13431
  Beta  occ. eigenvalues --   -0.12623  -0.10782  -0.07034
  Beta virt. eigenvalues --    0.07417   0.07684   0.08374   0.09072   0.09398
  Beta virt. eigenvalues --    0.09543   0.10083   0.11041   0.11315   0.11738
  Beta virt. eigenvalues --    0.12000   0.12188   0.12676   0.13135   0.13559

 Mulliken charges and spin densities:
               1          2
     1  C   -0.641403   0.009073
     2  C    0.250000   0.017432
     3  C   -0.903968   0.007773
     4  C    0.580323  -0.001947
     5  C   -0.437905   0.160703
     6  C   -0.121433  -0.027758
     7  C   -0.611291   0.077003
     8  C    0.252720   0.063972
     9  C    0.250306   0.068132
    10  O   -0.004357   0.021723
    11  C    0.387951  -0.117234
    12  C   -0.438404   0.378788
    13  C   -0.133766   0.245499
    14  C    0.431775  -0.994962
    15  N   -0.418527   0.022138
    16  C   -0.635500  -0.050878
    17  H    0.139548   0.010796
    18  H    0.148726   0.002618
    19  H    0.131972   0.001225
    20  H    0.082833   0.014574
    21  H    0.118928   0.003170
    22  H    0.077400  -0.008273
    23  H    0.097873  -0.048987
    24  H    0.099062   0.018765
    25  H    0.084845   0.049033
    26  H    0.124399   0.020547
    27  H   -0.127711   0.257847
    28  H   -0.144226   0.281042
    29  H   -0.105664   0.335930
    30  H    0.072192   0.154201
    31  H    0.112938   0.026188
    32  H    0.150840  -0.000617
    33  H    0.129523   0.002484
 Sum of Mulliken charges =  -1.00000   1.00000

 Dipole moment (field-independent basis, Debye):
    X=             -5.2047    Y=              1.8669    Z=              0.4969  Tot=              5.5517
 Quadrupole moment (field-independent basis, Debye-Ang):
   XX=           -172.2953   YY=           -116.0204   ZZ=           -112.9467
   XY=              3.5992   XZ=              1.8485   YZ=             -1.4395

 Summary of Natural Population Analysis:

                                       Natural Population
                Natural  -----------------------------------------------
    Atom  No    Charge         Core      Valence    Rydberg      Total
 -----------------------------------------------------------------------
      C    1   -0.27744      0.99959     2.27437    0.00348     3.27744
      C    2   -0.03247      0.99948     2.02340    0.00959     3.03247
      C    3    0.15307      0.99932     1.83565    0.01196     2.84693
      C    4   -0.05102      0.99949     2.04238    0.00915     3.05102
      C    5   -0.07578      0.99954     2.06772    0.00852     3.07578
      C    6   -0.12409      0.99959     2.11502    0.00949     3.12409
      C    7   -0.09579      0.99955     2.08565    0.01058     3.09579
      C    8   -0.13522      0.99948     2.12781    0.00793     3.13522
      C    9    0.19314      0.99942     1.79205    0.01538     2.80686
      O   10   -0.24232      0.99985     3.23564    0.00682     4.24232
      C   11   -0.04235      0.99946     2.03283    0.01006     3.04235
      C   12   -0.02783      0.99950     2.01802    0.01031     3.02783
      C   13   -0.21643      0.99962     2.20571    0.01111     3.21643
      C   14   -0.08057      0.99964     2.06954    0.01139     3.08057
      N   15   -0.42636      0.99977     2.91563    0.01095     3.92636
      C   16   -0.28434      0.99964     2.28031    0.00439     3.28434
      H   17    0.09997      0.00000     0.39829    0.00173     0.40003
      H   18    0.09976      0.00000     0.39852    0.00172     0.40024
      H   19    0.09594      0.00000     0.40352    0.00055     0.40406
      H   20    0.09260      0.00000     0.40593    0.00147     0.40740
      H   21    0.09154      0.00000     0.40740    0.00106     0.40846
      H   22    0.09003      0.00000     0.40920    0.00077     0.40997
      H   23    0.10421      0.00000     0.39399    0.00180     0.39579
      H   24    0.08463      0.00000     0.41441    0.00097     0.41537
      H   25    0.09851      0.00000     0.40029    0.00120     0.40149
      H   26    0.10425      0.00000     0.39454    0.00121     0.39575
      H   27    0.08492      0.00000     0.41366    0.00142     0.41508
      H   28    0.07822      0.00000     0.42000    0.00178     0.42178
      H   29    0.17218      0.00000     0.32566    0.00216     0.32782
      H   30    0.17561      0.00000     0.32252    0.00187     0.32439
      H   31    0.09753      0.00000     0.40113    0.00134     0.40247
      H   32    0.10124      0.00000     0.39772    0.00104     0.39876
      H   33    0.09477      0.00000     0.40445    0.00078     0.40523
 =======================================================================
   * Total *    0.00013     15.99294    41.83297    0.17396    57.99987

 Normal termination of Gaussian 16 at Fri Dec 11 00:43:41 2020.
