 Gaussian 16, Revision A.03,

 -----------------------------------------------------------
 # opt freq B3LYP/6-31G(d) empiricaldispersion=gd3bj scf=xqc
 -----------------------------------------------------------

 -------------------------------
 CID_131284175_JID_4385_neutraal
 -------------------------------
 Symbolic Z-matrix:
 Charge =  0 Multiplicity = 1

 SCF Done:  E(RB3LYP) =  -575.224969122     A.U. after   15 cycles
 SCF Done:  E(RB3LYP) =  -575.247636859     A.U. after   13 cycles
 SCF Done:  E(RB3LYP) =  -575.248602951     A.U. after   12 cycles
 SCF Done:  E(RB3LYP) =  -575.248782138     A.U. after   11 cycles
 SCF Done:  E(RB3LYP) =  -575.248809345     A.U. after   10 cycles
 SCF Done:  E(RB3LYP) =  -575.248815135     A.U. after   10 cycles
 SCF Done:  E(RB3LYP) =  -575.248819845     A.U. after   10 cycles
 SCF Done:  E(RB3LYP) =  -575.248824182     A.U. after   10 cycles
 SCF Done:  E(RB3LYP) =  -575.248824795     A.U. after   10 cycles
 SCF Done:  E(RB3LYP) =  -575.248832439     A.U. after    9 cycles
 SCF Done:  E(RB3LYP) =  -575.249033228     A.U. after   10 cycles
 SCF Done:  E(RB3LYP) =  -575.249036702     A.U. after   10 cycles
 SCF Done:  E(RB3LYP) =  -575.249037559     A.U. after   10 cycles
 SCF Done:  E(RB3LYP) =  -575.249037685     A.U. after    9 cycles
 SCF Done:  E(RB3LYP) =  -575.249037784     A.U. after    8 cycles
 Optimization completed.
    -- Stationary point found.
 Normal termination of Gaussian 16 at Thu Dec 10 09:31:03 2020.

 --------------------------------------------------------------------
 #N Geom=AllCheck Guess=TCheck SCRF=Check GenChk RB3LYP/6-31G(d) Freq
 --------------------------------------------------------------------

 Structure from the checkpoint file:  "JID_4385.chk"
 -------------------------------
 CID_131284175_JID_4385_neutraal
 -------------------------------
 Charge =  0 Multiplicity = 1

 SCF Done:  E(RB3LYP) =  -575.249037784     A.U. after    1 cycles

  Exact polarizability: 181.593  -2.454 130.797   4.604  -0.893  77.212
 Approx polarizability: 241.620 -10.759 218.301  11.051  -0.433 121.330

                      1                      2                      3
                      A                      A                      A
 Frequencies --     13.7507                74.9197               106.3490
 Red. masses --      5.2084                 3.6866                 5.8168
 Frc consts  --      0.0006                 0.0122                 0.0388
 IR Inten    --      5.4826                 3.9149                 2.9540

                      4                      5                      6
                      A                      A                      A
 Frequencies --    125.4042               195.2041               208.6625
 Red. masses --      3.4849                 2.8664                 4.2365
 Frc consts  --      0.0323                 0.0644                 0.1087
 IR Inten    --      1.6923                 4.2356                 1.9358

                      7                      8                      9
                      A                      A                      A
 Frequencies --    249.9527               302.8016               348.8922
 Red. masses --      2.3619                 3.2662                 4.0465
 Frc consts  --      0.0869                 0.1764                 0.2902
 IR Inten    --      0.0501                 0.6387                 1.8457

                     10                     11                     12
                      A                      A                      A
 Frequencies --    357.8312               370.6987               389.9449
 Red. masses --      3.4593                 4.2014                 2.2657
 Frc consts  --      0.2610                 0.3402                 0.2030
 IR Inten    --      2.6986                 1.8474                 1.1095

                     13                     14                     15
                      A                      A                      A
 Frequencies --    421.9899               439.7853               466.4025
 Red. masses --      3.8732                 2.9608                 2.4547
 Frc consts  --      0.4064                 0.3374                 0.3146
 IR Inten    --      1.9791                 0.3902                 8.6969

                     16                     17                     18
                      A                      A                      A
 Frequencies --    528.3652               551.8821               604.2314
 Red. masses --      2.5065                 2.6477                 3.7927
 Frc consts  --      0.4123                 0.4751                 0.8158
 IR Inten    --      1.9668                 4.6847                10.6553

                     19                     20                     21
                      A                      A                      A
 Frequencies --    631.5361               729.3202               747.7441
 Red. masses --      3.9325                 3.7253                 2.2487
 Frc consts  --      0.9241                 1.1675                 0.7408
 IR Inten    --     12.6161                 0.7411                44.2352

                     22                     23                     24
                      A                      A                      A
 Frequencies --    754.2076               829.9394               831.1032
 Red. masses --      4.5954                 1.7252                 1.8485
 Frc consts  --      1.5401                 0.7001                 0.7523
 IR Inten    --      0.1448                 8.1405                25.4944

                     25                     26                     27
                      A                      A                      A
 Frequencies --    845.1010               891.8781               899.9533
 Red. masses --      2.5518                 1.7189                 1.4246
 Frc consts  --      1.0738                 0.8056                 0.6798
 IR Inten    --     18.0205                 4.8043                 4.0722

                     28                     29                     30
                      A                      A                      A
 Frequencies --    916.8039               942.3492               956.6634
 Red. masses --      2.6022                 2.0839                 1.8350
 Frc consts  --      1.2887                 1.0903                 0.9895
 IR Inten    --      2.0881                 8.5391                 2.0670

                     31                     32                     33
                      A                      A                      A
 Frequencies --    975.4798               978.3385               997.4116
 Red. masses --      2.0169                 2.0084                 2.9619
 Frc consts  --      1.1308                 1.1326                 1.7361
 IR Inten    --      7.7372                 0.3269                 2.3544

                     34                     35                     36
                      A                      A                      A
 Frequencies --   1031.7630              1077.6988              1107.8883
 Red. masses --      2.1524                 1.9683                 1.8217
 Frc consts  --      1.3500                 1.3469                 1.3174
 IR Inten    --      2.6031                 2.7019                 2.1598

                     37                     38                     39
                      A                      A                      A
 Frequencies --   1147.0838              1167.9990              1196.5218
 Red. masses --      2.3126                 3.0256                 1.7275
 Frc consts  --      1.7928                 2.4319                 1.4572
 IR Inten    --      8.2555                24.2678                 2.1603

                     40                     41                     42
                      A                      A                      A
 Frequencies --   1215.4970              1233.5987              1246.9796
 Red. masses --      1.2113                 1.5588                 1.1457
 Frc consts  --      1.0544                 1.3976                 1.0497
 IR Inten    --      4.5949                 0.6175                 2.5601

                     43                     44                     45
                      A                      A                      A
 Frequencies --   1258.7576              1279.0930              1281.8009
 Red. masses --      1.5298                 1.8656                 1.4664
 Frc consts  --      1.4281                 1.7983                 1.4195
 IR Inten    --      0.6278                13.2992                 6.4812

                     46                     47                     48
                      A                      A                      A
 Frequencies --   1321.9730              1332.2199              1350.3349
 Red. masses --      1.7669                 1.3857                 1.2332
 Frc consts  --      1.8194                 1.4490                 1.3248
 IR Inten    --     10.8258                 8.3454                 3.1644

                     49                     50                     51
                      A                      A                      A
 Frequencies --   1362.7981              1385.4773              1393.0557
 Red. masses --      1.8168                 1.4920                 1.5221
 Frc consts  --      1.9880                 1.6873                 1.7403
 IR Inten    --     12.2311                13.9947                 1.5722

                     52                     53                     54
                      A                      A                      A
 Frequencies --   1401.9165              1448.1863              1478.6539
 Red. masses --      1.4454                 1.5291                 2.6379
 Frc consts  --      1.6737                 1.8895                 3.3981
 IR Inten    --     10.6192                14.1982                 2.3908

                     55                     56                     57
                      A                      A                      A
 Frequencies --   1490.6489              1501.2556              1506.6020
 Red. masses --      1.0876                 1.1369                 1.0965
 Frc consts  --      1.4239                 1.5096                 1.4664
 IR Inten    --      6.8302                 4.6830                 2.4884

                     58                     59                     60
                      A                      A                      A
 Frequencies --   1513.5706              1526.5843              1528.0559
 Red. masses --      1.1222                 1.2111                 1.1120
 Frc consts  --      1.5147                 1.6629                 1.5298
 IR Inten    --      5.7998                 2.0389                 4.8521

                     61                     62                     63
                      A                      A                      A
 Frequencies --   1555.6044              1639.3799              1676.4553
 Red. masses --      2.6981                 6.3056                 6.0012
 Frc consts  --      3.8468                 9.9847                 9.9374
 IR Inten    --     18.1256                 2.1857                 1.7342

                     64                     65                     66
                      A                      A                      A
 Frequencies --   2374.5863              2910.3470              2923.0455
 Red. masses --     12.6161                 1.0739                 1.0723
 Frc consts  --     41.9133                 5.3593                 5.3978
 IR Inten    --      9.3971                68.1464                84.8006

                     67                     68                     69
                      A                      A                      A
 Frequencies --   3015.4407              3038.1996              3044.7895
 Red. masses --      1.0690                 1.0644                 1.0638
 Frc consts  --      5.7270                 5.7885                 5.8107
 IR Inten    --     28.9618                 7.5195                27.0434

                     70                     71                     72
                      A                      A                      A
 Frequencies --   3077.1303              3080.7658              3084.5983
 Red. masses --      1.0877                 1.0963                 1.0922
 Frc consts  --      6.0682                 6.1306                 6.1228
 IR Inten    --     57.7595                 3.4894                42.3738

                     73                     74                     75
                      A                      A                      A
 Frequencies --   3091.6556              3096.7274              3165.0247
 Red. masses --      1.0886                 1.1018                 1.0896
 Frc consts  --      6.1307                 6.2254                 6.4311
 IR Inten    --     18.2621                34.0950                20.4311

                     76                     77                     78
                      A                      A                      A
 Frequencies --   3182.8147              3206.9351              3505.2950
 Red. masses --      1.0883                 1.0934                 1.0748
 Frc consts  --      6.4957                 6.6251                 7.7809
 IR Inten    --     12.1339                 7.0875                 1.3588

 - Thermochemistry -
 -------------------
 Temperature   298.150 Kelvin.  Pressure   1.00000 Atm.
 Atom     1 has atomic number  6 and mass  12.00000

 Molecular mass:   186.11570 amu.
 Principal axes and moments of inertia in atomic units:
                           1         2         3
     Eigenvalues --   938.773215167.123825883.99437
           X            0.99997   0.00739   0.00253
           Y           -0.00737   0.99994  -0.00799
           Z           -0.00259   0.00797   0.99996
 This molecule is an asymmetric top.
 Rotational symmetry number  1.
 Warning -- assumption of classical behavior for rotation
           may cause significant error
 Rotational temperatures (Kelvin)      0.09226     0.01676     0.01472
 Rotational constants (GHZ):           1.92245     0.34927     0.30672
 Zero-point vibrational energy     628875.1 (Joules/Mol)
                                  150.30476 (Kcal/Mol)
 Warning -- explicit consideration of  18 degrees of freedom as
           vibrations may cause significant error
 Vibrational temperatures:     19.78   107.79   153.01   180.43   280.86
          (Kelvin)            300.22   359.63   435.66   501.98   514.84
                              533.35   561.04   607.15   632.75   671.05
                              760.20   794.04   869.35   908.64  1049.33
                             1075.84  1085.14  1194.10  1195.77  1215.91
                             1283.21  1294.83  1319.08  1355.83  1376.43
                             1403.50  1407.61  1435.05  1484.48  1550.57
                             1594.00  1650.40  1680.49  1721.53  1748.83
                             1774.87  1794.13  1811.07  1840.33  1844.23
                             1902.02  1916.77  1942.83  1960.76  1993.39
                             2004.30  2017.05  2083.62  2127.45  2144.71
                             2159.97  2167.66  2177.69  2196.41  2198.53
                             2238.17  2358.70  2412.05  3416.50  4187.34
                             4205.61  4338.55  4371.29  4380.77  4427.30
                             4432.53  4438.05  4448.20  4455.50  4553.76
                             4579.36  4614.06  5043.34

 Zero-point correction=                           0.239526 (Hartree/Particle)
 Thermal correction to Energy=                    0.251557
 Thermal correction to Enthalpy=                  0.252501
 Thermal correction to Gibbs Free Energy=         0.200097
 Sum of electronic and zero-point Energies=           -575.009512
 Sum of electronic and thermal Energies=              -574.997481
 Sum of electronic and thermal Enthalpies=            -574.996536
 Sum of electronic and thermal Free Energies=         -575.048941

                     E (Thermal)             CV                S
                      KCal/Mol        Cal/Mol-Kelvin    Cal/Mol-Kelvin
 Total                  157.854             47.296            110.295
 Electronic               0.000              0.000              0.000
 Translational            0.889              2.981             41.570
 Rotational               0.889              2.981             31.724
 Vibrational            156.077             41.334             37.002
 Vibration     1          0.593              1.986              7.378
 Vibration     2          0.599              1.966              4.020
 Vibration     3          0.605              1.944              3.334
 Vibration     4          0.610              1.928              3.015
 Vibration     5          0.636              1.847              2.178
 Vibration     6          0.642              1.827              2.055
 Vibration     7          0.663              1.763              1.731
 Vibration     8          0.694              1.668              1.401
 Vibration     9          0.726              1.578              1.171
 Vibration    10          0.733              1.559              1.132
 Vibration    11          0.743              1.532              1.077
 Vibration    12          0.758              1.492              1.000
 Vibration    13          0.784              1.422              0.885
 Vibration    14          0.800              1.383              0.827
 Vibration    15          0.824              1.325              0.748
 Vibration    16          0.883              1.187              0.591
 Vibration    17          0.907              1.136              0.540
 Vibration    18          0.963              1.023              0.442

 Optimization completed.
    -- Stationary point found.
 Normal termination of Gaussian 16 at Thu Dec 10 09:39:14 2020.

 ----------------------------------------------------------------------
 # B3LYP/6-311++G(d,p) empiricaldispersion=gd3bj scf=xqc pop=npa geom=c
 heck
 ----------------------------------------------------------------------

 ---------------------------------------
 CID_131284175_JID_4385_Energie_neutraal
 ---------------------------------------
 Structure from the checkpoint file:  "JID_4385.chk"
 Charge =  0 Multiplicity = 1

 SCF Done:  E(RB3LYP) =  -575.402825187     A.U. after   15 cycles
 Normal termination of Gaussian 16 at Thu Dec 10 09:43:04 2020.

 ----------------------------------------------------------------------
 # B3LYP/6-311++G(d,p) empiricaldispersion=gd3bj scf=xqc pop=npa geom=c
 heck
 ----------------------------------------------------------------------

 -------------------------------------
 CID_131284175_JID_4385_Energie_kation
 -------------------------------------
 Structure from the checkpoint file:  "JID_4385.chk"
 Charge =  1 Multiplicity = 2

 SCF Done:  E(UB3LYP) =  -575.095244965     A.U. after   27 cycles
 Normal termination of Gaussian 16 at Thu Dec 10 09:53:04 2020.
 Gaussian 16:  ES64L-G16RevA.03 25-Dec-2016

 ----------------------------------------------------------------------
 # B3LYP/6-311++G(d,p) empiricaldispersion=gd3bj scf=xqc pop=npa geom=c
 heck
 ----------------------------------------------------------------------

 ------------------------------------
 CID_131284175_JID_4385_Energie_anion
 ------------------------------------
 Structure from the checkpoint file:  "JID_4385.chk"
 Charge = -1 Multiplicity = 2

                         Standard orientation:
 ---------------------------------------------------------------------
 Center     Atomic      Atomic             Coordinates (Angstroms)
 Number     Number       Type             X           Y           Z
 ---------------------------------------------------------------------
      1          6           0        3.146756    1.093241   -0.543890
      2          6           0        2.069368    1.513200    0.474902
      3          6           0        0.725854    0.846882    0.281754
      4          6           0        0.585236   -0.553301    0.341363
      5          6           0        1.778008   -1.447893    0.605393
      6          7           0        2.790156   -1.377272   -0.456380
      7          6           0        3.751702   -0.288993   -0.290321
      8          6           0       -0.675290   -1.120862    0.159087
      9          6           0       -1.807687   -0.338817   -0.087763
     10          6           0       -1.666514    1.045686   -0.147659
     11          6           0       -0.409504    1.621922    0.035925
     12          6           0       -3.142226   -1.031771   -0.327048
     13          6           0       -4.307144   -0.174779   -0.094862
     14          7           0       -5.221266    0.517897    0.080915
     15          1           0        3.963938    1.825054   -0.504459
     16          1           0        2.726797    1.124342   -1.555775
     17          1           0        1.929593    2.598336    0.419160
     18          1           0        2.446244    1.306412    1.488306
     19          1           0        1.428266   -2.483277    0.665227
     20          1           0        2.209180   -1.201159    1.596057
     21          1           0        3.301973   -2.256005   -0.465662
     22          1           0        4.206466   -0.287890    0.721722
     23          1           0        4.564248   -0.456659   -1.006723
     24          1           0       -0.776139   -2.203636    0.207491
     25          1           0       -2.532793    1.675370   -0.327378
     26          1           0       -0.310957    2.703634   -0.009145
     27          1           0       -3.199556   -1.402042   -1.360293
     28          1           0       -3.230846   -1.913946    0.318447
 ---------------------------------------------------------------------

 SCF Done:  E(UB3LYP) =  -575.393200517     A.U. after   33 cycles
 SCF Done:  E(UB3LYP) =  -575.393200517     a.u. after    1 cycles

 The electronic state is 2-A.
 Alpha  occ. eigenvalues --  -14.22833 -14.19334 -10.13201 -10.12933 -10.09725
 Alpha  occ. eigenvalues --  -10.09244 -10.08796 -10.08285 -10.07937 -10.07840
 Alpha  occ. eigenvalues --  -10.07686 -10.07560 -10.07406 -10.06902  -0.82645
 Alpha  occ. eigenvalues --   -0.80736  -0.76964  -0.71730  -0.68612  -0.66295
 Alpha  occ. eigenvalues --   -0.63409  -0.57543  -0.56245  -0.51271  -0.47871
 Alpha  occ. eigenvalues --   -0.47214  -0.42480  -0.41015  -0.40070  -0.38140
 Alpha  occ. eigenvalues --   -0.36386  -0.36163  -0.34990  -0.33590  -0.32564
 Alpha  occ. eigenvalues --   -0.31804  -0.31155  -0.29952  -0.28559  -0.26836
 Alpha  occ. eigenvalues --   -0.26215  -0.25063  -0.24601  -0.24118  -0.23739
 Alpha  occ. eigenvalues --   -0.23388  -0.23144  -0.15759  -0.14619  -0.12757
 Alpha  occ. eigenvalues --    0.04226
 Alpha virt. eigenvalues --    0.06161   0.07026   0.07097   0.07751   0.08340
 Alpha virt. eigenvalues --    0.08782   0.09119   0.09886   0.10519   0.10656
 Alpha virt. eigenvalues --    0.10985   0.11513   0.11673   0.12024   0.12491

  Beta  occ. eigenvalues --  -14.22827 -14.19300 -10.13172 -10.12930 -10.09729
  Beta  occ. eigenvalues --  -10.09220 -10.08766 -10.08291 -10.07917 -10.07819
  Beta  occ. eigenvalues --  -10.07676 -10.07511 -10.07347 -10.06894  -0.82629
  Beta  occ. eigenvalues --   -0.80682  -0.76907  -0.71688  -0.68565  -0.66215
  Beta  occ. eigenvalues --   -0.63336  -0.57481  -0.56186  -0.51163  -0.47800
  Beta  occ. eigenvalues --   -0.47172  -0.42423  -0.40967  -0.39990  -0.38085
  Beta  occ. eigenvalues --   -0.36338  -0.36097  -0.34931  -0.33547  -0.32514
  Beta  occ. eigenvalues --   -0.31752  -0.31104  -0.29902  -0.28545  -0.26786
  Beta  occ. eigenvalues --   -0.26128  -0.25036  -0.24556  -0.24071  -0.23688
  Beta  occ. eigenvalues --   -0.23346  -0.23095  -0.15482  -0.14520  -0.12677
  Beta virt. eigenvalues --    0.06632   0.06764   0.07494   0.07783   0.08081
  Beta virt. eigenvalues --    0.08938   0.09148   0.09459   0.10244   0.10780
  Beta virt. eigenvalues --    0.10985   0.11241   0.11658   0.11935   0.12210

 Mulliken charges and spin densities:
               1          2
     1  C   -0.731871   0.222188
     2  C   -0.490025   0.363237
     3  C    0.437621   0.346192
     4  C   -2.006988   2.483464
     5  C    2.343815  -3.073058
     6  N   -0.512084   0.430952
     7  C    1.299548  -1.645745
     8  C    0.240607  -0.284957
     9  C    1.334880  -0.161074
    10  C   -0.919313  -0.631605
    11  C   -0.491136  -0.174546
    12  C    0.665258  -0.772857
    13  C    0.211143  -0.410517
    14  N   -0.310745   0.010102
    15  H   -0.253663   0.393923
    16  H    0.191057  -0.044157
    17  H   -0.120439   0.295755
    18  H    0.078297   0.065761
    19  H   -0.821098   1.034458
    20  H    0.024674   0.087559
    21  H   -0.110667   0.379421
    22  H   -0.374137   0.494117
    23  H   -0.344361   0.493607
    24  H   -0.239459   0.368298
    25  H    0.089785   0.021243
    26  H    0.078951   0.050491
    27  H    0.088922   0.114373
    28  H   -0.358572   0.543374
 Sum of Mulliken charges =  -1.00000   1.00000

 Dipole moment (field-independent basis, Debye):
    X=             -2.4164    Y=              4.5377    Z=             -1.6545  Tot=              5.4006
 Quadrupole moment (field-independent basis, Debye-Ang):
   XX=           -183.9468   YY=           -127.9407   ZZ=           -108.5283
   XY=             11.5019   XZ=              5.0198   YZ=              3.1032

 Summary of Natural Population Analysis:

                                       Natural Population
                Natural  -----------------------------------------------
    Atom  No    Charge         Core      Valence    Rydberg      Total
 -----------------------------------------------------------------------
      C    1   -0.19062      0.99962     2.18201    0.00899     3.19062
      C    2   -0.19997      0.99960     2.19166    0.00871     3.19997
      C    3   -0.01030      0.99946     2.00120    0.00964     3.01030
      C    4   -0.00324      0.99946     1.99323    0.01056     3.00324
      C    5   -0.09718      0.99958     2.08423    0.01337     3.09718
      N    6   -0.33683      0.99973     2.82468    0.01243     3.83683
      C    7   -0.08466      0.99961     2.07262    0.01243     3.08466
      C    8   -0.08535      0.99947     2.07591    0.00997     3.08535
      C    9   -0.02036      0.99949     2.01082    0.01005     3.02036
      C   10   -0.10164      0.99951     2.09437    0.00776     3.10164
      C   11   -0.08645      0.99952     2.07896    0.00797     3.08645
      C   12   -0.25129      0.99951     2.24364    0.00814     3.25129
      C   13    0.16695      0.99967     1.81596    0.01742     2.83305
      N   14   -0.18943      0.99979     2.67863    0.01101     3.68943
      H   15    0.09805      0.00000     0.40080    0.00116     0.40195
      H   16    0.09785      0.00000     0.40075    0.00140     0.40215
      H   17    0.09971      0.00000     0.39927    0.00102     0.40029
      H   18    0.10228      0.00000     0.39624    0.00148     0.39772
      H   19    0.10240      0.00000     0.39523    0.00237     0.39760
      H   20    0.08514      0.00000     0.41278    0.00208     0.41486
      H   21    0.18079      0.00000     0.31399    0.00522     0.31921
      H   22    0.07585      0.00000     0.42181    0.00234     0.42415
      H   23    0.09653      0.00000     0.40202    0.00145     0.40347
      H   24    0.10140      0.00000     0.39689    0.00170     0.39860
      H   25    0.10307      0.00000     0.39567    0.00125     0.39693
      H   26    0.09574      0.00000     0.40301    0.00125     0.40426
      H   27    0.12258      0.00000     0.37615    0.00127     0.37742
      H   28    0.12899      0.00000     0.36835    0.00267     0.37101
 =======================================================================
   * Total *   -0.00000     13.99402    35.83088    0.17510    50.00000

 Normal termination of Gaussian 16 at Thu Dec 10 10:05:16 2020.
