 Gaussian 16, Revision A.03,

 -----------------------------------------------------------
 # opt freq B3LYP/6-31G(d) empiricaldispersion=gd3bj scf=xqc
 -----------------------------------------------------------

 -------------------------------
 CID_105857657_JID_8330_neutraal
 -------------------------------
 Symbolic Z-matrix:
 Charge =  0 Multiplicity = 1

 SCF Done:  E(RB3LYP) =  -1159.36334181     A.U. after   14 cycles
 SCF Done:  E(RB3LYP) =  -1159.38014130     A.U. after   12 cycles
 SCF Done:  E(RB3LYP) =  -1159.38156055     A.U. after   12 cycles
 SCF Done:  E(RB3LYP) =  -1159.38245173     A.U. after   12 cycles
 SCF Done:  E(RB3LYP) =  -1159.38271129     A.U. after   11 cycles
 SCF Done:  E(RB3LYP) =  -1159.38289607     A.U. after   11 cycles
 SCF Done:  E(RB3LYP) =  -1159.38294169     A.U. after   10 cycles
 SCF Done:  E(RB3LYP) =  -1159.38297512     A.U. after   10 cycles
 SCF Done:  E(RB3LYP) =  -1159.38301760     A.U. after   11 cycles
 SCF Done:  E(RB3LYP) =  -1159.38302310     A.U. after   10 cycles
 SCF Done:  E(RB3LYP) =  -1159.38339760     A.U. after   11 cycles
 SCF Done:  E(RB3LYP) =  -1159.38339807     A.U. after    8 cycles
 SCF Done:  E(RB3LYP) =  -1159.38339830     A.U. after    7 cycles
 SCF Done:  E(RB3LYP) =  -1159.38339828     A.U. after    9 cycles
 SCF Done:  E(RB3LYP) =  -1159.38339841     A.U. after    8 cycles
 Optimization completed.
    -- Stationary point found.
 Normal termination of Gaussian 16 at Fri Dec 11 20:26:48 2020.

 --------------------------------------------------------------------
 #N Geom=AllCheck Guess=TCheck SCRF=Check GenChk RB3LYP/6-31G(d) Freq
 --------------------------------------------------------------------

 Structure from the checkpoint file:  "JID_8330.chk"
 -------------------------------
 CID_105857657_JID_8330_neutraal
 -------------------------------
 Charge =  0 Multiplicity = 1

 SCF Done:  E(RB3LYP) =  -1159.38339841     A.U. after    1 cycles

  Exact polarizability: 207.175  -5.893 214.573 -18.661  -1.998 105.784
 Approx polarizability: 298.980 -10.991 341.387 -45.053  -3.564 167.014

                      1                      2                      3
                      A                      A                      A
 Frequencies --     17.6643                37.3849                53.2964
 Red. masses --      5.6085                 3.4622                 2.5087
 Frc consts  --      0.0010                 0.0029                 0.0042
 IR Inten    --      0.7012                 0.0963                 1.3561

                      4                      5                      6
                      A                      A                      A
 Frequencies --     84.7184                90.3594               113.5213
 Red. masses --      2.3216                 3.9683                 3.3067
 Frc consts  --      0.0098                 0.0191                 0.0251
 IR Inten    --      2.1676                 3.8408                 1.3014

                      7                      8                      9
                      A                      A                      A
 Frequencies --    132.6042               158.5005               202.8819
 Red. masses --      1.5130                 2.1617                 4.1377
 Frc consts  --      0.0157                 0.0320                 0.1003
 IR Inten    --      0.1959                 0.4876                 1.9090

                     10                     11                     12
                      A                      A                      A
 Frequencies --    210.9654               221.8642               224.9924
 Red. masses --      4.2057                 3.4299                 1.7253
 Frc consts  --      0.1103                 0.0995                 0.0515
 IR Inten    --      1.7023                 0.1919                 2.6644

                     13                     14                     15
                      A                      A                      A
 Frequencies --    269.3900               286.4898               325.2604
 Red. masses --      4.2078                 3.9534                 2.8597
 Frc consts  --      0.1799                 0.1912                 0.1783
 IR Inten    --      1.8760                 4.5865                 3.2625

                     16                     17                     18
                      A                      A                      A
 Frequencies --    349.5477               357.1174               397.7837
 Red. masses --      4.0296                 5.3983                 3.6156
 Frc consts  --      0.2901                 0.4056                 0.3371
 IR Inten    --      4.2281                 4.8687                 7.1473

                     19                     20                     21
                      A                      A                      A
 Frequencies --    430.4768               454.7689               469.7785
 Red. masses --      3.7315                 4.1611                 2.7641
 Frc consts  --      0.4074                 0.5070                 0.3594
 IR Inten    --      7.8806                11.5877                72.2843

                     22                     23                     24
                      A                      A                      A
 Frequencies --    470.7743               486.0042               516.1216
 Red. masses --      1.3575                 1.4727                 2.3086
 Frc consts  --      0.1773                 0.2049                 0.3623
 IR Inten    --    162.0773               182.8588                40.6777

                     25                     26                     27
                      A                      A                      A
 Frequencies --    544.9468               548.9097               567.8249
 Red. masses --      1.7005                 1.8993                 3.3139
 Frc consts  --      0.2975                 0.3372                 0.6295
 IR Inten    --     15.6542                20.4270                 9.1877

                     28                     29                     30
                      A                      A                      A
 Frequencies --    607.7351               626.8021               637.1974
 Red. masses --      5.0850                 4.4387                 7.4354
 Frc consts  --      1.1065                 1.0275                 1.7787
 IR Inten    --     20.9397                 7.1925                16.8261

                     31                     32                     33
                      A                      A                      A
 Frequencies --    669.6418               709.1352               725.3483
 Red. masses --      5.3879                 4.8104                 8.5652
 Frc consts  --      1.4235                 1.4252                 2.6551
 IR Inten    --      3.6199                11.9106                 6.0017

                     34                     35                     36
                      A                      A                      A
 Frequencies --    788.3192               799.2929               822.4166
 Red. masses --      4.8004                 2.4824                 1.2671
 Frc consts  --      1.7576                 0.9344                 0.5049
 IR Inten    --     43.4488                 1.4777                 1.6422

                     37                     38                     39
                      A                      A                      A
 Frequencies --    827.9238               860.3256               921.8120
 Red. masses --      1.6485                 5.9248                 2.7865
 Frc consts  --      0.6658                 2.5838                 1.3951
 IR Inten    --      5.2180                 6.0689                 7.6735

                     40                     41                     42
                      A                      A                      A
 Frequencies --    948.2708               958.3582              1000.2713
 Red. masses --      6.6295                 3.0019                 3.2214
 Frc consts  --      3.5123                 1.6244                 1.8991
 IR Inten    --     33.0751                 6.5210                24.6384

                     43                     44                     45
                      A                      A                      A
 Frequencies --   1022.3770              1040.6174              1052.2894
 Red. masses --      1.6544                 1.5325                 4.1624
 Frc consts  --      1.0189                 0.9777                 2.7156
 IR Inten    --      1.8404                 3.6395                12.7983

                     46                     47                     48
                      A                      A                      A
 Frequencies --   1074.3502              1080.2377              1114.2274
 Red. masses --      1.4024                 3.1504                 1.8295
 Frc consts  --      0.9537                 2.1660                 1.3382
 IR Inten    --      1.2505                13.0205                32.9731

                     49                     50                     51
                      A                      A                      A
 Frequencies --   1130.9313              1139.5114              1162.8299
 Red. masses --      2.5240                 2.2692                 2.3252
 Frc consts  --      1.9020                 1.7360                 1.8524
 IR Inten    --     16.2104                68.1669                44.7477

                     52                     53                     54
                      A                      A                      A
 Frequencies --   1187.5667              1223.6671              1232.7144
 Red. masses --      1.2849                 1.7799                 1.5727
 Frc consts  --      1.0676                 1.5703                 1.4081
 IR Inten    --      1.6383                 2.5977                 0.2014

                     55                     56                     57
                      A                      A                      A
 Frequencies --   1238.9192              1250.4008              1261.0687
 Red. masses --      1.7821                 2.0256                 1.8507
 Frc consts  --      1.6117                 1.8659                 1.7341
 IR Inten    --     33.6153                64.5190                10.3347

                     58                     59                     60
                      A                      A                      A
 Frequencies --   1279.1428              1290.9296              1314.6429
 Red. masses --      1.2375                 1.6433                 1.9151
 Frc consts  --      1.1930                 1.6135                 1.9501
 IR Inten    --     27.4785                89.4847                13.6422

                     61                     62                     63
                      A                      A                      A
 Frequencies --   1330.7005              1342.6915              1375.8622
 Red. masses --      3.5057                 5.1479                 2.8382
 Frc consts  --      3.6575                 5.4681                 3.1655
 IR Inten    --      2.5224                33.4897                33.1977

                     64                     65                     66
                      A                      A                      A
 Frequencies --   1387.9980              1432.2365              1444.1308
 Red. masses --      1.4981                 1.3562                 1.2707
 Frc consts  --      1.7005                 1.6391                 1.5614
 IR Inten    --     94.1633                29.4027                13.9216

                     67                     68                     69
                      A                      A                      A
 Frequencies --   1448.1029              1490.9578              1499.1588
 Red. masses --      1.5349                 4.3295                 1.0954
 Frc consts  --      1.8964                 5.6704                 1.4505
 IR Inten    --      2.7573               309.6606                 1.1785

                     70                     71                     72
                      A                      A                      A
 Frequencies --   1505.1506              1506.7768              1522.3613
 Red. masses --      1.0423                 1.1691                 1.1097
 Frc consts  --      1.3913                 1.5639                 1.5152
 IR Inten    --      6.5286                 0.2964                 9.9109

                     73                     74                     75
                      A                      A                      A
 Frequencies --   1525.1784              1529.2686              1538.9076
 Red. masses --      1.0623                 1.1194                 1.0630
 Frc consts  --      1.4559                 1.5424                 1.4832
 IR Inten    --      6.7811                 5.7832                16.7587

                     76                     77                     78
                      A                      A                      A
 Frequencies --   1557.7844              1587.9088              1628.0144
 Red. masses --      3.0028                 7.8387                 4.6219
 Frc consts  --      4.2933                11.6452                 7.2176
 IR Inten    --    231.3374               548.4334               354.9170

                     79                     80                     81
                      A                      A                      A
 Frequencies --   1632.5793              1662.9326              3013.8816
 Red. masses --      6.3537                 1.5045                 1.0366
 Frc consts  --      9.9777                 2.4513                 5.5475
 IR Inten    --     60.1332               403.8197                36.9466

                     82                     83                     84
                      A                      A                      A
 Frequencies --   3040.1094              3062.5886              3074.2726
 Red. masses --      1.0363                 1.0960                 1.0734
 Frc consts  --      5.6433                 6.0565                 5.9770
 IR Inten    --     51.5092                23.8671                34.7587

                     85                     86                     87
                      A                      A                      A
 Frequencies --   3079.6040              3089.8791              3090.5464
 Red. masses --      1.0803                 1.0790                 1.1015
 Frc consts  --      6.0363                 6.0693                 6.1990
 IR Inten    --     17.7956                16.8848                17.0656

                     88                     89                     90
                      A                      A                      A
 Frequencies --   3094.6432              3124.4718              3138.6775
 Red. masses --      1.0668                 1.1008                 1.1045
 Frc consts  --      6.0193                 6.3315                 6.4109
 IR Inten    --     27.7987                14.7264                36.3573

                     91                     92                     93
                      A                      A                      A
 Frequencies --   3141.7127              3149.2654              3249.8636
 Red. masses --      1.0986                 1.1074                 1.0910
 Frc consts  --      6.3887                 6.4713                 6.7890
 IR Inten    --     39.3053                25.3629                13.4049

                     94                     95                     96
                      A                      A                      A
 Frequencies --   3586.7969              3592.2999              3712.4129
 Red. masses --      1.0753                 1.0458                 1.1023
 Frc consts  --      8.1510                 7.9516                 8.9504
 IR Inten    --     28.9277                66.3576                29.9255

 - Thermochemistry -
 -------------------
 Temperature   298.150 Kelvin.  Pressure   1.00000 Atm.
 Atom     1 has atomic number  6 and mass  12.00000

 Molecular mass:   264.10448 amu.
 Principal axes and moments of inertia in atomic units:
                           1         2         3
     Eigenvalues --  3376.300157915.52574**********
           X            0.99994  -0.01018   0.00509
           Y            0.01021   0.99993  -0.00668
           Z           -0.00502   0.00673   0.99996
 This molecule is an asymmetric top.
 Rotational symmetry number  1.
 Warning -- assumption of classical behavior for rotation
           may cause significant error
 Rotational temperatures (Kelvin)      0.02565     0.01094     0.00828
 Rotational constants (GHZ):           0.53453     0.22800     0.17251
 Zero-point vibrational energy     730995.8 (Joules/Mol)
                                  174.71218 (Kcal/Mol)
 Warning -- explicit consideration of  28 degrees of freedom as
           vibrations may cause significant error
 Vibrational temperatures:     25.41    53.79    76.68   121.89   130.01
          (Kelvin)            163.33   190.79   228.05   291.90   303.53
                              319.21   323.71   387.59   412.19   467.98
                              502.92   513.81   572.32   619.36   654.31
                              675.91   677.34   699.25   742.58   784.06
                              789.76   816.97   874.40   901.83   916.78
                              963.47  1020.29  1043.61  1134.22  1150.00
                             1183.27  1191.20  1237.82  1326.28  1364.35
                             1378.86  1439.17  1470.97  1497.22  1514.01
                             1545.75  1554.22  1603.12  1627.16  1639.50
                             1673.05  1708.64  1760.58  1773.60  1782.53
                             1799.05  1814.40  1840.40  1857.36  1891.48
                             1914.58  1931.83  1979.56  1997.02  2060.67
                             2077.78  2083.50  2145.16  2156.96  2165.58
                             2167.92  2190.34  2194.39  2200.28  2214.14
                             2241.30  2284.65  2342.35  2348.92  2392.59
                             4336.30  4374.04  4406.38  4423.19  4430.86
                             4445.65  4446.61  4452.50  4495.42  4515.86
                             4520.22  4531.09  4675.83  5160.60  5168.52
                             5341.33

 Zero-point correction=                           0.278422 (Hartree/Particle)
 Thermal correction to Energy=                    0.295671
 Thermal correction to Enthalpy=                  0.296615
 Thermal correction to Gibbs Free Energy=         0.231957
 Sum of electronic and zero-point Energies=          -1159.104977
 Sum of electronic and thermal Energies=             -1159.087728
 Sum of electronic and thermal Enthalpies=           -1159.086784
 Sum of electronic and thermal Free Energies=        -1159.151442

                     E (Thermal)             CV                S
                      KCal/Mol        Cal/Mol-Kelvin    Cal/Mol-Kelvin
 Total                  185.536             65.782            136.085
 Electronic               0.000              0.000              0.000
 Translational            0.889              2.981             42.613
 Rotational               0.889              2.981             33.991
 Vibrational            183.759             59.821             59.481
 Vibration     1          0.593              1.986              6.881
 Vibration     2          0.594              1.982              5.393
 Vibration     3          0.596              1.976              4.691
 Vibration     4          0.601              1.960              3.778
 Vibration     5          0.602              1.956              3.652
 Vibration     6          0.607              1.938              3.208
 Vibration     7          0.613              1.921              2.908
 Vibration     8          0.621              1.893              2.568
 Vibration     9          0.639              1.836              2.107
 Vibration    10          0.643              1.824              2.035
 Vibration    11          0.648              1.808              1.944
 Vibration    12          0.650              1.803              1.919
 Vibration    13          0.674              1.729              1.600
 Vibration    14          0.684              1.699              1.495
 Vibration    15          0.709              1.625              1.284
 Vibration    16          0.727              1.576              1.168
 Vibration    17          0.732              1.561              1.135
 Vibration    18          0.764              1.475              0.971
 Vibration    19          0.792              1.404              0.857
 Vibration    20          0.813              1.350              0.781
 Vibration    21          0.827              1.317              0.738
 Vibration    22          0.828              1.315              0.735
 Vibration    23          0.842              1.281              0.694
 Vibration    24          0.871              1.214              0.619
 Vibration    25          0.900              1.151              0.555
 Vibration    26          0.904              1.142              0.546
 Vibration    27          0.924              1.101              0.508
 Vibration    28          0.967              1.015              0.437

 Optimization completed.
    -- Stationary point found.
 Normal termination of Gaussian 16 at Fri Dec 11 20:42:48 2020.

 ----------------------------------------------------------------------
 # B3LYP/6-311++G(d,p) empiricaldispersion=gd3bj scf=xqc pop=npa geom=c
 heck
 ----------------------------------------------------------------------

 ---------------------------------------
 CID_105857657_JID_8330_Energie_neutraal
 ---------------------------------------
 Structure from the checkpoint file:  "JID_8330.chk"
 Charge =  0 Multiplicity = 1

 SCF Done:  E(RB3LYP) =  -1159.62266298     A.U. after   15 cycles
 Normal termination of Gaussian 16 at Fri Dec 11 20:50:02 2020.

 ----------------------------------------------------------------------
 # B3LYP/6-311++G(d,p) empiricaldispersion=gd3bj scf=xqc pop=npa geom=c
 heck
 ----------------------------------------------------------------------

 -------------------------------------
 CID_105857657_JID_8330_Energie_kation
 -------------------------------------
 Structure from the checkpoint file:  "JID_8330.chk"
 Charge =  1 Multiplicity = 2

 SCF Done:  E(UB3LYP) =  -1159.36053421     A.U. after   24 cycles
 Normal termination of Gaussian 16 at Fri Dec 11 21:06:26 2020.
 Gaussian 16:  ES64L-G16RevA.03 25-Dec-2016

 ----------------------------------------------------------------------
 # B3LYP/6-311++G(d,p) empiricaldispersion=gd3bj scf=xqc pop=npa geom=c
 heck
 ----------------------------------------------------------------------

 ------------------------------------
 CID_105857657_JID_8330_Energie_anion
 ------------------------------------
 Structure from the checkpoint file:  "JID_8330.chk"
 Charge = -1 Multiplicity = 2

                         Standard orientation:
 ---------------------------------------------------------------------
 Center     Atomic      Atomic             Coordinates (Angstroms)
 Number     Number       Type             X           Y           Z
 ---------------------------------------------------------------------
      1          6           0       -2.069390    3.781736   -0.066064
      2          6           0       -1.966293    2.289345   -0.050396
      3          6           0       -0.899343    1.520658   -0.394831
      4          6           0       -1.130967    0.103402   -0.260986
      5          6           0       -0.350003   -1.059901   -0.501752
      6          7           0       -0.859014   -2.285448   -0.300698
      7          6           0       -2.125701   -2.384207    0.135397
      8          7           0       -2.971123   -1.375606    0.402382
      9          6           0       -2.439641   -0.173739    0.195752
     10         16           0       -3.346652    1.309533    0.462997
     11          7           0       -2.590710   -3.654454    0.371830
     12          7           0        0.937896   -1.057174   -0.963476
     13          6           0        1.862175    0.050535   -0.935934
     14          6           0        2.314500    0.653241    0.428373
     15          6           0        3.736803    0.763321   -0.181244
     16          6           0        3.336054   -0.309233   -1.231494
     17          8           0        4.898031    0.626635    0.598502
     18          6           0        4.984743   -0.524262    1.414419
     19          1           0       -1.125533    4.215626   -0.411203
     20          1           0       -2.282666    4.186318    0.931219
     21          1           0       -2.866039    4.128733   -0.735859
     22          1           0        0.025270    1.965218   -0.737183
     23          1           0       -3.594955   -3.745129    0.428297
     24          1           0       -2.093216   -4.398182   -0.095741
     25          1           0        1.341298   -1.985944   -0.953056
     26          1           0        1.522109    0.835429   -1.618256
     27          1           0        1.830983    1.564291    0.788620
     28          1           0        2.252279   -0.115894    1.203566
     29          1           0        3.856006    1.732881   -0.673948
     30          1           0        3.558528   -1.320541   -0.873001
     31          1           0        3.705204   -0.203099   -2.254537
     32          1           0        4.199715   -0.552016    2.182869
     33          1           0        4.939671   -1.456898    0.833640
     34          1           0        5.956588   -0.472997    1.910896
 ---------------------------------------------------------------------

 SCF Done:  E(UB3LYP) =  -1159.61214344     A.U. after   33 cycles
 SCF Done:  E(UB3LYP) =  -1159.61214344     a.u. after    1 cycles

 The electronic state is 2-A.
 Alpha  occ. eigenvalues --  -88.78069 -19.03920 -14.24682 -14.24068 -14.21282
 Alpha  occ. eigenvalues --  -14.21053 -10.18419 -10.17066 -10.15025 -10.13547
 Alpha  occ. eigenvalues --  -10.12905 -10.12190 -10.11735 -10.09425 -10.08806
 Alpha  occ. eigenvalues --  -10.08764 -10.08521 -10.07939  -7.86728  -5.83024
 Alpha  occ. eigenvalues --   -5.82683  -5.82268  -0.95108  -0.91818  -0.86845
 Alpha  occ. eigenvalues --   -0.82299  -0.79436  -0.77069  -0.74523  -0.67821
 Alpha  occ. eigenvalues --   -0.65271  -0.62677  -0.60745  -0.58573  -0.56988
 Alpha  occ. eigenvalues --   -0.53956  -0.52127  -0.48855  -0.47271  -0.46022
 Alpha  occ. eigenvalues --   -0.43925  -0.41956  -0.41065  -0.40345  -0.39459
 Alpha  occ. eigenvalues --   -0.37291  -0.37055  -0.36731  -0.35760  -0.33879
 Alpha  occ. eigenvalues --   -0.33737  -0.33090  -0.31383  -0.31013  -0.30412
 Alpha  occ. eigenvalues --   -0.29303  -0.28114  -0.27790  -0.27137  -0.25906
 Alpha  occ. eigenvalues --   -0.25428  -0.24392  -0.22654  -0.21696  -0.20329
 Alpha  occ. eigenvalues --   -0.17175  -0.17036  -0.16706  -0.15639  -0.11306
 Alpha  occ. eigenvalues --    0.03934
 Alpha virt. eigenvalues --    0.05494   0.05816   0.06469   0.06695   0.06902
 Alpha virt. eigenvalues --    0.07694   0.08679   0.09110   0.09348   0.09508
 Alpha virt. eigenvalues --    0.10309   0.10622   0.10720   0.11209   0.11510

  Beta  occ. eigenvalues --  -88.78067 -19.03917 -14.24674 -14.24058 -14.21264
  Beta  occ. eigenvalues --  -14.21040 -10.18419 -10.17039 -10.15002 -10.13534
  Beta  occ. eigenvalues --  -10.12893 -10.12151 -10.11737 -10.09430 -10.08766
  Beta  occ. eigenvalues --  -10.08748 -10.08494 -10.07924  -7.86725  -5.83022
  Beta  occ. eigenvalues --   -5.82680  -5.82265  -0.95093  -0.91792  -0.86817
  Beta  occ. eigenvalues --   -0.82274  -0.79409  -0.77051  -0.74500  -0.67792
  Beta  occ. eigenvalues --   -0.65243  -0.62627  -0.60696  -0.58520  -0.56945
  Beta  occ. eigenvalues --   -0.53926  -0.52086  -0.48818  -0.47219  -0.45986
  Beta  occ. eigenvalues --   -0.43894  -0.41929  -0.40999  -0.40316  -0.39439
  Beta  occ. eigenvalues --   -0.37244  -0.37030  -0.36697  -0.35711  -0.33845
  Beta  occ. eigenvalues --   -0.33704  -0.33055  -0.31347  -0.30979  -0.30370
  Beta  occ. eigenvalues --   -0.29263  -0.28076  -0.27755  -0.27084  -0.25864
  Beta  occ. eigenvalues --   -0.25400  -0.24342  -0.22612  -0.21661  -0.20290
  Beta  occ. eigenvalues --   -0.17147  -0.17015  -0.16698  -0.15601  -0.11261
  Beta virt. eigenvalues --    0.05758   0.06260   0.06601   0.06633   0.06840
  Beta virt. eigenvalues --    0.07682   0.08142   0.09025   0.09249   0.09675
  Beta virt. eigenvalues --    0.09951   0.10533   0.10928   0.11008   0.11447

 Mulliken charges and spin densities:
               1          2
     1  C    2.086969  -2.338326
     2  C   -1.007346   0.913745
     3  C   -1.642296   0.616724
     4  C    1.948320  -0.927503
     5  C   -1.013206   0.415072
     6  N   -0.204302   0.063085
     7  C   -0.052124   0.325548
     8  N   -0.120376   0.012436
     9  C    0.564556  -0.167240
    10  S   -0.489055   0.011187
    11  N   -0.296541   0.008883
    12  N    0.028223  -0.020319
    13  C   -0.956979   0.732838
    14  C    1.656970  -1.803752
    15  C   -2.092397   1.548803
    16  C    1.616163  -1.990872
    17  O   -0.080308   0.007643
    18  C    0.901841  -1.173622
    19  H   -0.641202   0.820044
    20  H   -0.087520   0.244644
    21  H   -0.115851   0.273033
    22  H    0.223790  -0.167439
    23  H    0.176895   0.086162
    24  H    0.117203   0.141919
    25  H    0.070337   0.237110
    26  H   -0.356247   0.615318
    27  H    0.097850   0.062997
    28  H   -0.000139   0.196129
    29  H   -0.544883   0.764581
    30  H    0.013337   0.116291
    31  H   -0.106066   0.268559
    32  H   -0.146537   0.269294
    33  H   -0.397542   0.530849
    34  H   -0.151536   0.306179
 Sum of Mulliken charges =  -1.00000   1.00000

 Dipole moment (field-independent basis, Debye):
    X=             -5.1361    Y=             -3.9106    Z=              0.1216  Tot=              6.4566
 Quadrupole moment (field-independent basis, Debye-Ang):
   XX=           -199.3396   YY=           -174.3584   ZZ=           -147.9928
   XY=              3.7319   XZ=              0.0385   YZ=              8.1620

 Summary of Natural Population Analysis:

                                       Natural Population
                Natural  -----------------------------------------------
    Atom  No    Charge         Core      Valence    Rydberg      Total
 -----------------------------------------------------------------------
      C    1   -0.29956      0.99961     2.29288    0.00707     3.29956
      C    2   -0.08765      0.99950     2.07561    0.01254     3.08765
      C    3   -0.11890      0.99943     2.10894    0.01053     3.11890
      C    4   -0.11288      0.99941     2.10536    0.00811     3.11288
      C    5    0.24146      0.99951     1.74530    0.01372     2.75854
      N    6   -0.29891      0.99964     2.78884    0.01043     3.79891
      C    7    0.29829      0.99963     1.68393    0.01815     2.70171
      N    8   -0.29420      0.99962     2.78269    0.01189     3.79420
      C    9    0.05720      0.99946     1.92649    0.01685     2.94280
      S   10    0.18469      4.99940     2.79680    0.01911     7.81531
      N   11   -0.39336      0.99970     2.88405    0.00961     3.89336
      N   12   -0.29824      0.99965     2.78853    0.01007     3.79824
      C   13   -0.01466      0.99958     2.00246    0.01262     3.01466
      C   14   -0.20605      0.99960     2.19853    0.00791     3.20605
      C   15    0.06992      0.99952     1.91501    0.01555     2.93008
      C   16   -0.19832      0.99961     2.18996    0.00875     3.19832
      O   17   -0.29464      0.99987     3.28446    0.01031     4.29464
      C   18   -0.10066      0.99960     2.09157    0.00948     3.10066
      H   19    0.11337      0.00000     0.38468    0.00194     0.38663
      H   20    0.10530      0.00000     0.39353    0.00116     0.39470
      H   21    0.10484      0.00000     0.39403    0.00114     0.39516
      H   22    0.11110      0.00000     0.38688    0.00202     0.38890
      H   23    0.19136      0.00000     0.30685    0.00178     0.30864
      H   24    0.19241      0.00000     0.30581    0.00178     0.30759
      H   25    0.19415      0.00000     0.30230    0.00355     0.30585
      H   26    0.09897      0.00000     0.39854    0.00249     0.40103
      H   27    0.10534      0.00000     0.39343    0.00123     0.39466
      H   28    0.10161      0.00000     0.39672    0.00167     0.39839
      H   29    0.09455      0.00000     0.40328    0.00217     0.40545
      H   30    0.09863      0.00000     0.39949    0.00189     0.40137
      H   31    0.10361      0.00000     0.39509    0.00130     0.39639
      H   32    0.07981      0.00000     0.41880    0.00140     0.42019
      H   33    0.08009      0.00000     0.41813    0.00177     0.41991
      H   34    0.09133      0.00000     0.40761    0.00106     0.40867
 =======================================================================
   * Total *    0.00000     21.99235    47.76658    0.24107    70.00000

 Normal termination of Gaussian 16 at Fri Dec 11 21:29:50 2020.
