 Gaussian 16, Revision A.03,

 -----------------------------------------------------------
 # opt freq B3LYP/6-31G(d) empiricaldispersion=gd3bj scf=xqc
 -----------------------------------------------------------

 ------------------------------
 CID_61841479_JID_7100_neutraal
 ------------------------------
 Symbolic Z-matrix:
 Charge =  0 Multiplicity = 1

 SCF Done:  E(RB3LYP) =  -1126.29353052     A.U. after   16 cycles
 SCF Done:  E(RB3LYP) =  -1126.29954065     A.U. after   14 cycles
 SCF Done:  E(RB3LYP) =  -1126.29733994     A.U. after   14 cycles
 SCF Done:  E(RB3LYP) =  -1126.29586222     A.U. after   13 cycles
 SCF Done:  E(RB3LYP) =  -1126.29109340     A.U. after   13 cycles
 SCF Done:  E(RB3LYP) =  -1126.29981356     A.U. after   10 cycles
 SCF Done:  E(RB3LYP) =  -1126.30199350     A.U. after   13 cycles
 SCF Done:  E(RB3LYP) =  -1126.30212287     A.U. after   12 cycles
 SCF Done:  E(RB3LYP) =  -1126.30274441     A.U. after   13 cycles
 SCF Done:  E(RB3LYP) =  -1126.30276885     A.U. after   12 cycles
 SCF Done:  E(RB3LYP) =  -1126.31532720     A.U. after   11 cycles
 SCF Done:  E(RB3LYP) =  -1126.31533256     A.U. after    9 cycles
 SCF Done:  E(RB3LYP) =  -1126.31533418     A.U. after   10 cycles
 SCF Done:  E(RB3LYP) =  -1126.31533460     A.U. after    8 cycles
 SCF Done:  E(RB3LYP) =  -1126.31533476     A.U. after    7 cycles
 Optimization completed.
    -- Stationary point found.
 Normal termination of Gaussian 16 at Fri Dec 11 12:29:26 2020.

 --------------------------------------------------------------------
 #N Geom=AllCheck Guess=TCheck SCRF=Check GenChk RB3LYP/6-31G(d) Freq
 --------------------------------------------------------------------

 Structure from the checkpoint file:  "JID_7100.chk"
 ------------------------------
 CID_61841479_JID_7100_neutraal
 ------------------------------
 Charge =  0 Multiplicity = 1

 SCF Done:  E(RB3LYP) =  -1126.31533476     A.U. after    1 cycles

  Exact polarizability: 181.469  -5.622 140.966   1.011   3.777 143.625
 Approx polarizability: 234.315  -7.917 236.512  -7.435  22.358 245.734

                      1                      2                      3
                      A                      A                      A
 Frequencies --     33.0137                39.1586                43.8126
 Red. masses --      6.1330                 5.0071                 5.0572
 Frc consts  --      0.0039                 0.0045                 0.0057
 IR Inten    --      0.1291                 0.2124                 0.6633

                      4                      5                      6
                      A                      A                      A
 Frequencies --     56.9340                88.6822               139.0417
 Red. masses --      5.6864                 5.9863                 1.9572
 Frc consts  --      0.0109                 0.0277                 0.0223
 IR Inten    --      2.6983                 5.6303                 0.2041

                      7                      8                      9
                      A                      A                      A
 Frequencies --    144.8829               159.0857               184.5039
 Red. masses --      2.5751                 4.2086                 4.1744
 Frc consts  --      0.0318                 0.0628                 0.0837
 IR Inten    --      0.5239                 1.4030                 1.3749

                     10                     11                     12
                      A                      A                      A
 Frequencies --    189.6766               201.9160               207.5786
 Red. masses --      4.4759                 2.2632                 2.6925
 Frc consts  --      0.0949                 0.0544                 0.0684
 IR Inten    --      1.9384                 1.9118                 0.5882

                     13                     14                     15
                      A                      A                      A
 Frequencies --    224.7293               253.6914               278.6669
 Red. masses --      1.0877                 3.9547                 3.0623
 Frc consts  --      0.0324                 0.1500                 0.1401
 IR Inten    --      0.0353                 2.3435                 1.8121

                     16                     17                     18
                      A                      A                      A
 Frequencies --    322.3586               330.8792               354.9399
 Red. masses --      2.6051                 2.4597                 2.4595
 Frc consts  --      0.1595                 0.1587                 0.1826
 IR Inten    --      5.1821                 0.2909                 2.1266

                     19                     20                     21
                      A                      A                      A
 Frequencies --    381.0777               391.5321               412.8713
 Red. masses --      3.7361                 3.5163                 3.5770
 Frc consts  --      0.3197                 0.3176                 0.3593
 IR Inten    --      7.5087                 6.3899                 4.4552

                     22                     23                     24
                      A                      A                      A
 Frequencies --    476.5094               490.6121               541.0199
 Red. masses --      2.8049                 1.3066                 3.5739
 Frc consts  --      0.3752                 0.1853                 0.6163
 IR Inten    --     29.6599               197.4086                18.6330

                     25                     26                     27
                      A                      A                      A
 Frequencies --    591.4470               601.4932               612.8407
 Red. masses --      3.6264                 2.6025                 3.3062
 Frc consts  --      0.7474                 0.5548                 0.7316
 IR Inten    --     36.1916                26.7219                 4.3988

                     28                     29                     30
                      A                      A                      A
 Frequencies --    634.8404               650.4572               672.4360
 Red. masses --      1.8140                 2.2177                 3.1339
 Frc consts  --      0.4307                 0.5528                 0.8349
 IR Inten    --      2.4187                 0.8191                22.7447

                     31                     32                     33
                      A                      A                      A
 Frequencies --    698.2140               737.8713               740.2848
 Red. masses --      3.1112                 1.4540                 1.4773
 Frc consts  --      0.8936                 0.4664                 0.4770
 IR Inten    --     20.4028                15.8644                17.8958

                     34                     35                     36
                      A                      A                      A
 Frequencies --    755.7341               790.2038               804.0201
 Red. masses --      3.4084                 1.8482                 1.3578
 Frc consts  --      1.1469                 0.6799                 0.5172
 IR Inten    --     14.3790                62.3861                27.3238

                     37                     38                     39
                      A                      A                      A
 Frequencies --    817.6615               868.5391               876.9723
 Red. masses --      1.2801                 1.3145                 2.6727
 Frc consts  --      0.5042                 0.5842                 1.2111
 IR Inten    --     19.6016                 0.9432                10.5747

                     40                     41                     42
                      A                      A                      A
 Frequencies --    907.9672               921.8075               942.7469
 Red. masses --      5.4257                 2.5155                 2.9457
 Frc consts  --      2.6354                 1.2594                 1.5425
 IR Inten    --      2.1949                 5.5994                23.3444

                     43                     44                     45
                      A                      A                      A
 Frequencies --    963.5019               985.6934               993.3092
 Red. masses --      2.0557                 2.0275                 2.0995
 Frc consts  --      1.1244                 1.1606                 1.2205
 IR Inten    --      9.4931                22.6764                 4.3989

                     46                     47                     48
                      A                      A                      A
 Frequencies --   1043.4586              1046.4739              1062.0598
 Red. masses --      1.4618                 1.7950                 2.3076
 Frc consts  --      0.9377                 1.1581                 1.5336
 IR Inten    --     19.3986                12.2442                 1.3998

                     49                     50                     51
                      A                      A                      A
 Frequencies --   1101.1861              1110.1858              1124.8619
 Red. masses --      1.8496                 3.0192                 3.0544
 Frc consts  --      1.3214                 2.1925                 2.2770
 IR Inten    --     16.8338                 9.5074                 9.2138

                     52                     53                     54
                      A                      A                      A
 Frequencies --   1168.9770              1175.6554              1187.6841
 Red. masses --      2.0302                 2.3163                 1.8686
 Frc consts  --      1.6346                 1.8863                 1.5530
 IR Inten    --      1.8877                 6.9226                20.0886

                     55                     56                     57
                      A                      A                      A
 Frequencies --   1203.8098              1235.0387              1260.9261
 Red. masses --      2.7108                 1.8383                 3.0608
 Frc consts  --      2.3145                 1.6520                 2.8673
 IR Inten    --      3.4900                29.2628                 1.3019

                     58                     59                     60
                      A                      A                      A
 Frequencies --   1291.4541              1305.4893              1338.8149
 Red. masses --      1.6947                 1.7358                 1.1971
 Frc consts  --      1.6653                 1.7430                 1.2642
 IR Inten    --     50.7663                44.1093                22.7470

                     61                     62                     63
                      A                      A                      A
 Frequencies --   1352.8354              1375.1822              1382.1546
 Red. masses --      1.3158                 1.7101                 1.4755
 Frc consts  --      1.4188                 1.9054                 1.6608
 IR Inten    --     16.7903               143.6230                27.0785

                     64                     65                     66
                      A                      A                      A
 Frequencies --   1402.2180              1408.4836              1416.5901
 Red. masses --      1.7348                 2.1024                 1.6754
 Frc consts  --      2.0097                 2.4574                 1.9809
 IR Inten    --     37.2801                82.7975                49.5707

                     67                     68                     69
                      A                      A                      A
 Frequencies --   1435.5165              1436.0784              1443.2019
 Red. masses --      2.2106                 1.3588                 1.2346
 Frc consts  --      2.6840                 1.6510                 1.5150
 IR Inten    --      1.3953                 5.3718                 9.2938

                     70                     71                     72
                      A                      A                      A
 Frequencies --   1498.4335              1506.2641              1512.8955
 Red. masses --      1.5208                 1.0890                 1.0781
 Frc consts  --      2.0118                 1.4557                 1.4538
 IR Inten    --     51.7972                 7.7166                 8.6193

                     73                     74                     75
                      A                      A                      A
 Frequencies --   1516.3584              1532.5231              1535.3193
 Red. masses --      1.0799                 1.0442                 1.0495
 Frc consts  --      1.4630                 1.4449                 1.4575
 IR Inten    --     10.4508                 7.3671                 1.7430

                     76                     77                     78
                      A                      A                      A
 Frequencies --   1539.0943              1552.2207              1553.8119
 Red. masses --      1.0503                 1.0836                 4.0237
 Frc consts  --      1.4658                 1.5383                 5.7237
 IR Inten    --      1.0494                 0.6267                16.9068

                     79                     80                     81
                      A                      A                      A
 Frequencies --   1654.7024              1666.7718              1744.0877
 Red. masses --      6.2233                 1.2834                 6.2236
 Frc consts  --     10.0394                 2.1007                11.1540
 IR Inten    --      2.7440               188.1251               275.0836

                     82                     83                     84
                      A                      A                      A
 Frequencies --   3064.6769              3065.7360              3070.5283
 Red. masses --      1.0414                 1.0463                 1.0628
 Frc consts  --      5.7630                 5.7937                 5.9037
 IR Inten    --     20.8526                31.2092                31.6549

                     85                     86                     87
                      A                      A                      A
 Frequencies --   3080.0022              3082.2954              3122.2719
 Red. masses --      1.0694                 1.0659                 1.1002
 Frc consts  --      5.9769                 5.9662                 6.3192
 IR Inten    --     33.7657                11.7871                27.2238

                     88                     89                     90
                      A                      A                      A
 Frequencies --   3124.5706              3137.3030              3143.2098
 Red. masses --      1.0967                 1.0953                 1.0933
 Frc consts  --      6.3086                 6.3516                 6.3639
 IR Inten    --      9.3120                23.7757                16.1314

                     91                     92                     93
                      A                      A                      A
 Frequencies --   3159.8093              3162.9122              3167.2351
 Red. masses --      1.1018                 1.1001                 1.0946
 Frc consts  --      6.4813                 6.4842                 6.4693
 IR Inten    --     19.8517                11.1882                19.3282

                     94                     95                     96
                      A                      A                      A
 Frequencies --   3265.0126              3276.5730              3303.5162
 Red. masses --      1.0924                 1.0960                 1.1052
 Frc consts  --      6.8611                 6.9325                 7.1065
 IR Inten    --      3.5102                 1.4451                 1.3633

                     97                     98                     99
                      A                      A                      A
 Frequencies --   3540.0119              3546.2097              3678.0594
 Red. masses --      1.0481                 1.0746                 1.1023
 Frc consts  --      7.7388                 7.9617                 8.7857
 IR Inten    --     60.5470                14.6310                48.6346

 - Thermochemistry -
 -------------------
 Temperature   298.150 Kelvin.  Pressure   1.00000 Atm.
 Atom     1 has atomic number  6 and mass  12.00000

 Molecular mass:   254.10890 amu.
 Principal axes and moments of inertia in atomic units:
                           1         2         3
     Eigenvalues --  2529.522886272.492236896.07927
           X            0.99997  -0.00588   0.00569
           Y            0.00582   0.99993   0.01022
           Z           -0.00575  -0.01018   0.99993
 This molecule is an asymmetric top.
 Rotational symmetry number  1.
 Warning -- assumption of classical behavior for rotation
           may cause significant error
 Rotational temperatures (Kelvin)      0.03424     0.01381     0.01256
 Rotational constants (GHZ):           0.71347     0.28772     0.26171
 Zero-point vibrational energy     775335.5 (Joules/Mol)
                                  185.30962 (Kcal/Mol)
 Warning -- explicit consideration of  27 degrees of freedom as
           vibrations may cause significant error
 Vibrational temperatures:     47.50    56.34    63.04    81.92   127.59
          (Kelvin)            200.05   208.45   228.89   265.46   272.90
                              290.51   298.66   323.34   365.01   400.94
                              463.80   476.06   510.68   548.29   563.33
                              594.03   685.59   705.88   778.41   850.96
                              865.41   881.74   913.39   935.86   967.49
                             1004.57  1061.63  1065.10  1087.33  1136.93
                             1156.81  1176.43  1249.63  1261.77  1306.36
                             1326.28  1356.40  1386.26  1418.19  1429.15
                             1501.30  1505.64  1528.07  1584.36  1597.31
                             1618.43  1681.90  1691.51  1708.81  1732.01
                             1776.95  1814.19  1858.11  1878.31  1926.26
                             1946.43  1978.58  1988.61  2017.48  2026.49
                             2038.16  2065.39  2066.20  2076.45  2155.91
                             2167.18  2176.72  2181.70  2204.96  2208.98
                             2214.41  2233.30  2235.59  2380.75  2398.11
                             2509.35  4409.39  4410.91  4417.81  4431.44
                             4434.74  4492.25  4495.56  4513.88  4522.38
                             4546.26  4550.73  4556.94  4697.62  4714.26
                             4753.02  5093.29  5102.20  5291.91

 Zero-point correction=                           0.295310 (Hartree/Particle)
 Thermal correction to Energy=                    0.313006
 Thermal correction to Enthalpy=                  0.313950
 Thermal correction to Gibbs Free Energy=         0.249073
 Sum of electronic and zero-point Energies=          -1126.020025
 Sum of electronic and thermal Energies=             -1126.002329
 Sum of electronic and thermal Enthalpies=           -1126.001385
 Sum of electronic and thermal Free Energies=        -1126.066262

                     E (Thermal)             CV                S
                      KCal/Mol        Cal/Mol-Kelvin    Cal/Mol-Kelvin
 Total                  196.414             66.820            136.545
 Electronic               0.000              0.000              0.000
 Translational            0.889              2.981             42.498
 Rotational               0.889              2.981             33.059
 Vibrational            194.637             60.859             60.988
 Vibration     1          0.594              1.983              5.640
 Vibration     2          0.594              1.981              5.301
 Vibration     3          0.595              1.980              5.079
 Vibration     4          0.596              1.975              4.561
 Vibration     5          0.601              1.957              3.689
 Vibration     6          0.615              1.914              2.817
 Vibration     7          0.616              1.908              2.738
 Vibration     8          0.621              1.892              2.561
 Vibration     9          0.631              1.861              2.282
 Vibration    10          0.633              1.854              2.231
 Vibration    11          0.639              1.837              2.116
 Vibration    12          0.641              1.829              2.065
 Vibration    13          0.649              1.803              1.921
 Vibration    14          0.665              1.757              1.705
 Vibration    15          0.679              1.713              1.542
 Vibration    16          0.707              1.631              1.298
 Vibration    17          0.713              1.614              1.256
 Vibration    18          0.731              1.565              1.144
 Vibration    19          0.751              1.511              1.035
 Vibration    20          0.759              1.488              0.994
 Vibration    21          0.777              1.442              0.917
 Vibration    22          0.833              1.302              0.720
 Vibration    23          0.846              1.271              0.682
 Vibration    24          0.896              1.159              0.563
 Vibration    25          0.949              1.050              0.465
 Vibration    26          0.960              1.029              0.447
 Vibration    27          0.972              1.005              0.428

                           ! Non-Optimized Parameters !
 Normal termination of Gaussian 16 at Fri Dec 11 12:43:41 2020.

 ----------------------------------------------------------------------
 # B3LYP/6-311++G(d,p) empiricaldispersion=gd3bj scf=xqc pop=npa geom=c
 heck
 ----------------------------------------------------------------------

 --------------------------------------
 CID_61841479_JID_7100_Energie_neutraal
 --------------------------------------
 Structure from the checkpoint file:  "JID_7100.chk"
 Charge =  0 Multiplicity = 1

 SCF Done:  E(RB3LYP) =  -1126.55387388     A.U. after   16 cycles
 Normal termination of Gaussian 16 at Fri Dec 11 12:51:38 2020.

 ----------------------------------------------------------------------
 # B3LYP/6-311++G(d,p) empiricaldispersion=gd3bj scf=xqc pop=npa geom=c
 heck
 ----------------------------------------------------------------------

 ------------------------------------
 CID_61841479_JID_7100_Energie_kation
 ------------------------------------
 Structure from the checkpoint file:  "JID_7100.chk"
 Charge =  1 Multiplicity = 2

 SCF Done:  E(UB3LYP) =  -1126.26668275     A.U. after   28 cycles
 Normal termination of Gaussian 16 at Fri Dec 11 13:06:31 2020.
 Gaussian 16:  ES64L-G16RevA.03 25-Dec-2016

 ----------------------------------------------------------------------
 # B3LYP/6-311++G(d,p) empiricaldispersion=gd3bj scf=xqc pop=npa geom=c
 heck
 ----------------------------------------------------------------------

 -----------------------------------
 CID_61841479_JID_7100_Energie_anion
 -----------------------------------
 Structure from the checkpoint file:  "JID_7100.chk"
 Charge = -1 Multiplicity = 2

                         Standard orientation:
 ---------------------------------------------------------------------
 Center     Atomic      Atomic             Coordinates (Angstroms)
 Number     Number       Type             X           Y           Z
 ---------------------------------------------------------------------
      1          6           0        3.679186   -1.645420   -0.349198
      2          6           0        2.822265   -0.500105   -0.895791
      3          6           0        1.562868   -0.148682   -0.044529
      4          6           0        1.973880    0.176391    1.415814
      5          6           0        3.188656    1.095748    1.593420
      6          6           0        0.824673    1.001079   -0.772694
      7         16           0        0.587208    2.538559   -0.176488
      8          7           0        0.369542    0.643354   -1.985803
      9          6           0        0.589465   -1.362622   -0.098921
     10          8           0        0.741014   -2.253643   -0.933664
     11          7           0       -0.436458   -1.453409    0.806894
     12          6           0       -1.232118   -0.362012    1.388310
     13          6           0       -2.556423   -0.229655    0.718026
     14          6           0       -3.841923   -0.419641    1.131769
     15          6           0       -4.683540   -0.138311    0.003574
     16          6           0       -3.845923    0.194151   -1.015423
     17          8           0       -2.546276    0.144109   -0.601402
     18          1           0        4.070773   -1.438359    0.650848
     19          1           0        4.537665   -1.806840   -1.010654
     20          1           0        3.103662   -2.572769   -0.312685
     21          1           0        3.419252    0.413895   -0.980566
     22          1           0        2.506326   -0.762270   -1.906840
     23          1           0        1.135025    0.633956    1.941158
     24          1           0        2.166761   -0.778905    1.917247
     25          1           0        3.037066    2.050150    1.085882
     26          1           0        3.328452    1.302124    2.660391
     27          1           0        4.113970    0.645930    1.223528
     28          1           0        0.380099   -0.327220   -2.280442
     29          1           0       -0.203203    1.300187   -2.497764
     30          1           0       -0.976021   -2.295685    0.628101
     31          1           0       -1.395232   -0.552365    2.454291
     32          1           0       -0.680497    0.572769    1.296530
     33          1           0       -4.153992   -0.718853    2.122726
     34          1           0       -5.762636   -0.180908   -0.036393
     35          1           0       -3.998694    0.479365   -2.044798
 ---------------------------------------------------------------------

 SCF Done:  E(UB3LYP) =  -1126.55218289     A.U. after   33 cycles
 SCF Done:  E(UB3LYP) =  -1126.55218289     a.u. after    1 cycles

 The electronic state is 2-A.
 Alpha  occ. eigenvalues --  -88.65327 -19.08674 -18.98408 -14.23096 -14.20393
 Alpha  occ. eigenvalues --  -10.16245 -10.12808 -10.12373 -10.11680 -10.09861
 Alpha  occ. eigenvalues --  -10.08797 -10.07561 -10.07517 -10.06309 -10.06003
 Alpha  occ. eigenvalues --  -10.05629 -10.05153  -7.74099  -5.70442  -5.69988
 Alpha  occ. eigenvalues --   -5.69663  -1.01126  -0.93584  -0.81948  -0.81203
 Alpha  occ. eigenvalues --   -0.70996  -0.70531  -0.67440  -0.64302  -0.61480
 Alpha  occ. eigenvalues --   -0.59509  -0.57987  -0.52512  -0.50676  -0.49684
 Alpha  occ. eigenvalues --   -0.46799  -0.46260  -0.43879  -0.42891  -0.41283
 Alpha  occ. eigenvalues --   -0.39143  -0.38400  -0.36224  -0.35610  -0.34151
 Alpha  occ. eigenvalues --   -0.33499  -0.33124  -0.31602  -0.31228  -0.30704
 Alpha  occ. eigenvalues --   -0.29905  -0.29271  -0.28686  -0.27748  -0.27284
 Alpha  occ. eigenvalues --   -0.26722  -0.25529  -0.24193  -0.23761  -0.22241
 Alpha  occ. eigenvalues --   -0.21850  -0.20408  -0.18652  -0.16905  -0.14693
 Alpha  occ. eigenvalues --   -0.13096  -0.10196  -0.07829   0.04333
 Alpha virt. eigenvalues --    0.06190   0.07285   0.07525   0.08437   0.08841
 Alpha virt. eigenvalues --    0.09055   0.09467   0.10474   0.10599   0.11135
 Alpha virt. eigenvalues --    0.11700   0.12132   0.12338   0.13191   0.13461

  Beta  occ. eigenvalues --  -88.65309 -19.08663 -18.98380 -14.23074 -14.20246
  Beta  occ. eigenvalues --  -10.16127 -10.12804 -10.12357 -10.11676 -10.09249
  Beta  occ. eigenvalues --  -10.08846 -10.07548 -10.07503 -10.06305 -10.05949
  Beta  occ. eigenvalues --  -10.05624 -10.05152  -7.74082  -5.70453  -5.69907
  Beta  occ. eigenvalues --   -5.69654  -1.01105  -0.93486  -0.81875  -0.80681
  Beta  occ. eigenvalues --   -0.70880  -0.70500  -0.67404  -0.64260  -0.61132
  Beta  occ. eigenvalues --   -0.59399  -0.57758  -0.52420  -0.50644  -0.49568
  Beta  occ. eigenvalues --   -0.46473  -0.46215  -0.43831  -0.42693  -0.41123
  Beta  occ. eigenvalues --   -0.39064  -0.38282  -0.36158  -0.35559  -0.34062
  Beta  occ. eigenvalues --   -0.33454  -0.33086  -0.31500  -0.31180  -0.30495
  Beta  occ. eigenvalues --   -0.29798  -0.29243  -0.28329  -0.27554  -0.27186
  Beta  occ. eigenvalues --   -0.26666  -0.25385  -0.23947  -0.23529  -0.21806
  Beta  occ. eigenvalues --   -0.21317  -0.19899  -0.18618  -0.16775  -0.14593
  Beta  occ. eigenvalues --   -0.13057  -0.09270  -0.07756
  Beta virt. eigenvalues --    0.06749   0.07421   0.07817   0.08624   0.08908
  Beta virt. eigenvalues --    0.09149   0.09488   0.10051   0.10538   0.10808
  Beta virt. eigenvalues --    0.11181   0.11831   0.12293   0.12774   0.13222

 Mulliken charges and spin densities:
               1          2
     1  C   -0.596675   0.003884
     2  C   -0.101826  -0.024209
     3  C    0.918463  -0.113279
     4  C   -0.274656   0.022911
     5  C   -0.689237   0.012443
     6  C   -0.170304   0.287152
     7  S   -0.887994   0.108850
     8  N   -0.282786   0.142257
     9  C   -0.402225   0.053482
    10  O   -0.282906   0.010614
    11  N   -0.121395   0.018913
    12  C    1.532514  -1.531076
    13  C    1.172264  -1.393632
    14  C   -2.776989   2.601735
    15  C    1.670578  -2.068640
    16  C   -0.576146   0.615972
    17  O    0.101786   0.041224
    18  H    0.110270   0.000393
    19  H    0.118124   0.005587
    20  H    0.184139   0.000138
    21  H    0.175749   0.006837
    22  H    0.143151  -0.004145
    23  H    0.046731   0.057561
    24  H    0.180295   0.002985
    25  H    0.149030   0.001258
    26  H    0.122688   0.001488
    27  H    0.111858   0.000062
    28  H    0.256029   0.016690
    29  H    0.266540   0.005517
    30  H    0.267818   0.015003
    31  H    0.136417   0.081712
    32  H    0.070795  -0.057370
    33  H   -0.639761   0.815730
    34  H   -0.566487   0.730497
    35  H   -0.365850   0.531458
 Sum of Mulliken charges =  -1.00000   1.00000

 Dipole moment (field-independent basis, Debye):
    X=              4.7194    Y=             -2.9927    Z=              0.8172  Tot=              5.6478
 Quadrupole moment (field-independent basis, Debye-Ang):
   XX=           -175.3062   YY=           -152.4679   ZZ=           -128.0379
   XY=             -2.3999   XZ=              4.7577   YZ=             -3.1864

 Summary of Natural Population Analysis:

                                       Natural Population
                Natural  -----------------------------------------------
    Atom  No    Charge         Core      Valence    Rydberg      Total
 -----------------------------------------------------------------------
      C    1   -0.28871      0.99966     2.28485    0.00420     3.28871
      C    2   -0.17888      0.99962     2.17016    0.00910     3.17888
      C    3   -0.09736      0.99946     2.08404    0.01386     3.09736
      C    4   -0.19302      0.99961     2.18303    0.01039     3.19302
      C    5   -0.28975      0.99966     2.28581    0.00428     3.28975
      C    6    0.15675      0.99959     1.82172    0.02193     2.84325
      S    7   -0.13784      4.99953     3.12459    0.01372     8.13784
      N    8   -0.36593      0.99965     2.85550    0.01078     3.86593
      C    9    0.37253      0.99960     1.60054    0.02733     2.62747
      O   10   -0.33571      0.99988     3.33000    0.00583     4.33571
      N   11   -0.31653      0.99965     2.80731    0.00956     3.81653
      C   12   -0.12177      0.99954     2.10994    0.01228     3.12177
      C   13    0.14640      0.99946     1.83918    0.01496     2.85360
      C   14   -0.14785      0.99949     2.13949    0.00886     3.14785
      C   15   -0.15229      0.99957     2.14344    0.00929     3.15229
      C   16    0.06502      0.99950     1.92180    0.01368     2.93498
      O   17   -0.22978      0.99986     3.21994    0.00998     4.22978
      H   18    0.09150      0.00000     0.40755    0.00095     0.40850
      H   19    0.09363      0.00000     0.40550    0.00086     0.40637
      H   20    0.10646      0.00000     0.39260    0.00094     0.39354
      H   21    0.09977      0.00000     0.39936    0.00087     0.40023
      H   22    0.10443      0.00000     0.39446    0.00111     0.39557
      H   23    0.10748      0.00000     0.39134    0.00119     0.39252
      H   24    0.09501      0.00000     0.40403    0.00097     0.40499
      H   25    0.11395      0.00000     0.38501    0.00104     0.38605
      H   26    0.09351      0.00000     0.40571    0.00078     0.40649
      H   27    0.09020      0.00000     0.40890    0.00091     0.40980
      H   28    0.19529      0.00000     0.30310    0.00161     0.30471
      H   29    0.19522      0.00000     0.30321    0.00157     0.30478
      H   30    0.18877      0.00000     0.30867    0.00256     0.31123
      H   31    0.09939      0.00000     0.39968    0.00093     0.40061
      H   32    0.12722      0.00000     0.37061    0.00217     0.37278
      H   33    0.10884      0.00000     0.38977    0.00139     0.39116
      H   34    0.10862      0.00000     0.38980    0.00158     0.39138
      H   35    0.09543      0.00000     0.40317    0.00140     0.40457
 =======================================================================
   * Total *    0.00000     20.99334    46.78381    0.22285    68.00000

 Normal termination of Gaussian 16 at Fri Dec 11 13:23:53 2020.
