 Gaussian 16, Revision A.03,

 -----------------------------------------------------------
 # opt freq B3LYP/6-31G(d) empiricaldispersion=gd3bj scf=xqc
 -----------------------------------------------------------

 -----------------------------
 CID_69462852_JID_428_neutraal
 -----------------------------
 Symbolic Z-matrix:
 Charge =  0 Multiplicity = 1

 SCF Done:  E(RB3LYP) =  -451.256734438     A.U. after   15 cycles
 SCF Done:  E(RB3LYP) =  -451.260874429     A.U. after   12 cycles
 SCF Done:  E(RB3LYP) =  -451.261216114     A.U. after   11 cycles
 SCF Done:  E(RB3LYP) =  -451.261246377     A.U. after   10 cycles
 SCF Done:  E(RB3LYP) =  -451.261250851     A.U. after    9 cycles
 SCF Done:  E(RB3LYP) =  -451.261252603     A.U. after    8 cycles
 SCF Done:  E(RB3LYP) =  -451.261254606     A.U. after    9 cycles
 SCF Done:  E(RB3LYP) =  -451.261281813     A.U. after   11 cycles
 SCF Done:  E(RB3LYP) =  -451.256466264     A.U. after   13 cycles
 SCF Done:  E(RB3LYP) =  -451.261014287     A.U. after   13 cycles
 SCF Done:  E(RB3LYP) =  -451.268813690     A.U. after    9 cycles
 SCF Done:  E(RB3LYP) =  -451.268813768     A.U. after    9 cycles
 SCF Done:  E(RB3LYP) =  -451.268813788     A.U. after    7 cycles
 SCF Done:  E(RB3LYP) =  -451.268813797     A.U. after    7 cycles
 SCF Done:  E(RB3LYP) =  -451.268813799     A.U. after    6 cycles
 Optimization completed.
    -- Stationary point found.
 Normal termination of Gaussian 16 at Tue Dec  8 10:39:48 2020.

 --------------------------------------------------------------------
 #N Geom=AllCheck Guess=TCheck SCRF=Check GenChk RB3LYP/6-31G(d) Freq
 --------------------------------------------------------------------

 Structure from the checkpoint file:  "JID_428.chk"
 -----------------------------
 CID_69462852_JID_428_neutraal
 -----------------------------
 Charge =  0 Multiplicity = 1

 SCF Done:  E(RB3LYP) =  -451.268813799     A.U. after    1 cycles

  Exact polarizability: 122.223  -2.712  89.856  -0.000  -0.001  35.775
 Approx polarizability: 205.018 -16.157 167.929  -0.000  -0.002  55.671

                      1                      2                      3
                      A                      A                      A
 Frequencies --     22.7117               167.0598               210.2593
 Red. masses --      1.0658                 3.7718                 5.8258
 Frc consts  --      0.0003                 0.0620                 0.1517
 IR Inten    --     47.1322                 0.1158                 0.3081

                      4                      5                      6
                      A                      A                      A
 Frequencies --    262.6457               311.5862               434.5822
 Red. masses --      4.5320                 4.0685                 2.9437
 Frc consts  --      0.1842                 0.2327                 0.3276
 IR Inten    --      4.1999                 0.0565                 8.0054

                      7                      8                      9
                      A                      A                      A
 Frequencies --    511.2706               590.0110               603.1088
 Red. masses --      4.6306                 5.4995                 6.5481
 Frc consts  --      0.7132                 1.1280                 1.4033
 IR Inten    --      2.3091                 2.1344                 3.4593

                     10                     11                     12
                      A                      A                      A
 Frequencies --    611.9232               638.2353               737.3798
 Red. masses --      4.3872                 3.7518                 7.0671
 Frc consts  --      0.9679                 0.9004                 2.2640
 IR Inten    --     12.5717                 1.0131                13.4997

                     13                     14                     15
                      A                      A                      A
 Frequencies --    765.5659               775.9582               819.5050
 Red. masses --      1.5015                 7.3262                 5.0383
 Frc consts  --      0.5185                 2.5990                 1.9936
 IR Inten    --     99.6340                 3.4481                 8.0362

                     16                     17                     18
                      A                      A                      A
 Frequencies --    835.3666               880.4118               905.3383
 Red. masses --      1.4498                 1.3318                 5.6838
 Frc consts  --      0.5961                 0.6082                 2.7448
 IR Inten    --     23.5251                12.2382                35.1662

                     19                     20                     21
                      A                      A                      A
 Frequencies --    935.2760               972.0604              1046.4567
 Red. masses --      1.3282                 1.3313                 2.2095
 Frc consts  --      0.6845                 0.7412                 1.4256
 IR Inten    --      1.0081                 0.0321                 1.1902

                     22                     23                     24
                      A                      A                      A
 Frequencies --   1117.6252              1186.2124              1212.2674
 Red. masses --      4.3549                 2.3680                 1.5670
 Frc consts  --      3.2050                 1.9632                 1.3568
 IR Inten    --     18.2617                28.0751                 2.9867

                     25                     26                     27
                      A                      A                      A
 Frequencies --   1221.9724              1292.3535              1322.8706
 Red. masses --      1.2398                 2.8082                 2.3757
 Frc consts  --      1.0908                 2.7634                 2.4495
 IR Inten    --      0.0629                30.0418                21.8524

                     28                     29                     30
                      A                      A                      A
 Frequencies --   1335.0310              1368.4294              1409.8944
 Red. masses --      4.6437                 2.2643                 2.2676
 Frc consts  --      4.8764                 2.4983                 2.6557
 IR Inten    --     47.7022                34.5866                 9.8401

                     31                     32                     33
                      A                      A                      A
 Frequencies --   1442.8026              1546.2974              1569.9131
 Red. masses --      3.9740                 5.2885                 4.2555
 Frc consts  --      4.8741                 7.4502                 6.1794
 IR Inten    --     20.6918                26.6925                 0.2068

                     34                     35                     36
                      A                      A                      A
 Frequencies --   1590.9449              1674.4956              1691.8266
 Red. masses --      5.2961                 5.8514                 1.1747
 Frc consts  --      7.8980                 9.6667                 1.9811
 IR Inten    --      7.9330                47.4193                33.1341

                     37                     38                     39
                      A                      A                      A
 Frequencies --   3208.5555              3231.3091              3242.3921
 Red. masses --      1.0896                 1.0926                 1.0952
 Frc consts  --      6.6090                 6.7215                 6.7836
 IR Inten    --     13.7718                 1.4387                 5.3579

                     40                     41                     42
                      A                      A                      A
 Frequencies --   3245.4351              3497.3037              3570.7024
 Red. masses --      1.0965                 1.0479                 1.0955
 Frc consts  --      6.8045                 7.5515                 8.2298
 IR Inten    --     12.9621                 3.5072                 9.2179

 - Thermochemistry -
 -------------------
 Temperature   298.150 Kelvin.  Pressure   1.00000 Atm.
 Atom     1 has atomic number  6 and mass  12.00000

 Molecular mass:   134.05925 amu.
 Principal axes and moments of inertia in atomic units:
                           1         2         3
     Eigenvalues --   666.883101310.783001967.89278
           X            0.99910   0.04251  -0.00000
           Y           -0.04251   0.99910  -0.00000
           Z            0.00000   0.00000   1.00000
 This molecule is an asymmetric top.
 Rotational symmetry number  1.
 Warning -- assumption of classical behavior for rotation
           may cause significant error
 Rotational temperatures (Kelvin)      0.12988     0.06608     0.04401
 Rotational constants (GHZ):           2.70623     1.37684     0.91709
 Zero-point vibrational energy     323083.5 (Joules/Mol)
                                   77.21882 (Kcal/Mol)
 Warning -- explicit consideration of  10 degrees of freedom as
           vibrations may cause significant error
 Vibrational temperatures:     32.68   240.36   302.52   377.89   448.30
          (Kelvin)            625.27   735.60   848.89   867.74   880.42
                              918.28  1060.93  1101.48  1116.43  1179.08
                             1201.91  1266.72  1302.58  1345.65  1398.58
                             1505.62  1608.01  1706.70  1744.18  1758.15
                             1859.41  1903.32  1920.81  1968.86  2028.52
                             2075.87  2224.78  2258.75  2289.01  2409.23
                             2434.16  4616.40  4649.13  4665.08  4669.46
                             5031.84  5137.44

 Zero-point correction=                           0.123056 (Hartree/Particle)
 Thermal correction to Energy=                    0.130712
 Thermal correction to Enthalpy=                  0.131657
 Thermal correction to Gibbs Free Energy=         0.089533
 Sum of electronic and zero-point Energies=           -451.145758
 Sum of electronic and thermal Energies=              -451.138101
 Sum of electronic and thermal Enthalpies=            -451.137157
 Sum of electronic and thermal Free Energies=         -451.179281

                     E (Thermal)             CV                S
                      KCal/Mol        Cal/Mol-Kelvin    Cal/Mol-Kelvin
 Total                   82.023             29.143             88.656
 Electronic               0.000              0.000              0.000
 Translational            0.889              2.981             40.592
 Rotational               0.889              2.981             28.933
 Vibrational             80.246             23.182             19.132
 Vibration     1          0.593              1.985              6.382
 Vibration     2          0.624              1.883              2.468
 Vibration     3          0.642              1.825              2.041
 Vibration     4          0.670              1.741              1.644
 Vibration     5          0.700              1.652              1.354
 Vibration     6          0.795              1.395              0.844
 Vibration     7          0.866              1.225              0.631
 Vibration     8          0.947              1.053              0.467
 Vibration     9          0.961              1.025              0.444
 Vibration    10          0.971              1.007              0.430

 Optimization completed.
    -- Stationary point found.
 Normal termination of Gaussian 16 at Tue Dec  8 10:44:24 2020.

 ----------------------------------------------------------------------
 # B3LYP/6-311++G(d,p) empiricaldispersion=gd3bj scf=xqc pop=npa geom=c
 heck
 ----------------------------------------------------------------------

 -------------------------------------
 CID_69462852_JID_428_Energie_neutraal
 -------------------------------------
 Structure from the checkpoint file:  "JID_428.chk"
 Charge =  0 Multiplicity = 1

 SCF Done:  E(RB3LYP) =  -451.393647429     A.U. after   14 cycles
 Normal termination of Gaussian 16 at Tue Dec  8 10:45:31 2020.

 ----------------------------------------------------------------------
 # B3LYP/6-311++G(d,p) empiricaldispersion=gd3bj scf=xqc pop=npa geom=c
 heck
 ----------------------------------------------------------------------

 -----------------------------------
 CID_69462852_JID_428_Energie_kation
 -----------------------------------
 Structure from the checkpoint file:  "JID_428.chk"
 Charge =  1 Multiplicity = 2

 SCF Done:  E(UB3LYP) =  -451.093751224     A.U. after   19 cycles
 Normal termination of Gaussian 16 at Tue Dec  8 10:48:29 2020.
 Gaussian 16:  ES64L-G16RevA.03 25-Dec-2016

 ----------------------------------------------------------------------
 # B3LYP/6-311++G(d,p) empiricaldispersion=gd3bj scf=xqc pop=npa geom=c
 heck
 ----------------------------------------------------------------------

 ----------------------------------
 CID_69462852_JID_428_Energie_anion
 ----------------------------------
 Structure from the checkpoint file:  "JID_428.chk"
 Charge = -1 Multiplicity = 2

                         Standard orientation:
 ---------------------------------------------------------------------
 Center     Atomic      Atomic             Coordinates (Angstroms)
 Number     Number       Type             X           Y           Z
 ---------------------------------------------------------------------
      1          6           0        1.767585    1.072876    0.000009
      2          6           0        2.490583   -0.092953   -0.000001
      3          7           0        1.925218   -1.344711   -0.000019
      4          6           0        0.627340   -1.425778   -0.000005
      5          7           0       -0.179147   -0.318963    0.000015
      6          6           0        0.357368    0.981266    0.000004
      7          7           0       -0.605214    1.895875   -0.000018
      8          6           0       -1.773995    1.182681    0.000011
      9          6           0       -1.565417   -0.183595    0.000036
     10          7           0       -2.379654   -1.332963   -0.000053
     11          1           0        2.237434    2.049204    0.000009
     12          1           0        3.576135   -0.075917   -0.000003
     13          1           0        0.115539   -2.382563   -0.000035
     14          1           0       -2.733651    1.685060    0.000023
     15          1           0       -2.972092   -1.388966    0.824052
     16          1           0       -2.972572   -1.388465   -0.823843
 ---------------------------------------------------------------------

 SCF Done:  E(UB3LYP) =  -451.384907287     A.U. after   33 cycles
 SCF Done:  E(UB3LYP) =  -451.388265079     a.u. after    5 cycles

 The electronic state is 2-A.
 Alpha  occ. eigenvalues --  -14.25078 -14.19177 -14.17887 -14.16601 -10.10723
 Alpha  occ. eigenvalues --  -10.10289 -10.10126 -10.07319 -10.06329 -10.04430
 Alpha  occ. eigenvalues --   -0.91007  -0.81577  -0.78268  -0.74240  -0.65933
 Alpha  occ. eigenvalues --   -0.60322  -0.53030  -0.50154  -0.48290  -0.41320
 Alpha  occ. eigenvalues --   -0.38356  -0.37301  -0.36002  -0.33705  -0.32992
 Alpha  occ. eigenvalues --   -0.32819  -0.28886  -0.25509  -0.24264  -0.19765
 Alpha  occ. eigenvalues --   -0.17723  -0.14610  -0.13834  -0.13553  -0.08907
 Alpha  occ. eigenvalues --    0.05067
 Alpha virt. eigenvalues --    0.07007   0.09133   0.09996   0.10597   0.11669
 Alpha virt. eigenvalues --    0.11831   0.11926   0.14859   0.15322   0.16524
 Alpha virt. eigenvalues --    0.16973   0.17504   0.18640   0.18811   0.19619

  Beta  occ. eigenvalues --  -14.24984 -14.19102 -14.17892 -14.16567 -10.10745
  Beta  occ. eigenvalues --  -10.10319 -10.09795 -10.07233 -10.06250 -10.04222
  Beta  occ. eigenvalues --   -0.90811  -0.81366  -0.78165  -0.74063  -0.65619
  Beta  occ. eigenvalues --   -0.60083  -0.52667  -0.49964  -0.48130  -0.41168
  Beta  occ. eigenvalues --   -0.38239  -0.37124  -0.35844  -0.33569  -0.32685
  Beta  occ. eigenvalues --   -0.32461  -0.28783  -0.25399  -0.23617  -0.18975
  Beta  occ. eigenvalues --   -0.17650  -0.14555  -0.13481  -0.13189  -0.08299
  Beta virt. eigenvalues --    0.08367   0.09119   0.09489   0.10441   0.11405
  Beta virt. eigenvalues --    0.11680   0.12182   0.12683   0.14909   0.15356
  Beta virt. eigenvalues --    0.16801   0.17157   0.17450   0.18809   0.18984

 Mulliken charges and spin densities:
               1          2
     1  C    0.258723   0.139430
     2  C   -0.421845  -0.011545
     3  N   -0.152857  -0.031164
     4  C   -0.201483   0.400574
     5  N    0.104133  -0.082028
     6  C   -0.072600  -0.436934
     7  N   -0.208889   0.056022
     8  C    0.947186  -0.855767
     9  C    0.244504  -0.443756
    10  N   -0.682618   0.319976
    11  H    0.140149  -0.003074
    12  H    0.121940   0.005082
    13  H    0.112521   0.074769
    14  H   -0.247400   0.398944
    15  H   -0.603324   0.875864
    16  H   -0.338138   0.593607
 Sum of Mulliken charges =  -1.00000   1.00000

 Dipole moment (field-independent basis, Debye):
    X=              5.0378    Y=              2.0868    Z=             -1.6700  Tot=              5.7029
 Quadrupole moment (field-independent basis, Debye-Ang):
   XX=           -105.0707   YY=            -89.3613   ZZ=            -73.0540
   XY=             -4.2982   XZ=              4.7139   YZ=              1.6336

 Summary of Natural Population Analysis:

                                       Natural Population
                Natural  -----------------------------------------------
    Atom  No    Charge         Core      Valence    Rydberg      Total
 -----------------------------------------------------------------------
      C    1   -0.10489      0.99952     2.09698    0.00840     3.10489
      C    2    0.01710      0.99958     1.96962    0.01369     2.98290
      N    3   -0.26136      0.99971     2.75147    0.01018     3.76136
      C    4    0.20101      0.99963     1.78183    0.01752     2.79899
      N    5   -0.19137      0.99958     2.68261    0.00917     3.69137
      C    6    0.17974      0.99959     1.80370    0.01697     2.82026
      N    7   -0.26775      0.99970     2.75787    0.01019     3.76775
      C    8   -0.01126      0.99952     1.99620    0.01554     3.01126
      C    9    0.12005      0.99950     1.86450    0.01595     2.87995
      N   10   -0.42642      0.99974     2.91550    0.01118     3.92642
      H   11    0.10258      0.00000     0.39666    0.00077     0.39742
      H   12    0.08315      0.00000     0.41579    0.00106     0.41685
      H   13    0.09150      0.00000     0.40654    0.00196     0.40850
      H   14    0.09327      0.00000     0.40536    0.00138     0.40673
      H   15    0.19019      0.00000     0.29569    0.01412     0.30981
      H   16    0.18445      0.00000     0.31202    0.00353     0.31555
 =======================================================================
   * Total *   -0.00000      9.99608    24.85233    0.15159    35.00000

 Normal termination of Gaussian 16 at Tue Dec  8 10:58:45 2020.
