 Gaussian 16, Revision A.03,

 -----------------------------------------------------------
 # opt freq B3LYP/6-31G(d) empiricaldispersion=gd3bj scf=xqc
 -----------------------------------------------------------

 -------------------------------
 CID_131004868_JID_5273_neutraal
 -------------------------------
 Symbolic Z-matrix:
 Charge =  0 Multiplicity = 1

 SCF Done:  E(RB3LYP) =  -1009.36284951     A.U. after   15 cycles
 SCF Done:  E(RB3LYP) =  -1009.36756377     A.U. after   13 cycles
 SCF Done:  E(RB3LYP) =  -1009.36861579     A.U. after   13 cycles
 SCF Done:  E(RB3LYP) =  -1009.36884026     A.U. after   12 cycles
 SCF Done:  E(RB3LYP) =  -1009.36906992     A.U. after   12 cycles
 SCF Done:  E(RB3LYP) =  -1009.36909134     A.U. after   12 cycles
 SCF Done:  E(RB3LYP) =  -1009.36917245     A.U. after   11 cycles
 SCF Done:  E(RB3LYP) =  -1009.36919761     A.U. after   11 cycles
 SCF Done:  E(RB3LYP) =  -1009.36920465     A.U. after    9 cycles
 SCF Done:  E(RB3LYP) =  -1009.36920679     A.U. after    9 cycles
 SCF Done:  E(RB3LYP) =  -1009.36920766     A.U. after    9 cycles
 SCF Done:  E(RB3LYP) =  -1009.36920783     A.U. after    8 cycles
 Optimization completed.
    -- Stationary point found.
 Normal termination of Gaussian 16 at Thu Dec 10 15:20:49 2020.

 --------------------------------------------------------------------
 #N Geom=AllCheck Guess=TCheck SCRF=Check GenChk RB3LYP/6-31G(d) Freq
 --------------------------------------------------------------------

 Structure from the checkpoint file:  "JID_5273.chk"
 -------------------------------
 CID_131004868_JID_5273_neutraal
 -------------------------------
 Charge =  0 Multiplicity = 1

 SCF Done:  E(RB3LYP) =  -1009.36920783     A.U. after    1 cycles

  Exact polarizability: 220.998   2.629 154.999  -3.821   6.051  72.692
 Approx polarizability: 305.486  -8.004 286.918  -9.673  18.764 113.358

                      1                      2                      3
                      A                      A                      A
 Frequencies --     26.7693                43.1758                96.7477
 Red. masses --      5.2123                 4.3739                 3.2612
 Frc consts  --      0.0022                 0.0048                 0.0180
 IR Inten    --      2.0088                 2.1010                 0.9456

                      4                      5                      6
                      A                      A                      A
 Frequencies --    111.0500               126.5158               131.6658
 Red. masses --      1.1882                 3.5695                 4.0976
 Frc consts  --      0.0086                 0.0337                 0.0419
 IR Inten    --      0.1089                 0.9421                 0.7695

                      7                      8                      9
                      A                      A                      A
 Frequencies --    161.5746               193.3119               218.2171
 Red. masses --      5.2167                 4.3513                 1.3544
 Frc consts  --      0.0802                 0.0958                 0.0380
 IR Inten    --      1.9562                 0.3552                 2.3751

                     10                     11                     12
                      A                      A                      A
 Frequencies --    227.0844               252.4011               268.9737
 Red. masses --      3.9748                 4.0003                 2.3565
 Frc consts  --      0.1208                 0.1502                 0.1004
 IR Inten    --      8.9790                 2.8662                 3.9184

                     13                     14                     15
                      A                      A                      A
 Frequencies --    340.7499               384.3884               425.7447
 Red. masses --      3.8880                 4.6124                 5.9897
 Frc consts  --      0.2660                 0.4015                 0.6397
 IR Inten    --      3.9113                 1.3307                 2.3948

                     16                     17                     18
                      A                      A                      A
 Frequencies --    433.7664               484.1245               543.1415
 Red. masses --      3.1350                 4.6477                 6.3330
 Frc consts  --      0.3475                 0.6418                 1.1008
 IR Inten    --      0.2663                 3.9932                 0.9792

                     19                     20                     21
                      A                      A                      A
 Frequencies --    580.1473               590.6271               650.9624
 Red. masses --      4.6420                 5.0894                 3.6890
 Frc consts  --      0.9205                 1.0460                 0.9210
 IR Inten    --      0.7125                 0.1652                 1.5230

                     22                     23                     24
                      A                      A                      A
 Frequencies --    669.7570               686.6945               699.6842
 Red. masses --      5.2659                 5.9954                 4.4870
 Frc consts  --      1.3918                 1.6657                 1.2942
 IR Inten    --      2.2050                18.7599                14.8538

                     25                     26                     27
                      A                      A                      A
 Frequencies --    760.3517               781.1395               802.1813
 Red. masses --      1.3339                 2.9794                 1.1791
 Frc consts  --      0.4544                 1.0711                 0.4471
 IR Inten    --     11.9535                29.4876                19.0988

                     28                     29                     30
                      A                      A                      A
 Frequencies --    828.2416               834.6813               855.7921
 Red. masses --      7.1381                 1.3923                 1.3297
 Frc consts  --      2.8850                 0.5715                 0.5738
 IR Inten    --    132.6728                 3.1984                 3.2923

                     31                     32                     33
                      A                      A                      A
 Frequencies --    876.5649               889.0989               946.5148
 Red. masses --      4.3063                 1.5021                 6.1979
 Frc consts  --      1.9495                 0.6996                 3.2715
 IR Inten    --      8.4797                16.7633                14.2456

                     34                     35                     36
                      A                      A                      A
 Frequencies --    979.8923              1009.7266              1026.8018
 Red. masses --      2.3652                 2.3694                 1.9077
 Frc consts  --      1.3381                 1.4233                 1.1851
 IR Inten    --      9.7677                16.5463                 4.1779

                     37                     38                     39
                      A                      A                      A
 Frequencies --   1074.7059              1095.2805              1119.9601
 Red. masses --      1.4024                 1.8516                 1.4114
 Frc consts  --      0.9543                 1.3087                 1.0430
 IR Inten    --      1.0092                20.5687                30.7232

                     40                     41                     42
                      A                      A                      A
 Frequencies --   1126.9522              1144.8874              1182.0362
 Red. masses --      1.6898                 2.0903                 2.2349
 Frc consts  --      1.2644                 1.6143                 1.8398
 IR Inten    --      4.6801                89.4271                 8.0588

                     43                     44                     45
                      A                      A                      A
 Frequencies --   1207.1964              1222.4407              1266.6873
 Red. masses --      1.9065                 1.7200                 2.4854
 Frc consts  --      1.6370                 1.5144                 2.3495
 IR Inten    --     32.7933                15.9271                67.8176

                     46                     47                     48
                      A                      A                      A
 Frequencies --   1296.1150              1348.7689              1403.2972
 Red. masses --      2.3455                 2.7536                 4.5626
 Frc consts  --      2.3216                 2.9513                 5.2938
 IR Inten    --     44.4869                43.6412                13.7280

                     49                     50                     51
                      A                      A                      A
 Frequencies --   1404.4835              1426.5943              1437.4762
 Red. masses --      1.3673                 2.1724                 1.3730
 Frc consts  --      1.5891                 2.6049                 1.6715
 IR Inten    --      7.8046                11.2821                12.4414

                     52                     53                     54
                      A                      A                      A
 Frequencies --   1444.2466              1457.3163              1492.1147
 Red. masses --      1.2691                 4.6660                 2.0299
 Frc consts  --      1.5597                 5.8385                 2.6628
 IR Inten    --     17.3356               237.9583                50.5610

                     55                     56                     57
                      A                      A                      A
 Frequencies --   1508.5322              1508.7854              1516.4450
 Red. masses --      2.2688                 1.0422                 1.2915
 Frc consts  --      3.0419                 1.3978                 1.7498
 IR Inten    --    111.2535                 7.6842                13.7326

                     58                     59                     60
                      A                      A                      A
 Frequencies --   1521.0674              1527.8792              1537.6889
 Red. masses --      1.2575                 1.5541                 1.0761
 Frc consts  --      1.7142                 2.1375                 1.4991
 IR Inten    --     42.9298                15.7268                 4.0195

                     61                     62                     63
                      A                      A                      A
 Frequencies --   1552.9465              1620.1827              1696.2619
 Red. masses --      3.8182                 6.1676                11.6605
 Frc consts  --      5.4252                 9.5389                19.7676
 IR Inten    --     14.4919                 6.0837               199.8250

                     64                     65                     66
                      A                      A                      A
 Frequencies --   3045.7674              3062.2389              3086.5981
 Red. masses --      1.0367                 1.0370                 1.0693
 Frc consts  --      5.6661                 5.7291                 6.0023
 IR Inten    --     39.8520                23.2584                34.7304

                     67                     68                     69
                      A                      A                      A
 Frequencies --   3097.4568              3126.8441              3131.8929
 Red. masses --      1.1018                 1.1030                 1.1007
 Frc consts  --      6.2282                 6.3537                 6.3610
 IR Inten    --     16.8711                23.1834                11.1121

                     70                     71                     72
                      A                      A                      A
 Frequencies --   3160.9807              3181.2616              3244.0534
 Red. masses --      1.0990                 1.0986                 1.0929
 Frc consts  --      6.4697                 6.5508                 6.7765
 IR Inten    --     12.8854                 5.9032                 3.0911

                     73                     74                     75
                      A                      A                      A
 Frequencies --   3261.1533              3286.3770              3302.5791
 Red. masses --      1.0918                 1.1036                 1.0940
 Frc consts  --      6.8415                 7.0224                 7.0305
 IR Inten    --      8.3008                 4.2060                29.2750

 - Thermochemistry -
 -------------------
 Temperature   298.150 Kelvin.  Pressure   1.00000 Atm.
 Atom     1 has atomic number  6 and mass  12.00000

 Molecular mass:   220.06703 amu.
 Principal axes and moments of inertia in atomic units:
                           1         2         3
     Eigenvalues --  1483.308856128.131087440.75115
           X            0.99999   0.00399   0.00326
           Y           -0.00396   0.99996  -0.00740
           Z           -0.00329   0.00739   0.99997
 This molecule is an asymmetric top.
 Rotational symmetry number  1.
 Warning -- assumption of classical behavior for rotation
           may cause significant error
 Rotational temperatures (Kelvin)      0.05839     0.01413     0.01164
 Rotational constants (GHZ):           1.21670     0.29450     0.24255
 Zero-point vibrational energy     562638.5 (Joules/Mol)
                                  134.47383 (Kcal/Mol)
 Warning -- explicit consideration of  20 degrees of freedom as
           vibrations may cause significant error
 Vibrational temperatures:     38.52    62.12   139.20   159.78   182.03
          (Kelvin)            189.44   232.47   278.13   313.97   326.72
                              363.15   386.99   490.26   553.05   612.55
                              624.09   696.55   781.46   834.70   849.78
                              936.59   963.63   988.00  1006.69  1093.98
                             1123.89  1154.16  1191.65  1200.92  1231.29
                             1261.18  1279.21  1361.82  1409.85  1452.77
                             1477.34  1546.26  1575.86  1611.37  1621.43
                             1647.24  1700.69  1736.89  1758.82  1822.48
                             1864.82  1940.58  2019.03  2020.74  2052.55
                             2068.21  2077.95  2096.75  2146.82  2170.44
                             2170.81  2181.83  2188.48  2198.28  2212.39
                             2234.34  2331.08  2440.54  4382.18  4405.88
                             4440.93  4456.55  4498.83  4506.10  4547.95
                             4577.13  4667.47  4692.07  4728.36  4751.67

 Zero-point correction=                           0.214298 (Hartree/Particle)
 Thermal correction to Energy=                    0.228394
 Thermal correction to Enthalpy=                  0.229339
 Thermal correction to Gibbs Free Energy=         0.172079
 Sum of electronic and zero-point Energies=          -1009.154910
 Sum of electronic and thermal Energies=             -1009.140813
 Sum of electronic and thermal Enthalpies=           -1009.139869
 Sum of electronic and thermal Free Energies=        -1009.197129

                     E (Thermal)             CV                S
                      KCal/Mol        Cal/Mol-Kelvin    Cal/Mol-Kelvin
 Total                  143.320             52.516            120.513
 Electronic               0.000              0.000              0.000
 Translational            0.889              2.981             42.069
 Rotational               0.889              2.981             32.581
 Vibrational            141.542             46.555             45.863
 Vibration     1          0.593              1.984              6.055
 Vibration     2          0.595              1.980              5.108
 Vibration     3          0.603              1.951              3.519
 Vibration     4          0.607              1.940              3.250
 Vibration     5          0.611              1.927              2.998
 Vibration     6          0.612              1.922              2.922
 Vibration     7          0.622              1.890              2.531
 Vibration     8          0.635              1.849              2.196
 Vibration     9          0.646              1.813              1.974
 Vibration    10          0.651              1.800              1.902
 Vibration    11          0.664              1.759              1.714
 Vibration    12          0.673              1.730              1.603
 Vibration    13          0.720              1.594              1.209
 Vibration    14          0.753              1.504              1.022
 Vibration    15          0.788              1.414              0.873
 Vibration    16          0.795              1.397              0.846
 Vibration    17          0.840              1.285              0.699
 Vibration    18          0.898              1.155              0.559
 Vibration    19          0.937              1.074              0.485
 Vibration    20          0.948              1.052              0.466

                           ! Non-Optimized Parameters !
 Normal termination of Gaussian 16 at Thu Dec 10 15:28:03 2020.

 ----------------------------------------------------------------------
 # B3LYP/6-311++G(d,p) empiricaldispersion=gd3bj scf=xqc pop=npa geom=c
 heck
 ----------------------------------------------------------------------

 ---------------------------------------
 CID_131004868_JID_5273_Energie_neutraal
 ---------------------------------------
 Structure from the checkpoint file:  "JID_5273.chk"
 Charge =  0 Multiplicity = 1

 SCF Done:  E(RB3LYP) =  -1009.55691630     A.U. after   15 cycles
 Normal termination of Gaussian 16 at Thu Dec 10 15:31:04 2020.

 ----------------------------------------------------------------------
 # B3LYP/6-311++G(d,p) empiricaldispersion=gd3bj scf=xqc pop=npa geom=c
 heck
 ----------------------------------------------------------------------

 -------------------------------------
 CID_131004868_JID_5273_Energie_kation
 -------------------------------------
 Structure from the checkpoint file:  "JID_5273.chk"
 Charge =  1 Multiplicity = 2

 SCF Done:  E(UB3LYP) =  -1009.26271785     A.U. after   26 cycles
 Normal termination of Gaussian 16 at Thu Dec 10 15:43:06 2020.
 Gaussian 16:  ES64L-G16RevA.03 25-Dec-2016

 ----------------------------------------------------------------------
 # B3LYP/6-311++G(d,p) empiricaldispersion=gd3bj scf=xqc pop=npa geom=c
 heck
 ----------------------------------------------------------------------

 ------------------------------------
 CID_131004868_JID_5273_Energie_anion
 ------------------------------------
 Structure from the checkpoint file:  "JID_5273.chk"
 Charge = -1 Multiplicity = 2

                         Standard orientation:
 ---------------------------------------------------------------------
 Center     Atomic      Atomic             Coordinates (Angstroms)
 Number     Number       Type             X           Y           Z
 ---------------------------------------------------------------------
      1          6           0        3.544258   -1.969755    0.856410
      2          6           0        3.384555   -1.209801   -0.457216
      3          7           0        2.770193    0.110084   -0.260384
      4          6           0        3.482955    1.271838   -0.145189
      5          6           0        2.561447    2.276206    0.076269
      6          7           0        1.305044    1.756758    0.100890
      7          6           0        1.437631    0.444528   -0.098092
      8          6           0        0.345203   -0.546685   -0.155082
      9          8           0        0.606593   -1.747433   -0.285199
     10          6           0       -1.064046   -0.110746   -0.058293
     11          6           0       -1.543657    1.172454    0.077649
     12         16           0       -3.267457    1.202390    0.147363
     13          6           0       -3.371324   -0.546129   -0.009235
     14          6           0       -2.123344   -1.083816   -0.106951
     15          6           0       -4.696633   -1.243731   -0.021903
     16          1           0        4.142367   -1.395418    1.571886
     17          1           0        4.046051   -2.925875    0.672710
     18          1           0        2.563074   -2.174279    1.290156
     19          1           0        4.356645   -1.028541   -0.925994
     20          1           0        2.760164   -1.772077   -1.149096
     21          1           0        4.559224    1.281019   -0.234701
     22          1           0        2.744102    3.333287    0.212694
     23          1           0       -0.957977    2.076442    0.142730
     24          1           0       -1.928680   -2.144014   -0.212338
     25          1           0       -5.256024   -1.075508    0.906258
     26          1           0       -5.328287   -0.906492   -0.852509
     27          1           0       -4.543035   -2.321377   -0.131773
 ---------------------------------------------------------------------

 SCF Done:  E(UB3LYP) =  -1009.57394845     A.U. after   25 cycles

 The electronic state is 2-A.
 Alpha  occ. eigenvalues --  -88.72817 -18.90517 -14.22205 -14.14194 -10.08830
 Alpha  occ. eigenvalues --  -10.06997 -10.06921 -10.06754 -10.05859 -10.05681
 Alpha  occ. eigenvalues --  -10.04835 -10.04777 -10.03058 -10.03035 -10.02026
 Alpha  occ. eigenvalues --   -7.81485  -5.77772  -5.77409  -5.77098  -0.87852
 Alpha  occ. eigenvalues --   -0.84562  -0.74876  -0.73651  -0.64137  -0.63763
 Alpha  occ. eigenvalues --   -0.60775  -0.59139  -0.54990  -0.52655  -0.47676
 Alpha  occ. eigenvalues --   -0.46093  -0.42556  -0.40496  -0.39389  -0.37000
 Alpha  occ. eigenvalues --   -0.34177  -0.33011  -0.32038  -0.31698  -0.30354
 Alpha  occ. eigenvalues --   -0.29919  -0.29375  -0.27305  -0.26471  -0.25882
 Alpha  occ. eigenvalues --   -0.25502  -0.24097  -0.23555  -0.23272  -0.22639
 Alpha  occ. eigenvalues --   -0.20607  -0.20556  -0.14136  -0.13017  -0.11172
 Alpha  occ. eigenvalues --   -0.09948  -0.08747  -0.08114   0.04101
 Alpha virt. eigenvalues --    0.07893   0.07973   0.09451   0.10264   0.10748
 Alpha virt. eigenvalues --    0.11125   0.11307   0.12181   0.12844   0.13212
 Alpha virt. eigenvalues --    0.13478   0.14116   0.14587   0.15063   0.15729

  Beta  occ. eigenvalues --  -88.72796 -18.89794 -14.22000 -14.13974 -10.08839
  Beta  occ. eigenvalues --  -10.07001 -10.06917 -10.06812 -10.05764 -10.05269
  Beta  occ. eigenvalues --  -10.04896 -10.04762 -10.03030 -10.02659 -10.02102
  Beta  occ. eigenvalues --   -7.81466  -5.77764  -5.77405  -5.77022  -0.87502
  Beta  occ. eigenvalues --   -0.83350  -0.74567  -0.73521  -0.63991  -0.63653
  Beta  occ. eigenvalues --   -0.60461  -0.59009  -0.54688  -0.52556  -0.46821
  Beta  occ. eigenvalues --   -0.46029  -0.42160  -0.40383  -0.39327  -0.36792
  Beta  occ. eigenvalues --   -0.34054  -0.32684  -0.31887  -0.31732  -0.30137
  Beta  occ. eigenvalues --   -0.29756  -0.29148  -0.27063  -0.26223  -0.25455
  Beta  occ. eigenvalues --   -0.25259  -0.23787  -0.23071  -0.22952  -0.22215
  Beta  occ. eigenvalues --   -0.20402  -0.18286  -0.13083  -0.12711  -0.10715
  Beta  occ. eigenvalues --   -0.08344  -0.07897  -0.07492
  Beta virt. eigenvalues --    0.07797   0.07939   0.09384   0.10204   0.10718
  Beta virt. eigenvalues --    0.11005   0.11256   0.11396   0.12153   0.12816
  Beta virt. eigenvalues --    0.13356   0.13772   0.14085   0.14684   0.15075

 Mulliken charges and spin densities:
               1          2
     1  C   -0.408578  -0.022151
     2  C   -0.134278  -0.016772
     3  N    0.142233   0.046987
     4  C   -0.200621   0.115969
     5  C   -0.010442  -0.046395
     6  N   -0.101298   0.113106
     7  C   -0.609032  -0.003840
     8  C   -0.965106   0.279186
     9  O   -0.418210   0.261344
    10  C   -0.742208  -0.112451
    11  C    0.434251   0.267844
    12  S   -0.914709   0.031812
    13  C   -0.107412  -0.035326
    14  C    1.279541   0.070557
    15  C   -0.100460   0.014636
    16  H    0.119743   0.001330
    17  H    0.071680   0.018797
    18  H    0.188572   0.019505
    19  H    0.072740   0.029651
    20  H    0.221199  -0.014108
    21  H    0.111089  -0.002714
    22  H    0.105249   0.002885
    23  H    0.365712  -0.016003
    24  H    0.186523  -0.004297
    25  H    0.135811   0.000139
    26  H    0.135222   0.000604
    27  H    0.142790  -0.000296
 Sum of Mulliken charges =  -1.00000   1.00000

 Dipole moment (field-independent basis, Debye):
    X=              0.5986    Y=             -0.9076    Z=              0.0447  Tot=              1.0881
 Quadrupole moment (field-independent basis, Debye-Ang):
   XX=           -119.6355   YY=           -115.0777   ZZ=           -106.2510
   XY=              2.8386   XZ=             -0.4198   YZ=             -0.1315

 Summary of Natural Population Analysis:

                                       Natural Population
                Natural  -----------------------------------------------
    Atom  No    Charge         Core      Valence    Rydberg      Total
 -----------------------------------------------------------------------
      C    1   -0.28863      0.99966     2.28508    0.00389     3.28863
      C    2   -0.08215      0.99963     2.07370    0.00881     3.08215
      N    3   -0.17554      0.99961     2.66469    0.01125     3.67554
      C    4   -0.02588      0.99958     2.01510    0.01120     3.02588
      C    5   -0.05569      0.99961     2.04157    0.01451     3.05569
      N    6   -0.23034      0.99970     2.71936    0.01128     3.73034
      C    7    0.16391      0.99958     1.82071    0.01580     2.83609
      C    8    0.28766      0.99956     1.69439    0.01839     2.71234
      O    9   -0.24659      0.99989     3.24050    0.00620     4.24659
      C   10   -0.09923      0.99949     2.08870    0.01105     3.09923
      C   11   -0.09533      0.99950     2.08609    0.00974     3.09533
      S   12    0.17087      4.99941     2.80630    0.02341     7.82913
      C   13   -0.13360      0.99952     2.12290    0.01119     3.13360
      C   14   -0.09781      0.99936     2.08826    0.01020     3.09781
      C   15   -0.29288      0.99962     2.28807    0.00520     3.29288
      H   16    0.09128      0.00000     0.40779    0.00093     0.40872
      H   17    0.08970      0.00000     0.40864    0.00167     0.41030
      H   18    0.11591      0.00000     0.38296    0.00113     0.38409
      H   19    0.08224      0.00000     0.41598    0.00178     0.41776
      H   20    0.11656      0.00000     0.38232    0.00112     0.38344
      H   21    0.09117      0.00000     0.40784    0.00099     0.40883
      H   22    0.08703      0.00000     0.41190    0.00107     0.41297
      H   23    0.12247      0.00000     0.37624    0.00129     0.37753
      H   24    0.10988      0.00000     0.38869    0.00143     0.39012
      H   25    0.09651      0.00000     0.40230    0.00119     0.40349
      H   26    0.09652      0.00000     0.40229    0.00119     0.40348
      H   27    0.10198      0.00000     0.39703    0.00099     0.39802
 =======================================================================
   * Total *    0.00001     18.99371    38.81940    0.18688    57.99999

 Normal termination of Gaussian 16 at Thu Dec 10 15:51:48 2020.
