 Gaussian 16, Revision A.03,

 -----------------------------------------------------------
 # opt freq B3LYP/6-31G(d) empiricaldispersion=gd3bj scf=xqc
 -----------------------------------------------------------

 -------------------------------
 CID_101608298_JID_1365_neutraal
 -------------------------------
 Symbolic Z-matrix:
 Charge =  0 Multiplicity = 1

 SCF Done:  E(RB3LYP) =  -494.417208813     A.U. after   15 cycles
 SCF Done:  E(RB3LYP) =  -494.421171687     A.U. after   12 cycles
 SCF Done:  E(RB3LYP) =  -494.421465468     A.U. after   11 cycles
 SCF Done:  E(RB3LYP) =  -494.421473257     A.U. after    8 cycles
 SCF Done:  E(RB3LYP) =  -494.421474084     A.U. after    7 cycles
 SCF Done:  E(RB3LYP) =  -494.421474492     A.U. after    7 cycles
 SCF Done:  E(RB3LYP) =  -494.421474802     A.U. after    7 cycles
 SCF Done:  E(RB3LYP) =  -494.421474880     A.U. after    7 cycles
 Optimization completed.
    -- Stationary point found.
 Normal termination of Gaussian 16 at Tue Dec  8 19:46:16 2020.

 --------------------------------------------------------------------
 #N Geom=AllCheck Guess=TCheck SCRF=Check GenChk RB3LYP/6-31G(d) Freq
 --------------------------------------------------------------------

 Structure from the checkpoint file:  "JID_1365.chk"
 -------------------------------
 CID_101608298_JID_1365_neutraal
 -------------------------------
 Charge =  0 Multiplicity = 1

 SCF Done:  E(RB3LYP) =  -494.421474880     A.U. after    1 cycles

  Exact polarizability: 149.584   2.826  91.556  -0.000  -0.000  46.234
 Approx polarizability: 232.424  -3.272 165.214  -0.001  -0.000  71.326

                      1                      2                      3
                      A                      A                      A
 Frequencies --    123.1453               130.9363               144.2782
 Red. masses --      1.2980                 2.1051                 2.0671
 Frc consts  --      0.0116                 0.0213                 0.0254
 IR Inten    --      0.0910                 0.1327                 4.1369

                      4                      5                      6
                      A                      A                      A
 Frequencies --    180.5096               304.7247               318.0654
 Red. masses --      1.3324                 2.4995                 3.2826
 Frc consts  --      0.0256                 0.1367                 0.1957
 IR Inten    --      0.3123                 0.5481                 4.0849

                      7                      8                      9
                      A                      A                      A
 Frequencies --    336.4135               358.1476               459.0933
 Red. masses --      5.1178                 3.9521                 9.2973
 Frc consts  --      0.3413                 0.2987                 1.1545
 IR Inten    --      0.2733                 0.1185                 8.6778

                     10                     11                     12
                      A                      A                      A
 Frequencies --    499.8264               503.2925               582.2632
 Red. masses --      4.8006                 6.2556                 3.7840
 Frc consts  --      0.7066                 0.9336                 0.7559
 IR Inten    --      4.5042                 2.0247                 0.0979

                     13                     14                     15
                      A                      A                      A
 Frequencies --    604.7388               674.3061               729.5015
 Red. masses --      4.3572                 3.6566                 7.8044
 Frc consts  --      0.9388                 0.9796                 2.4471
 IR Inten    --     12.4615                 1.9366                 2.9966

                     16                     17                     18
                      A                      A                      A
 Frequencies --    761.0042               766.7559               810.1904
 Red. masses --      1.4881                 7.6833                 4.5530
 Frc consts  --      0.5078                 2.6614                 1.7608
 IR Inten    --     32.4531                 4.0046                 5.5514

                     19                     20                     21
                      A                      A                      A
 Frequencies --    858.2013               870.8412               907.5051
 Red. masses --      5.2647                 1.3140                 3.8656
 Frc consts  --      2.2846                 0.5871                 1.8757
 IR Inten    --      2.2482                 0.6834                17.2654

                     22                     23                     24
                      A                      A                      A
 Frequencies --   1019.6742              1032.5924              1051.5368
 Red. masses --      1.6583                 1.8394                 1.4070
 Frc consts  --      1.0159                 1.1555                 0.9166
 IR Inten    --     33.9263                 1.1958                 3.0864

                     25                     26                     27
                      A                      A                      A
 Frequencies --   1069.9468              1082.2153              1138.6963
 Red. masses --      2.2041                 1.6304                 3.2090
 Frc consts  --      1.4866                 1.1251                 2.4515
 IR Inten    --     17.6494                 0.0006                 9.4635

                     28                     29                     30
                      A                      A                      A
 Frequencies --   1167.9974              1237.3033              1297.2857
 Red. masses --      1.8779                 3.6032                 6.5247
 Frc consts  --      1.5094                 3.2501                 6.4697
 IR Inten    --     35.9149                27.7459                31.5842

                     31                     32                     33
                      A                      A                      A
 Frequencies --   1347.4762              1382.4241              1397.2737
 Red. masses --      2.6942                 4.3746                 6.3712
 Frc consts  --      2.8822                 4.9257                 7.3289
 IR Inten    --     13.1998                 3.3220               148.1822

                     34                     35                     36
                      A                      A                      A
 Frequencies --   1427.4717              1444.7259              1483.2502
 Red. masses --      1.3095                 1.3816                 1.5814
 Frc consts  --      1.5722                 1.6990                 2.0498
 IR Inten    --      6.0369                 7.8848                 3.3723

                     37                     38                     39
                      A                      A                      A
 Frequencies --   1506.1201              1513.7933              1520.7496
 Red. masses --      1.0456                 1.0799                 1.0440
 Frc consts  --      1.3974                 1.4580                 1.4226
 IR Inten    --      0.0973                 4.0504                17.6574

                     40                     41                     42
                      A                      A                      A
 Frequencies --   1536.5759              1577.6233              1604.8628
 Red. masses --      2.1874                 4.9447                 7.8366
 Frc consts  --      3.0429                 7.2509                11.8920
 IR Inten    --     13.5516                17.8663                 2.2995

                     43                     44                     45
                      A                      A                      A
 Frequencies --   1641.1338              3044.3276              3045.5371
 Red. masses --      9.9478                 1.0401                 1.0392
 Frc consts  --     15.7858                 5.6796                 5.6788
 IR Inten    --      1.9909                 4.8280                38.5753

                     46                     47                     48
                      A                      A                      A
 Frequencies --   3092.3370              3094.1345              3160.3677
 Red. masses --      1.1001                 1.1002                 1.0993
 Frc consts  --      6.1981                 6.2056                 6.4689
 IR Inten    --     28.3118                 4.8665                14.6363

                     49                     50                     51
                      A                      A                      A
 Frequencies --   3160.6223              3279.1165              3303.0954
 Red. masses --      1.0992                 1.0916                 1.1053
 Frc consts  --      6.4696                 6.9159                 7.1050
 IR Inten    --      1.4455                 1.3490                 0.5935

 - Thermochemistry -
 -------------------
 Temperature   298.150 Kelvin.  Pressure   1.00000 Atm.
 Atom     1 has atomic number  6 and mass  12.00000

 Molecular mass:   148.06366 amu.
 Principal axes and moments of inertia in atomic units:
                           1         2         3
     Eigenvalues --   706.003751990.874172674.52516
           X            0.99992   0.01303  -0.00000
           Y           -0.01303   0.99992   0.00000
           Z            0.00000  -0.00000   1.00000
 This molecule is an asymmetric top.
 Rotational symmetry number  1.
 Warning -- assumption of classical behavior for rotation
           may cause significant error
 Rotational temperatures (Kelvin)      0.12268     0.04351     0.03238
 Rotational constants (GHZ):           2.55628     0.90651     0.67479
 Zero-point vibrational energy     392279.5 (Joules/Mol)
                                   93.75705 (Kcal/Mol)
 Warning -- explicit consideration of  13 degrees of freedom as
           vibrations may cause significant error
 Vibrational temperatures:    177.18   188.39   207.58   259.71   438.43
          (Kelvin)            457.63   484.02   515.29   660.53   719.14
                              724.13   837.75   870.08   970.18  1049.59
                             1094.92  1103.19  1165.68  1234.76  1252.95
                             1305.70  1467.08  1485.67  1512.93  1539.41
                             1557.07  1638.33  1680.49  1780.20  1866.50
                             1938.72  1989.00  2010.37  2053.81  2078.64
                             2134.07  2166.97  2178.01  2188.02  2210.79
                             2269.85  2309.04  2361.23  4380.11  4381.85
                             4449.18  4451.77  4547.06  4547.43  4717.92
                             4752.42

 Zero-point correction=                           0.149411 (Hartree/Particle)
 Thermal correction to Energy=                    0.158372
 Thermal correction to Enthalpy=                  0.159316
 Thermal correction to Gibbs Free Energy=         0.115519
 Sum of electronic and zero-point Energies=           -494.272064
 Sum of electronic and thermal Energies=              -494.263103
 Sum of electronic and thermal Enthalpies=            -494.262159
 Sum of electronic and thermal Free Energies=         -494.305956

                     E (Thermal)             CV                S
                      KCal/Mol        Cal/Mol-Kelvin    Cal/Mol-Kelvin
 Total                   99.380             34.760             92.179
 Electronic               0.000              0.000              0.000
 Translational            0.889              2.981             40.888
 Rotational               0.889              2.981             29.709
 Vibrational             97.602             28.798             21.582
 Vibration     1          0.610              1.930              3.050
 Vibration     2          0.612              1.922              2.932
 Vibration     3          0.616              1.909              2.746
 Vibration     4          0.629              1.866              2.323
 Vibration     5          0.696              1.665              1.391
 Vibration     6          0.704              1.639              1.320
 Vibration     7          0.717              1.603              1.229
 Vibration     8          0.733              1.559              1.130
 Vibration     9          0.817              1.341              0.769
 Vibration    10          0.855              1.250              0.659
 Vibration    11          0.859              1.243              0.650
 Vibration    12          0.939              1.070              0.481
 Vibration    13          0.963              1.022              0.442

 Optimization completed.
    -- Stationary point found.
 Normal termination of Gaussian 16 at Tue Dec  8 19:49:51 2020.

 ----------------------------------------------------------------------
 # B3LYP/6-311++G(d,p) empiricaldispersion=gd3bj scf=xqc pop=npa geom=c
 heck
 ----------------------------------------------------------------------

 ---------------------------------------
 CID_101608298_JID_1365_Energie_neutraal
 ---------------------------------------
 Structure from the checkpoint file:  "JID_1365.chk"
 Charge =  0 Multiplicity = 1

 SCF Done:  E(RB3LYP) =  -494.550023980     A.U. after   14 cycles
 Normal termination of Gaussian 16 at Tue Dec  8 19:51:09 2020.

 ----------------------------------------------------------------------
 # B3LYP/6-311++G(d,p) empiricaldispersion=gd3bj scf=xqc pop=npa geom=c
 heck
 ----------------------------------------------------------------------

 -------------------------------------
 CID_101608298_JID_1365_Energie_kation
 -------------------------------------
 Structure from the checkpoint file:  "JID_1365.chk"
 Charge =  1 Multiplicity = 2

 SCF Done:  E(UB3LYP) =  -494.236099793     A.U. after   19 cycles
 Normal termination of Gaussian 16 at Tue Dec  8 19:54:06 2020.
 Gaussian 16:  ES64L-G16RevA.03 25-Dec-2016

 ----------------------------------------------------------------------
 # B3LYP/6-311++G(d,p) empiricaldispersion=gd3bj scf=xqc pop=npa geom=c
 heck
 ----------------------------------------------------------------------

 ------------------------------------
 CID_101608298_JID_1365_Energie_anion
 ------------------------------------
 Structure from the checkpoint file:  "JID_1365.chk"
 Charge = -1 Multiplicity = 2

                         Standard orientation:
 ---------------------------------------------------------------------
 Center     Atomic      Atomic             Coordinates (Angstroms)
 Number     Number       Type             X           Y           Z
 ---------------------------------------------------------------------
      1          6           0       -2.634583    1.467525    0.000018
      2          6           0       -1.328587    0.718421   -0.000016
      3          6           0       -1.311119   -0.706880   -0.000021
      4          7           0       -0.161612   -1.405389   -0.000014
      5          6           0        0.915900   -0.651411   -0.000001
      6          6           0        0.934531    0.755317   -0.000013
      7          7           0       -0.208388    1.454143   -0.000016
      8          6           0        2.324043    1.133323    0.000027
      9          6           0        3.012283   -0.038041   -0.000022
     10          8           0        2.189711   -1.143831    0.000026
     11          6           0       -2.589141   -1.499822    0.000006
     12          1           0       -2.433720    2.540434    0.000384
     13          1           0       -3.240480    1.221558    0.881051
     14          1           0       -3.240168    1.222136   -0.881398
     15          1           0        2.738818    2.130665    0.000042
     16          1           0        4.067979   -0.263276   -0.000029
     17          1           0       -2.354444   -2.565881   -0.000414
     18          1           0       -3.202594   -1.273747    0.881242
     19          1           0       -3.203047   -1.273111   -0.880741
 ---------------------------------------------------------------------

 SCF Done:  E(UB3LYP) =  -494.550233623     A.U. after   30 cycles

 The electronic state is 2-A.
 Alpha  occ. eigenvalues --  -19.02421 -14.12365 -14.11649 -10.07843 -10.05927
 Alpha  occ. eigenvalues --  -10.03652 -10.03063 -10.02746 -10.02580 -10.02438
 Alpha  occ. eigenvalues --  -10.01319  -0.95098  -0.79403  -0.73168  -0.64290
 Alpha  occ. eigenvalues --   -0.61958  -0.57422  -0.54743  -0.47041  -0.44438
 Alpha  occ. eigenvalues --   -0.42442  -0.38263  -0.33789  -0.31210  -0.30196
 Alpha  occ. eigenvalues --   -0.29561  -0.29204  -0.26589  -0.25538  -0.24913
 Alpha  occ. eigenvalues --   -0.24783  -0.22935  -0.21647  -0.21179  -0.16921
 Alpha  occ. eigenvalues --   -0.13202  -0.10387  -0.07537  -0.07171   0.06413
 Alpha virt. eigenvalues --    0.09096   0.09964   0.10894   0.11978   0.12344
 Alpha virt. eigenvalues --    0.13955   0.14651   0.15150   0.15336   0.15727
 Alpha virt. eigenvalues --    0.17299   0.17620   0.17954   0.18849   0.19799

  Beta  occ. eigenvalues --  -19.02414 -14.11787 -14.10950 -10.07916 -10.05570
  Beta  occ. eigenvalues --  -10.03685 -10.02823 -10.02749 -10.02601 -10.02326
  Beta  occ. eigenvalues --  -10.01342  -0.94982  -0.78611  -0.72128  -0.64027
  Beta  occ. eigenvalues --   -0.61576  -0.57291  -0.54325  -0.46444  -0.44256
  Beta  occ. eigenvalues --   -0.42171  -0.37965  -0.33499  -0.30524  -0.29941
  Beta  occ. eigenvalues --   -0.29397  -0.28914  -0.26464  -0.25496  -0.24809
  Beta  occ. eigenvalues --   -0.24619  -0.22798  -0.21491  -0.19575  -0.14712
  Beta  occ. eigenvalues --   -0.12359  -0.08901  -0.06843  -0.05509
  Beta virt. eigenvalues --    0.09038   0.09930   0.10828   0.11951   0.12099
  Beta virt. eigenvalues --    0.13587   0.13897   0.14798   0.15080   0.15275
  Beta virt. eigenvalues --    0.16500   0.17226   0.18090   0.18470   0.18788

 Mulliken charges and spin densities:
               1          2
     1  C   -0.610536   0.007123
     2  C   -0.023029  -0.040618
     3  C    0.055274   0.156890
     4  N   -0.254992   0.278258
     5  C   -0.271759  -0.042947
     6  C    0.298073   0.075986
     7  N   -0.131558   0.332208
     8  C   -0.330611  -0.026684
     9  C   -0.074177   0.280035
    10  O   -0.092629  -0.012105
    11  C   -0.479134  -0.016275
    12  H    0.132753  -0.005135
    13  H    0.108485   0.002432
    14  H    0.108484   0.002424
    15  H    0.104634   0.000763
    16  H    0.131512  -0.021937
    17  H    0.130674  -0.002926
    18  H    0.099185   0.016349
    19  H    0.099352   0.016158
 Sum of Mulliken charges =  -1.00000   1.00000

 Dipole moment (field-independent basis, Debye):
    X=             -1.2435    Y=              0.5412    Z=             -0.0005  Tot=              1.3562
 Quadrupole moment (field-independent basis, Debye-Ang):
   XX=            -82.1381   YY=            -85.0565   ZZ=            -72.0915
   XY=              1.9148   XZ=              0.0024   YZ=              0.0010

 Summary of Natural Population Analysis:

                                       Natural Population
                Natural  -----------------------------------------------
    Atom  No    Charge         Core      Valence    Rydberg      Total
 -----------------------------------------------------------------------
      C    1   -0.29512      0.99964     2.29033    0.00514     3.29512
      C    2    0.06328      0.99953     1.92408    0.01311     2.93672
      C    3    0.11297      0.99953     1.87383    0.01367     2.88703
      N    4   -0.17343      0.99962     2.65937    0.01444     3.67343
      C    5    0.22361      0.99937     1.75782    0.01920     2.77639
      C    6    0.05277      0.99947     1.93415    0.01360     2.94723
      N    7   -0.14293      0.99965     2.62744    0.01584     3.64293
      C    8   -0.17302      0.99954     2.16407    0.00941     3.17302
      C    9    0.12795      0.99952     1.85815    0.01439     2.87205
      O   10   -0.25069      0.99986     3.24179    0.00904     4.25069
      C   11   -0.29875      0.99965     2.29374    0.00537     3.29875
      H   12    0.10211      0.00000     0.39500    0.00288     0.39789
      H   13    0.09202      0.00000     0.40633    0.00164     0.40798
      H   14    0.09202      0.00000     0.40633    0.00165     0.40798
      H   15    0.09822      0.00000     0.40018    0.00161     0.40178
      H   16    0.07809      0.00000     0.42104    0.00087     0.42191
      H   17    0.10345      0.00000     0.39531    0.00124     0.39655
      H   18    0.09372      0.00000     0.40447    0.00180     0.40628
      H   19    0.09373      0.00000     0.40447    0.00180     0.40627
 =======================================================================
   * Total *   -0.00000     10.99538    27.85790    0.14671    39.00000

 Normal termination of Gaussian 16 at Tue Dec  8 19:58:15 2020.
