 Gaussian 16, Revision A.03,

 -----------------------------------------------------------
 # opt freq B3LYP/6-31G(d) empiricaldispersion=gd3bj scf=xqc
 -----------------------------------------------------------

 ------------------------------
 CID_83391283_JID_2263_neutraal
 ------------------------------
 Symbolic Z-matrix:
 Charge =  0 Multiplicity = 1

 SCF Done:  E(RB3LYP) =  -589.513910491     A.U. after   15 cycles
 SCF Done:  E(RB3LYP) =  -589.515211433     A.U. after   14 cycles
 SCF Done:  E(RB3LYP) =  -589.515836739     A.U. after   14 cycles
 SCF Done:  E(RB3LYP) =  -589.516630019     A.U. after   13 cycles
 SCF Done:  E(RB3LYP) =  -589.516412248     A.U. after   13 cycles
 SCF Done:  E(RB3LYP) =  -589.516843928     A.U. after   13 cycles
 SCF Done:  E(RB3LYP) =  -589.516873906     A.U. after   11 cycles
 SCF Done:  E(RB3LYP) =  -589.516879666     A.U. after   11 cycles
 SCF Done:  E(RB3LYP) =  -589.516881961     A.U. after   10 cycles
 SCF Done:  E(RB3LYP) =  -589.516886564     A.U. after   10 cycles
 SCF Done:  E(RB3LYP) =  -589.516935362     A.U. after    9 cycles
 SCF Done:  E(RB3LYP) =  -589.516939990     A.U. after   11 cycles
 SCF Done:  E(RB3LYP) =  -589.516940221     A.U. after    9 cycles
 SCF Done:  E(RB3LYP) =  -589.516940281     A.U. after    8 cycles
 SCF Done:  E(RB3LYP) =  -589.516940293     A.U. after    7 cycles
 Optimization completed on the basis of negligible forces.
    -- Stationary point found.
 Normal termination of Gaussian 16 at Wed Dec  9 16:59:05 2020.

 --------------------------------------------------------------------
 #N Geom=AllCheck Guess=TCheck SCRF=Check GenChk RB3LYP/6-31G(d) Freq
 --------------------------------------------------------------------

 Structure from the checkpoint file:  "JID_2263.chk"
 ------------------------------
 CID_83391283_JID_2263_neutraal
 ------------------------------
 Charge =  0 Multiplicity = 1

 SCF Done:  E(RB3LYP) =  -589.516940293     A.U. after    1 cycles

  Exact polarizability: 145.990  -5.495  96.717   1.674   1.317  46.004
 Approx polarizability: 205.255 -20.354 184.351   3.176  -0.057  73.548

                      1                      2                      3
                      A                      A                      A
 Frequencies --     20.4917                23.0848                40.6383
 Red. masses --      1.0776                 5.4324                 8.0164
 Frc consts  --      0.0003                 0.0017                 0.0078
 IR Inten    --      0.0455                 1.1248                 3.1789

                      4                      5                      6
                      A                      A                      A
 Frequencies --     91.7984               155.2362               242.0804
 Red. masses --      4.5355                 5.9713                 5.7000
 Frc consts  --      0.0225                 0.0848                 0.1968
 IR Inten    --      0.1287                 1.3751                 3.8401

                      7                      8                      9
                      A                      A                      A
 Frequencies --    267.4983               317.7221               352.5930
 Red. masses --      5.2611                 6.0704                 3.5808
 Frc consts  --      0.2218                 0.3610                 0.2623
 IR Inten    --      4.2044                 1.2094                 0.7933

                     10                     11                     12
                      A                      A                      A
 Frequencies --    386.8448               414.4111               424.6041
 Red. masses --      6.5079                 3.5736                 4.9713
 Frc consts  --      0.5738                 0.3616                 0.5281
 IR Inten    --      0.0228                 3.5223                 0.2165

                     13                     14                     15
                      A                      A                      A
 Frequencies --    494.0589               601.0921               625.3500
 Red. masses --      3.1693                 2.9754                 4.6647
 Frc consts  --      0.4558                 0.6334                 1.0748
 IR Inten    --      0.2243                22.1680                62.5612

                     16                     17                     18
                      A                      A                      A
 Frequencies --    657.7279               680.9426               704.2431
 Red. masses --      4.9965                 2.1194                 3.7150
 Frc consts  --      1.2735                 0.5790                 1.0856
 IR Inten    --      7.4041               125.4526                74.6626

                     19                     20                     21
                      A                      A                      A
 Frequencies --    759.9604               816.5471               836.8736
 Red. masses --      4.8948                 2.5571                 6.1479
 Frc consts  --      1.6656                 1.0045                 2.5369
 IR Inten    --     10.0451                 2.9489                 2.3697

                     22                     23                     24
                      A                      A                      A
 Frequencies --    872.8910               952.1316               993.0790
 Red. masses --      2.1610                 1.3023                 1.3392
 Frc consts  --      0.9701                 0.6956                 0.7781
 IR Inten    --     15.6669                 0.3024                 1.5561

                     25                     26                     27
                      A                      A                      A
 Frequencies --   1005.8875              1025.3269              1053.7865
 Red. masses --      5.4724                 1.6446                 3.0005
 Frc consts  --      3.2623                 1.0186                 1.9631
 IR Inten    --    130.8765                15.3949                17.7850

                     28                     29                     30
                      A                      A                      A
 Frequencies --   1076.5958              1177.4590              1195.5987
 Red. masses --      1.5543                 1.4111                 2.4601
 Frc consts  --      1.0614                 1.1527                 2.0720
 IR Inten    --      5.4567               128.9237               204.7275

                     31                     32                     33
                      A                      A                      A
 Frequencies --   1252.9876              1273.6073              1328.8393
 Red. masses --      3.4408                 2.1803                 4.5828
 Frc consts  --      3.1828                 2.0837                 4.7678
 IR Inten    --     18.8022                14.0010                 8.4285

                     34                     35                     36
                      A                      A                      A
 Frequencies --   1356.0700              1406.9430              1431.0266
 Red. masses --      1.7102                 3.1722                 2.6990
 Frc consts  --      1.8529                 3.6996                 3.2565
 IR Inten    --      3.6938                21.1610                14.7635

                     37                     38                     39
                      A                      A                      A
 Frequencies --   1444.0393              1513.6418              1519.4669
 Red. masses --      1.2585                 1.0440                 1.2190
 Frc consts  --      1.5462                 1.4093                 1.6582
 IR Inten    --      0.1456                 6.7714                 5.1348

                     40                     41                     42
                      A                      A                      A
 Frequencies --   1524.2025              1617.1545              1648.2898
 Red. masses --      2.1625                 4.8806                 5.7433
 Frc consts  --      2.9601                 7.5201                 9.1935
 IR Inten    --      4.6500                14.7398                20.9994

                     43                     44                     45
                      A                      A                      A
 Frequencies --   1796.7985              1822.1955              3050.0976
 Red. masses --     13.0965                10.5926                 1.0372
 Frc consts  --     24.9117                20.7225                 5.6852
 IR Inten    --    171.6261               225.1668                19.4160

                     46                     47                     48
                      A                      A                      A
 Frequencies --   3104.7400              3133.6498              3161.1569
 Red. masses --      1.1009                 1.1014                 1.0904
 Frc consts  --      6.2524                 6.3721                 6.4199
 IR Inten    --     13.2912                11.2703                33.6264

                     49                     50                     51
                      A                      A                      A
 Frequencies --   3190.1635              3259.1701              3676.3688
 Red. masses --      1.0910                 1.0924                 1.0640
 Frc consts  --      6.5416                 6.8367                 8.4729
 IR Inten    --     12.5800                 0.7263                62.9773

 - Thermochemistry -
 -------------------
 Temperature   298.150 Kelvin.  Pressure   1.00000 Atm.
 Atom     1 has atomic number  6 and mass  12.00000

 Molecular mass:   165.04259 amu.
 Principal axes and moments of inertia in atomic units:
                           1         2         3
     Eigenvalues --   724.131973466.207764078.32916
           X            1.00000  -0.00127   0.00063
           Y            0.00126   0.99994   0.01127
           Z           -0.00065  -0.01127   0.99994
 This molecule is an asymmetric top.
 Rotational symmetry number  1.
 Warning -- assumption of classical behavior for rotation
           may cause significant error
 Rotational temperatures (Kelvin)      0.11961     0.02499     0.02124
 Rotational constants (GHZ):           2.49228     0.52067     0.44252
 Zero-point vibrational energy     369509.5 (Joules/Mol)
                                   88.31489 (Kcal/Mol)
 Warning -- explicit consideration of  14 degrees of freedom as
           vibrations may cause significant error
 Vibrational temperatures:     29.48    33.21    58.47   132.08   223.35
          (Kelvin)            348.30   384.87   457.13   507.30   556.58
                              596.25   610.91   710.84   864.84   899.74
                              946.32   979.72  1013.25  1093.41  1174.83
                             1204.07  1255.90  1369.91  1428.82  1447.25
                             1475.22  1516.16  1548.98  1694.10  1720.20
                             1802.77  1832.44  1911.90  1951.08  2024.28
                             2058.93  2077.65  2177.79  2186.17  2192.99
                             2326.72  2371.52  2585.19  2621.73  4388.41
                             4467.03  4508.62  4548.20  4589.93  4689.22
                             5289.47

 Zero-point correction=                           0.140739 (Hartree/Particle)
 Thermal correction to Energy=                    0.151743
 Thermal correction to Enthalpy=                  0.152687
 Thermal correction to Gibbs Free Energy=         0.100849
 Sum of electronic and zero-point Energies=           -589.376202
 Sum of electronic and thermal Energies=              -589.365197
 Sum of electronic and thermal Enthalpies=            -589.364253
 Sum of electronic and thermal Free Energies=         -589.416091

                     E (Thermal)             CV                S
                      KCal/Mol        Cal/Mol-Kelvin    Cal/Mol-Kelvin
 Total                   95.220             39.004            109.102
 Electronic               0.000              0.000              0.000
 Translational            0.889              2.981             41.211
 Rotational               0.889              2.981             30.705
 Vibrational             93.443             33.043             37.186
 Vibration     1          0.593              1.986              6.586
 Vibration     2          0.593              1.985              6.349
 Vibration     3          0.594              1.981              5.228
 Vibration     4          0.602              1.955              3.621
 Vibration     5          0.620              1.897              2.607
 Vibration     6          0.658              1.776              1.788
 Vibration     7          0.673              1.733              1.612
 Vibration     8          0.704              1.640              1.322
 Vibration     9          0.729              1.570              1.155
 Vibration    10          0.755              1.498              1.012
 Vibration    11          0.778              1.439              0.911
 Vibration    12          0.787              1.417              0.876
 Vibration    13          0.850              1.263              0.673
 Vibration    14          0.959              1.029              0.448

 Optimization completed on the basis of negligible forces.
    -- Stationary point found.
 Normal termination of Gaussian 16 at Wed Dec  9 17:02:55 2020.

 ----------------------------------------------------------------------
 # B3LYP/6-311++G(d,p) empiricaldispersion=gd3bj scf=xqc pop=npa geom=c
 heck
 ----------------------------------------------------------------------

 --------------------------------------
 CID_83391283_JID_2263_Energie_neutraal
 --------------------------------------
 Structure from the checkpoint file:  "JID_2263.chk"
 Charge =  0 Multiplicity = 1

 SCF Done:  E(RB3LYP) =  -589.689930010     A.U. after   15 cycles
 Normal termination of Gaussian 16 at Wed Dec  9 17:04:41 2020.

 ----------------------------------------------------------------------
 # B3LYP/6-311++G(d,p) empiricaldispersion=gd3bj scf=xqc pop=npa geom=c
 heck
 ----------------------------------------------------------------------

 ------------------------------------
 CID_83391283_JID_2263_Energie_kation
 ------------------------------------
 Structure from the checkpoint file:  "JID_2263.chk"
 Charge =  1 Multiplicity = 2

 SCF Done:  E(UB3LYP) =  -589.350186608     A.U. after   33 cycles
 SCF Done:  E(UB3LYP) =  -589.350186608     a.u. after    1 cycles
 Normal termination of Gaussian 16 at Wed Dec  9 17:09:46 2020.
 Gaussian 16:  ES64L-G16RevA.03 25-Dec-2016

 ----------------------------------------------------------------------
 # B3LYP/6-311++G(d,p) empiricaldispersion=gd3bj scf=xqc pop=npa geom=c
 heck
 ----------------------------------------------------------------------

 -----------------------------------
 CID_83391283_JID_2263_Energie_anion
 -----------------------------------
 Structure from the checkpoint file:  "JID_2263.chk"
 Charge = -1 Multiplicity = 2

                         Standard orientation:
 ---------------------------------------------------------------------
 Center     Atomic      Atomic             Coordinates (Angstroms)
 Number     Number       Type             X           Y           Z
 ---------------------------------------------------------------------
      1          6           0        4.183478   -0.350009   -0.091463
      2          6           0        2.691176   -0.161982   -0.049871
      3          6           0        2.119874    1.112902    0.106610
      4          7           0        0.814826    1.355100    0.145351
      5          6           0       -0.023545    0.309593    0.036014
      6          6           0        0.432621   -1.006291   -0.119468
      7          6           0        1.805061   -1.234550   -0.164155
      8          6           0       -1.477367    0.673168    0.047197
      9          8           0       -1.879905    1.816127    0.075828
     10          6           0       -2.517750   -0.466275    0.067670
     11          8           0       -2.381747   -1.520601    0.651504
     12          8           0       -3.631255   -0.117937   -0.595750
     13          1           0        4.501769   -0.776158   -1.050445
     14          1           0        4.707833    0.600319    0.044798
     15          1           0        4.517945   -1.036909    0.694823
     16          1           0        2.769706    1.982273    0.204252
     17          1           0       -0.266733   -1.828809   -0.185983
     18          1           0        2.184492   -2.246320   -0.283909
     19          1           0       -4.256829   -0.860138   -0.488845
 ---------------------------------------------------------------------

 SCF Done:  E(UB3LYP) =  -589.728599641     A.U. after   26 cycles

 The electronic state is 2-A.
 Alpha  occ. eigenvalues --  -19.03070 -18.96436 -18.91525 -14.14751 -10.14312
 Alpha  occ. eigenvalues --  -10.06244 -10.06065 -10.06004 -10.04897 -10.04225
 Alpha  occ. eigenvalues --  -10.04107 -10.03287  -0.96963  -0.87689  -0.86091
 Alpha  occ. eigenvalues --   -0.79119  -0.67733  -0.63627  -0.57843  -0.53200
 Alpha  occ. eigenvalues --   -0.48766  -0.47801  -0.42270  -0.37161  -0.34846
 Alpha  occ. eigenvalues --   -0.34406  -0.32252  -0.31373  -0.31134  -0.29716
 Alpha  occ. eigenvalues --   -0.27995  -0.26861  -0.26225  -0.25729  -0.24343
 Alpha  occ. eigenvalues --   -0.22732  -0.21116  -0.18723  -0.15838  -0.14523
 Alpha  occ. eigenvalues --   -0.11642  -0.10571  -0.07430   0.02707
 Alpha virt. eigenvalues --    0.07831   0.09446   0.10222   0.10722   0.11240
 Alpha virt. eigenvalues --    0.11311   0.12904   0.13477   0.14350   0.16107
 Alpha virt. eigenvalues --    0.16761   0.17350   0.18023   0.18615   0.19254

  Beta  occ. eigenvalues --  -19.03029 -18.96231 -18.90756 -14.14446 -10.14201
  Beta  occ. eigenvalues --  -10.06153 -10.06025 -10.05979 -10.04843 -10.04194
  Beta  occ. eigenvalues --  -10.03864 -10.03250  -0.96773  -0.87389  -0.84782
  Beta  occ. eigenvalues --   -0.78678  -0.67354  -0.63382  -0.57554  -0.52612
  Beta  occ. eigenvalues --   -0.48644  -0.47390  -0.41846  -0.36980  -0.34607
  Beta  occ. eigenvalues --   -0.34207  -0.31984  -0.31025  -0.30515  -0.29341
  Beta  occ. eigenvalues --   -0.27923  -0.26569  -0.26039  -0.24714  -0.23821
  Beta  occ. eigenvalues --   -0.22455  -0.18767  -0.17537  -0.15372  -0.13571
  Beta  occ. eigenvalues --   -0.10241  -0.10168  -0.06745
  Beta virt. eigenvalues --    0.07791   0.09280   0.09443   0.10175   0.11212
  Beta virt. eigenvalues --    0.11331   0.11714   0.13426   0.14248   0.14448
  Beta virt. eigenvalues --    0.16075   0.16805   0.17392   0.18076   0.18634

 Mulliken charges and spin densities:
               1          2
     1  C   -0.517106  -0.019758
     2  C    0.735090   0.157907
     3  C   -0.518781  -0.062122
     4  N    0.011748   0.144609
     5  C   -0.033645   0.056834
     6  C    0.230969   0.041403
     7  C   -0.767059   0.026521
     8  C   -0.339698   0.162705
     9  O   -0.343254   0.281494
    10  C    0.014267   0.108619
    11  O   -0.365497   0.067548
    12  O   -0.130509   0.000614
    13  H    0.118627   0.019256
    14  H    0.117338   0.000294
    15  H    0.122441   0.014691
    16  H    0.129366   0.003698
    17  H    0.181514   0.000145
    18  H    0.127585  -0.003828
    19  H    0.226604  -0.000629
 Sum of Mulliken charges =  -1.00000   1.00000

 Dipole moment (field-independent basis, Debye):
    X=              3.6734    Y=             -4.0297    Z=             -1.1039  Tot=              5.5634
 Quadrupole moment (field-independent basis, Debye-Ang):
   XX=            -88.8554   YY=            -89.6356   ZZ=            -76.3801
   XY=              6.7635   XZ=              2.1753   YZ=              2.7657

 Summary of Natural Population Analysis:

                                       Natural Population
                Natural  -----------------------------------------------
    Atom  No    Charge         Core      Valence    Rydberg      Total
 -----------------------------------------------------------------------
      C    1   -0.29265      0.99965     2.28843    0.00457     3.29265
      C    2   -0.00117      0.99951     1.99396    0.00769     3.00117
      C    3    0.00192      0.99955     1.98460    0.01393     2.99808
      N    4   -0.16925      0.99968     2.65773    0.01183     3.66925
      C    5    0.06488      0.99951     1.92032    0.01529     2.93512
      C    6   -0.09579      0.99953     2.08849    0.00776     3.09579
      C    7   -0.09643      0.99953     2.08836    0.00854     3.09643
      C    8    0.23531      0.99961     1.74072    0.02436     2.76469
      O    9   -0.17907      0.99988     3.17234    0.00685     4.17907
      C   10    0.38682      0.99973     1.58604    0.02740     2.61318
      O   11   -0.30925      0.99987     3.30164    0.00774     4.30925
      O   12   -0.33743      0.99987     3.32927    0.00829     4.33743
      H   13    0.09841      0.00000     0.40054    0.00105     0.40159
      H   14    0.09650      0.00000     0.40240    0.00110     0.40350
      H   15    0.09843      0.00000     0.40053    0.00104     0.40157
      H   16    0.07748      0.00000     0.42122    0.00131     0.42252
      H   17    0.10957      0.00000     0.38919    0.00124     0.39043
      H   18    0.08887      0.00000     0.40969    0.00143     0.41113
      H   19    0.22283      0.00000     0.27105    0.00613     0.27717
 =======================================================================
   * Total *   -0.00000     11.99593    30.84652    0.15755    43.00000

 Normal termination of Gaussian 16 at Wed Dec  9 17:13:50 2020.
