 Gaussian 16, Revision A.03,

 -----------------------------------------------------------
 # opt freq B3LYP/6-31G(d) empiricaldispersion=gd3bj scf=xqc
 -----------------------------------------------------------

 -------------------------------
 CID_144346591_JID_1953_neutraal
 -------------------------------
 Symbolic Z-matrix:
 Charge =  0 Multiplicity = 1

 SCF Done:  E(RB3LYP) =  -430.009382896     A.U. after   13 cycles
 SCF Done:  E(RB3LYP) =  -430.012433109     A.U. after   12 cycles
 SCF Done:  E(RB3LYP) =  -430.012735750     A.U. after   11 cycles
 SCF Done:  E(RB3LYP) =  -430.012946643     A.U. after   12 cycles
 SCF Done:  E(RB3LYP) =  -430.013050856     A.U. after   11 cycles
 SCF Done:  E(RB3LYP) =  -430.013133377     A.U. after   11 cycles
 SCF Done:  E(RB3LYP) =  -430.013148710     A.U. after   10 cycles
 SCF Done:  E(RB3LYP) =  -430.013158749     A.U. after   10 cycles
 SCF Done:  E(RB3LYP) =  -430.013161612     A.U. after    9 cycles
 SCF Done:  E(RB3LYP) =  -430.013163013     A.U. after    9 cycles
 SCF Done:  E(RB3LYP) =  -430.013163395     A.U. after    8 cycles
 SCF Done:  E(RB3LYP) =  -430.013163485     A.U. after    7 cycles
 SCF Done:  E(RB3LYP) =  -430.013163535     A.U. after    7 cycles
 Optimization completed.
    -- Stationary point found.
 Normal termination of Gaussian 16 at Tue Dec  8 21:18:16 2020.

 --------------------------------------------------------------------
 #N Geom=AllCheck Guess=TCheck SCRF=Check GenChk RB3LYP/6-31G(d) Freq
 --------------------------------------------------------------------

 Structure from the checkpoint file:  "JID_1953.chk"
 -------------------------------
 CID_144346591_JID_1953_neutraal
 -------------------------------
 Charge =  0 Multiplicity = 1

 SCF Done:  E(RB3LYP) =  -430.013163535     A.U. after    1 cycles

  Exact polarizability: 157.053   0.581 111.867   7.561  -2.380  91.098
 Approx polarizability: 209.452   0.105 166.598  11.520  -2.656 127.904

                      1                      2                      3
                      A                      A                      A
 Frequencies --     21.1170                35.7965                84.6931
 Red. masses --      3.0370                 2.9963                 2.5726
 Frc consts  --      0.0008                 0.0023                 0.0109
 IR Inten    --      0.0267                 0.0217                 0.0049

                      4                      5                      6
                      A                      A                      A
 Frequencies --    114.7939               127.2930               136.4573
 Red. masses --      2.5608                 2.3020                 1.2231
 Frc consts  --      0.0199                 0.0220                 0.0134
 IR Inten    --      0.2013                 0.1435                 0.3806

                      7                      8                      9
                      A                      A                      A
 Frequencies --    181.4789               184.2055               202.7864
 Red. masses --      1.2618                 1.1058                 1.1074
 Frc consts  --      0.0245                 0.0221                 0.0268
 IR Inten    --      0.6109                 0.9781                 0.6876

                     10                     11                     12
                      A                      A                      A
 Frequencies --    209.5156               261.2762               269.8786
 Red. masses --      2.2152                 2.2580                 2.4539
 Frc consts  --      0.0573                 0.0908                 0.1053
 IR Inten    --      0.2249                 1.4590                 0.6880

                     13                     14                     15
                      A                      A                      A
 Frequencies --    289.6590               362.1696               401.6147
 Red. masses --      2.5249                 2.6943                 2.5541
 Frc consts  --      0.1248                 0.2082                 0.2427
 IR Inten    --      0.1743                 2.0285                 0.6390

                     16                     17                     18
                      A                      A                      A
 Frequencies --    415.0618               430.2607               543.5507
 Red. masses --      2.2210                 3.0781                 2.8974
 Frc consts  --      0.2254                 0.3357                 0.5044
 IR Inten    --      1.5919                 1.7165                 3.2395

                     19                     20                     21
                      A                      A                      A
 Frequencies --    555.1732               585.1463               607.8875
 Red. masses --      2.3332                 2.6691                 2.9447
 Frc consts  --      0.4237                 0.5385                 0.6411
 IR Inten    --      2.8175                12.5789                 5.7825

                     22                     23                     24
                      A                      A                      A
 Frequencies --    723.4998               816.6062               857.1575
 Red. masses --      1.4325                 1.5879                 1.6189
 Frc consts  --      0.4418                 0.6239                 0.7008
 IR Inten    --     22.8590                17.2254                 3.2453

                     25                     26                     27
                      A                      A                      A
 Frequencies --    866.8512               875.7251               908.7785
 Red. masses --      2.4135                 1.4151                 2.2889
 Frc consts  --      1.0685                 0.6394                 1.1138
 IR Inten    --      6.9274                 6.4958                 2.6653

                     28                     29                     30
                      A                      A                      A
 Frequencies --    958.2633               986.3623              1012.0304
 Red. masses --      1.8756                 1.6686                 1.3809
 Frc consts  --      1.0147                 0.9565                 0.8333
 IR Inten    --      4.8036                 0.5058                 3.3191

                     31                     32                     33
                      A                      A                      A
 Frequencies --   1018.1616              1061.4912              1074.1060
 Red. masses --      1.5613                 1.5512                 1.4966
 Frc consts  --      0.9536                 1.0298                 1.0173
 IR Inten    --      3.0475                 8.6065                11.4812

                     34                     35                     36
                      A                      A                      A
 Frequencies --   1075.7918              1076.1082              1080.0825
 Red. masses --      1.5122                 1.5358                 1.6232
 Frc consts  --      1.0312                 1.0479                 1.1156
 IR Inten    --      3.7095                 2.2888                 3.0148

                     37                     38                     39
                      A                      A                      A
 Frequencies --   1084.2285              1107.3223              1140.3080
 Red. masses --      1.4429                 2.7813                 1.9152
 Frc consts  --      0.9994                 2.0093                 1.4673
 IR Inten    --      4.6139                 1.0766                 3.8369

                     40                     41                     42
                      A                      A                      A
 Frequencies --   1195.7822              1223.1357              1268.8577
 Red. masses --      2.0177                 2.0561                 1.5207
 Frc consts  --      1.6999                 1.8124                 1.4426
 IR Inten    --      1.6369                 1.9737                 3.2776

                     43                     44                     45
                      A                      A                      A
 Frequencies --   1309.6237              1333.8386              1378.7476
 Red. masses --      1.1574                 1.2934                 1.3628
 Frc consts  --      1.1695                 1.3558                 1.5264
 IR Inten    --      2.5000                 1.8259                11.1138

                     46                     47                     48
                      A                      A                      A
 Frequencies --   1411.2828              1427.5659              1439.0826
 Red. masses --      1.7004                 1.2298                 1.2525
 Frc consts  --      1.9954                 1.4766                 1.5283
 IR Inten    --      2.9862                 5.9178                 1.7162

                     49                     50                     51
                      A                      A                      A
 Frequencies --   1442.0831              1442.4530              1455.2098
 Red. masses --      1.2801                 1.2843                 1.4082
 Frc consts  --      1.5685                 1.5744                 1.7570
 IR Inten    --      3.2157                 1.1976                 9.6458

                     52                     53                     54
                      A                      A                      A
 Frequencies --   1500.0226              1507.6213              1507.7699
 Red. masses --      1.0768                 1.0527                 1.0502
 Frc consts  --      1.4275                 1.4097                 1.4067
 IR Inten    --      2.0276                 7.7567                 7.2538

                     55                     56                     57
                      A                      A                      A
 Frequencies --   1513.4516              1515.2229              1519.7970
 Red. masses --      1.0465                 1.0653                 1.0504
 Frc consts  --      1.4122                 1.4410                 1.4295
 IR Inten    --      7.1655                 1.1961                 9.0325

                     58                     59                     60
                      A                      A                      A
 Frequencies --   1524.0644              1526.0432              1528.8768
 Red. masses --      1.0589                 1.0646                 1.0614
 Frc consts  --      1.4491                 1.4607                 1.4618
 IR Inten    --      4.4955                 8.4683                 3.4503

                     61                     62                     63
                      A                      A                      A
 Frequencies --   1725.9949              1734.1740              1751.0357
 Red. masses --      7.4039                 6.2523                 6.1016
 Frc consts  --     12.9955                11.0784                11.0226
 IR Inten    --      6.4226                 0.7381                 3.0887

                     64                     65                     66
                      A                      A                      A
 Frequencies --   3028.7229              3030.2263              3031.8113
 Red. masses --      1.0422                 1.0377                 1.0426
 Frc consts  --      5.6330                 5.6140                 5.6463
 IR Inten    --     44.2450                31.5427                24.6285

                     67                     68                     69
                      A                      A                      A
 Frequencies --   3035.1600              3050.5983              3073.8158
 Red. masses --      1.0405                 1.0640                 1.0969
 Frc consts  --      5.6475                 5.8341                 6.1063
 IR Inten    --     26.2049                29.5011                35.2752

                     70                     71                     72
                      A                      A                      A
 Frequencies --   3077.8777              3078.1945              3086.2418
 Red. masses --      1.0995                 1.1000                 1.0930
 Frc consts  --      6.1369                 6.1409                 6.1336
 IR Inten    --     20.2096                25.4455                17.9129

                     73                     74                     75
                      A                      A                      A
 Frequencies --   3107.0923              3110.5770              3120.1440
 Red. masses --      1.0949                 1.0869                 1.1007
 Frc consts  --      6.2279                 6.1959                 6.3133
 IR Inten    --     10.1276                22.8754                24.1548

                     76                     77                     78
                      A                      A                      A
 Frequencies --   3128.7027              3129.3510              3130.8391
 Red. masses --      1.1000                 1.0901                 1.0925
 Frc consts  --      6.3440                 6.2898                 6.3094
 IR Inten    --     34.2565                 3.3785                 3.3158

                     79                     80                     81
                      A                      A                      A
 Frequencies --   3140.1976              3146.1771              3159.8231
 Red. masses --      1.0901                 1.0928                 1.0950
 Frc consts  --      6.3334                 6.3729                 6.4413
 IR Inten    --     18.3947                50.8407                54.6861

 - Thermochemistry -
 -------------------
 Temperature   298.150 Kelvin.  Pressure   1.00000 Atm.
 Atom     1 has atomic number  6 and mass  12.00000

 Molecular mass:   150.14085 amu.
 Principal axes and moments of inertia in atomic units:
                           1         2         3
     Eigenvalues --  1076.059063316.307853523.18487
           X            0.99992  -0.00332   0.01216
           Y            0.00378   0.99926  -0.03836
           Z           -0.01203   0.03841   0.99919
 This molecule is an asymmetric top.
 Rotational symmetry number  1.
 Warning -- assumption of classical behavior for rotation
           may cause significant error
 Rotational temperatures (Kelvin)      0.08049     0.02612     0.02458
 Rotational constants (GHZ):           1.67718     0.54420     0.51225
 Zero-point vibrational energy     685400.3 (Joules/Mol)
                                  163.81460 (Kcal/Mol)
 Warning -- explicit consideration of  21 degrees of freedom as
           vibrations may cause significant error
 Vibrational temperatures:     30.38    51.50   121.85   165.16   183.15
          (Kelvin)            196.33   261.11   265.03   291.76   301.45
                              375.92   388.30   416.75   521.08   577.83
                              597.18   619.05   782.05   798.77   841.90
                              874.61  1040.95  1174.91  1233.26  1247.21
                             1259.97  1307.53  1378.73  1419.16  1456.09
                             1464.91  1527.25  1545.40  1547.82  1548.28
                             1554.00  1559.96  1593.19  1640.65  1720.46
                             1759.82  1825.60  1884.26  1919.10  1983.71
                             2030.52  2053.95  2070.52  2074.84  2075.37
                             2093.72  2158.20  2169.13  2169.34  2177.52
                             2180.07  2186.65  2192.79  2195.64  2199.71
                             2483.32  2495.09  2519.35  4357.66  4359.82
                             4362.10  4366.92  4389.13  4422.54  4428.38
                             4428.84  4440.41  4470.41  4475.43  4489.19
                             4501.51  4502.44  4504.58  4518.04  4526.65
                             4546.28

 Zero-point correction=                           0.261055 (Hartree/Particle)
 Thermal correction to Energy=                    0.274984
 Thermal correction to Enthalpy=                  0.275928
 Thermal correction to Gibbs Free Energy=         0.219695
 Sum of electronic and zero-point Energies=           -429.752108
 Sum of electronic and thermal Energies=              -429.738180
 Sum of electronic and thermal Enthalpies=            -429.737236
 Sum of electronic and thermal Free Energies=         -429.793469

                     E (Thermal)             CV                S
                      KCal/Mol        Cal/Mol-Kelvin    Cal/Mol-Kelvin
 Total                  172.555             50.102            118.353
 Electronic               0.000              0.000              0.000
 Translational            0.889              2.981             40.929
 Rotational               0.889              2.981             30.909
 Vibrational            170.777             44.140             46.515
 Vibration     1          0.593              1.985              6.526
 Vibration     2          0.594              1.982              5.479
 Vibration     3          0.601              1.960              3.779
 Vibration     4          0.608              1.937              3.186
 Vibration     5          0.611              1.926              2.987
 Vibration     6          0.614              1.917              2.853
 Vibration     7          0.630              1.865              2.313
 Vibration     8          0.631              1.861              2.285
 Vibration     9          0.639              1.836              2.108
 Vibration    10          0.642              1.826              2.048
 Vibration    11          0.669              1.744              1.653
 Vibration    12          0.674              1.729              1.597
 Vibration    13          0.686              1.693              1.476
 Vibration    14          0.736              1.550              1.113
 Vibration    15          0.767              1.467              0.957
 Vibration    16          0.778              1.438              0.909
 Vibration    17          0.791              1.404              0.858
 Vibration    18          0.899              1.154              0.558
 Vibration    19          0.911              1.128              0.534
 Vibration    20          0.942              1.063              0.476
 Vibration    21          0.967              1.015              0.436

                           ! Non-Optimized Parameters !
 Normal termination of Gaussian 16 at Tue Dec  8 21:25:13 2020.

 ----------------------------------------------------------------------
 # B3LYP/6-311++G(d,p) empiricaldispersion=gd3bj scf=xqc pop=npa geom=c
 heck
 ----------------------------------------------------------------------

 ---------------------------------------
 CID_144346591_JID_1953_Energie_neutraal
 ---------------------------------------
 Structure from the checkpoint file:  "JID_1953.chk"
 Charge =  0 Multiplicity = 1

 SCF Done:  E(RB3LYP) =  -430.132768880     A.U. after   14 cycles
 Normal termination of Gaussian 16 at Tue Dec  8 21:30:12 2020.

 ----------------------------------------------------------------------
 # B3LYP/6-311++G(d,p) empiricaldispersion=gd3bj scf=xqc pop=npa geom=c
 heck
 ----------------------------------------------------------------------

 -------------------------------------
 CID_144346591_JID_1953_Energie_kation
 -------------------------------------
 Structure from the checkpoint file:  "JID_1953.chk"
 Charge =  1 Multiplicity = 2

 SCF Done:  E(UB3LYP) =  -429.841470340     A.U. after   22 cycles
 Normal termination of Gaussian 16 at Tue Dec  8 21:38:14 2020.
 Gaussian 16:  ES64L-G16RevA.03 25-Dec-2016

 ----------------------------------------------------------------------
 # B3LYP/6-311++G(d,p) empiricaldispersion=gd3bj scf=xqc pop=npa geom=c
 heck
 ----------------------------------------------------------------------

 ------------------------------------
 CID_144346591_JID_1953_Energie_anion
 ------------------------------------
 Structure from the checkpoint file:  "JID_1953.chk"
 Charge = -1 Multiplicity = 2

                         Standard orientation:
 ---------------------------------------------------------------------
 Center     Atomic      Atomic             Coordinates (Angstroms)
 Number     Number       Type             X           Y           Z
 ---------------------------------------------------------------------
      1          6           0        3.910133   -0.770453   -0.015696
      2          6           0        3.139209    0.061786   -1.000176
      3          6           0        1.813195    0.219978   -1.072968
      4          6           0        0.758273   -0.396539   -0.186739
      5          6           0        0.062153    0.642748    0.672901
      6          6           0       -1.257575    0.890604    0.609670
      7          6           0       -2.271401    0.221346   -0.233588
      8          6           0       -2.545596   -1.094082   -0.184827
      9          6           0       -1.916887   -2.113787    0.718394
     10          6           0       -3.050561    1.147449   -1.139786
     11          6           0        0.957989    1.426062    1.597475
     12          1           0        3.264350   -1.285948    0.699954
     13          1           0        4.610199   -0.146294    0.555745
     14          1           0        4.515111   -1.528414   -0.530947
     15          1           0        3.749745    0.591092   -1.732517
     16          1           0        1.419181    0.880657   -1.845571
     17          1           0        0.016946   -0.897936   -0.815821
     18          1           0        1.200377   -1.165004    0.459926
     19          1           0       -1.639862    1.719524    1.210674
     20          1           0       -3.324091   -1.469911   -0.850030
     21          1           0       -2.687790   -2.721761    1.209241
     22          1           0       -1.276166   -2.810565    0.159501
     23          1           0       -1.303323   -1.642153    1.490493
     24          1           0       -3.524473    1.953248   -0.562402
     25          1           0       -2.389631    1.634299   -1.868715
     26          1           0       -3.835095    0.614689   -1.686638
     27          1           0        1.470396    0.755303    2.301603
     28          1           0        1.745236    1.945898    1.038708
     29          1           0        0.395309    2.162605    2.178845
 ---------------------------------------------------------------------

 SCF Done:  E(UB3LYP) =  -430.116317342     A.U. after   33 cycles
 SCF Done:  E(UB3LYP) =  -430.116317342     a.u. after    1 cycles

 The electronic state is 2-A.
 Alpha  occ. eigenvalues --  -10.08121 -10.07774 -10.06966 -10.06895 -10.06713
 Alpha  occ. eigenvalues --  -10.06697 -10.06647 -10.06354 -10.06339 -10.06290
 Alpha  occ. eigenvalues --  -10.06045  -0.73529  -0.70511  -0.67647  -0.63525
 Alpha  occ. eigenvalues --   -0.61457  -0.58553  -0.55951  -0.54040  -0.46295
 Alpha  occ. eigenvalues --   -0.43223  -0.39934  -0.38073  -0.36390  -0.34889
 Alpha  occ. eigenvalues --   -0.34122  -0.32785  -0.31261  -0.31203  -0.30586
 Alpha  occ. eigenvalues --   -0.30028  -0.29894  -0.27846  -0.27280  -0.26568
 Alpha  occ. eigenvalues --   -0.25940  -0.25220  -0.23757  -0.22931  -0.16587
 Alpha  occ. eigenvalues --   -0.14718  -0.12692   0.04477
 Alpha virt. eigenvalues --    0.06314   0.06987   0.07472   0.08477   0.08623
 Alpha virt. eigenvalues --    0.08974   0.09491   0.09806   0.10697   0.10833
 Alpha virt. eigenvalues --    0.11366   0.11661   0.12430   0.12519   0.13057

  Beta  occ. eigenvalues --  -10.08122 -10.07775 -10.06955 -10.06878 -10.06706
  Beta  occ. eigenvalues --  -10.06684 -10.06623 -10.06323 -10.06310 -10.06267
  Beta  occ. eigenvalues --  -10.06016  -0.73512  -0.70486  -0.67617  -0.63490
  Beta  occ. eigenvalues --   -0.61412  -0.58508  -0.55893  -0.53987  -0.46254
  Beta  occ. eigenvalues --   -0.43179  -0.39891  -0.38037  -0.36361  -0.34851
  Beta  occ. eigenvalues --   -0.34090  -0.32744  -0.31230  -0.31163  -0.30558
  Beta  occ. eigenvalues --   -0.29994  -0.29859  -0.27810  -0.27246  -0.26538
  Beta  occ. eigenvalues --   -0.25909  -0.25195  -0.23720  -0.22903  -0.16566
  Beta  occ. eigenvalues --   -0.14697  -0.12674
  Beta virt. eigenvalues --    0.06500   0.07220   0.07486   0.08104   0.08673
  Beta virt. eigenvalues --    0.09063   0.09542   0.09901   0.10197   0.11060
  Beta virt. eigenvalues --    0.11330   0.11633   0.11859   0.12758   0.12810

 Mulliken charges and spin densities:
               1          2
     1  C    1.595202  -2.275824
     2  C    0.063756  -0.343451
     3  C   -0.573900   0.559059
     4  C   -1.182241   1.261516
     5  C    0.344458   0.202530
     6  C   -3.187309   2.374239
     7  C    0.659640   0.204930
     8  C    0.077991  -0.418017
     9  C    1.204431  -1.941737
    10  C    1.680334  -2.371899
    11  C    1.203487  -1.910780
    12  H   -0.399725   0.531788
    13  H   -0.280921   0.435055
    14  H   -0.249971   0.391605
    15  H   -0.473906   0.630170
    16  H   -0.083133   0.260938
    17  H    0.251148  -0.066261
    18  H    0.089234   0.002921
    19  H   -0.320525   0.522776
    20  H   -0.482473   0.628749
    21  H   -0.219374   0.373912
    22  H   -0.106079   0.265859
    23  H    0.088890   0.066009
    24  H   -0.113991   0.262163
    25  H   -0.025264   0.175321
    26  H   -0.255806   0.394891
    27  H   -0.136552   0.297287
    28  H    0.044267   0.129954
    29  H   -0.211669   0.356297
 Sum of Mulliken charges =  -1.00000   1.00000

 Dipole moment (field-independent basis, Debye):
    X=             -1.8410    Y=              0.4807    Z=             -0.4337  Tot=              1.9516
 Quadrupole moment (field-independent basis, Debye-Ang):
   XX=           -153.9575   YY=           -111.3497   ZZ=           -107.2506
   XY=              1.2755   XZ=             -1.6810   YZ=             -0.8527

 Summary of Natural Population Analysis:

                                       Natural Population
                Natural  -----------------------------------------------
    Atom  No    Charge         Core      Valence    Rydberg      Total
 -----------------------------------------------------------------------
      C    1   -0.30448      0.99965     2.29883    0.00600     3.30448
      C    2   -0.09093      0.99952     2.08090    0.01051     3.09093
      C    3   -0.09008      0.99951     2.08044    0.01013     3.09008
      C    4   -0.22661      0.99955     2.21699    0.01007     3.22661
      C    5    0.01137      0.99949     1.97796    0.01118     2.98863
      C    6   -0.11536      0.99941     2.10502    0.01093     3.11536
      C    7   -0.02960      0.99948     2.01713    0.01299     3.02960
      C    8   -0.08840      0.99946     2.07969    0.00924     3.08840
      C    9   -0.30264      0.99965     2.29776    0.00523     3.30264
      C   10   -0.28678      0.99963     2.28256    0.00459     3.28678
      C   11   -0.29845      0.99962     2.29277    0.00606     3.29845
      H   12    0.10058      0.00000     0.39796    0.00146     0.39942
      H   13    0.10478      0.00000     0.39356    0.00166     0.39522
      H   14    0.10321      0.00000     0.39542    0.00137     0.39679
      H   15    0.09249      0.00000     0.40640    0.00111     0.40751
      H   16    0.09442      0.00000     0.40434    0.00123     0.40558
      H   17    0.11242      0.00000     0.38565    0.00193     0.38758
      H   18    0.10385      0.00000     0.39439    0.00176     0.39615
      H   19    0.09767      0.00000     0.40105    0.00128     0.40233
      H   20    0.09049      0.00000     0.40831    0.00120     0.40951
      H   21    0.10071      0.00000     0.39806    0.00122     0.39929
      H   22    0.10231      0.00000     0.39612    0.00157     0.39769
      H   23    0.10640      0.00000     0.39216    0.00144     0.39360
      H   24    0.10031      0.00000     0.39821    0.00148     0.39969
      H   25    0.10101      0.00000     0.39739    0.00160     0.39899
      H   26    0.10019      0.00000     0.39861    0.00120     0.39981
      H   27    0.10268      0.00000     0.39589    0.00142     0.39732
      H   28    0.10736      0.00000     0.39138    0.00126     0.39264
      H   29    0.10105      0.00000     0.39792    0.00103     0.39895
 =======================================================================
   * Total *    0.00000     10.99497    30.88288    0.12216    42.00000

 Normal termination of Gaussian 16 at Tue Dec  8 21:49:36 2020.
