 Gaussian 16, Revision A.03,

 -----------------------------------------------------------
 # opt freq B3LYP/6-31G(d) empiricaldispersion=gd3bj scf=xqc
 -----------------------------------------------------------

 -------------------------------
 CID_149355316_JID_1567_neutraal
 -------------------------------
 Symbolic Z-matrix:
 Charge =  0 Multiplicity = 1

 SCF Done:  E(RB3LYP) =  -446.035540189     A.U. after   14 cycles
 SCF Done:  E(RB3LYP) =  -446.039109609     A.U. after   12 cycles
 SCF Done:  E(RB3LYP) =  -446.040033946     A.U. after   12 cycles
 SCF Done:  E(RB3LYP) =  -446.040792226     A.U. after   14 cycles
 SCF Done:  E(RB3LYP) =  -446.041657869     A.U. after   12 cycles
 SCF Done:  E(RB3LYP) =  -446.041898309     A.U. after   12 cycles
 SCF Done:  E(RB3LYP) =  -446.042079629     A.U. after   12 cycles
 SCF Done:  E(RB3LYP) =  -446.042225676     A.U. after   12 cycles
 SCF Done:  E(RB3LYP) =  -446.042236432     A.U. after   10 cycles
 SCF Done:  E(RB3LYP) =  -446.042241553     A.U. after   10 cycles
 SCF Done:  E(RB3LYP) =  -446.042242567     A.U. after    9 cycles
 SCF Done:  E(RB3LYP) =  -446.042242848     A.U. after    8 cycles
 SCF Done:  E(RB3LYP) =  -446.042242924     A.U. after    7 cycles
 SCF Done:  E(RB3LYP) =  -446.042242943     A.U. after    6 cycles
 Optimization completed.
    -- Stationary point found.
 Normal termination of Gaussian 16 at Tue Dec  8 20:26:46 2020.

 --------------------------------------------------------------------
 #N Geom=AllCheck Guess=TCheck SCRF=Check GenChk RB3LYP/6-31G(d) Freq
 --------------------------------------------------------------------

 Structure from the checkpoint file:  "JID_1567.chk"
 -------------------------------
 CID_149355316_JID_1567_neutraal
 -------------------------------
 Charge =  0 Multiplicity = 1

 SCF Done:  E(RB3LYP) =  -446.042242943     A.U. after    1 cycles

  Exact polarizability: 115.910  -2.174 101.736   4.756  -2.831 105.943
 Approx polarizability: 148.710  -0.848 154.024  12.363  -5.751 173.016

                      1                      2                      3
                      A                      A                      A
 Frequencies --     39.7026                72.7012                77.8607
 Red. masses --      3.0926                 2.9281                 3.7951
 Frc consts  --      0.0029                 0.0091                 0.0136
 IR Inten    --      0.2671                 0.0895                 1.2630

                      4                      5                      6
                      A                      A                      A
 Frequencies --    120.2060               170.7719               187.3366
 Red. masses --      2.1998                 4.2760                 3.1940
 Frc consts  --      0.0187                 0.0735                 0.0660
 IR Inten    --      0.1768                 1.8759                 0.0801

                      7                      8                      9
                      A                      A                      A
 Frequencies --    198.7566               227.0406               245.7272
 Red. masses --      3.0780                 1.5805                 1.1527
 Frc consts  --      0.0716                 0.0480                 0.0410
 IR Inten    --      0.2061                 0.2305                 0.6404

                     10                     11                     12
                      A                      A                      A
 Frequencies --    277.6513               285.2057               317.5678
 Red. masses --      1.1529                 1.4707                 2.0078
 Frc consts  --      0.0524                 0.0705                 0.1193
 IR Inten    --      0.1232                 0.1535                 2.4038

                     13                     14                     15
                      A                      A                      A
 Frequencies --    332.9593               381.5276               390.7962
 Red. masses --      2.3177                 2.3023                 2.4646
 Frc consts  --      0.1514                 0.1975                 0.2218
 IR Inten    --      0.3374                 0.8863                 0.3024

                     16                     17                     18
                      A                      A                      A
 Frequencies --    479.1394               507.0801               543.9114
 Red. masses --      2.7899                 2.9305                 2.9425
 Frc consts  --      0.3774                 0.4440                 0.5129
 IR Inten    --      5.3247                 1.6904                 4.2417

                     19                     20                     21
                      A                      A                      A
 Frequencies --    629.4529               695.0992               719.3887
 Red. masses --      2.7247                 3.5947                 2.6875
 Frc consts  --      0.6360                 1.0233                 0.8195
 IR Inten    --      2.9226                 3.1223                 1.9004

                     22                     23                     24
                      A                      A                      A
 Frequencies --    754.8437               762.3106               787.5244
 Red. masses --      1.2157                 1.4284                 1.7682
 Frc consts  --      0.4081                 0.4891                 0.6461
 IR Inten    --      1.2987                 1.8482                 0.3722

                     25                     26                     27
                      A                      A                      A
 Frequencies --    846.7124               888.4765               933.4625
 Red. masses --      1.7614                 2.0276                 1.8513
 Frc consts  --      0.7440                 0.9430                 0.9504
 IR Inten    --     10.0545                 2.2004                 5.6911

                     28                     29                     30
                      A                      A                      A
 Frequencies --    938.9080               942.3617               952.1524
 Red. masses --      1.3699                 1.1898                 1.3744
 Frc consts  --      0.7115                 0.6225                 0.7342
 IR Inten    --     37.1847                 1.4960                27.3942

                     31                     32                     33
                      A                      A                      A
 Frequencies --    966.8643               975.6540              1043.8006
 Red. masses --      1.7116                 1.5099                 1.5845
 Frc consts  --      0.9427                 0.8468                 1.0171
 IR Inten    --      0.9554                 0.2464                 1.9492

                     34                     35                     36
                      A                      A                      A
 Frequencies --   1095.0762              1112.2411              1132.1906
 Red. masses --      1.5886                 1.7271                 1.8928
 Frc consts  --      1.1224                 1.2588                 1.4296
 IR Inten    --     15.5359                 2.2638                 3.6529

                     37                     38                     39
                      A                      A                      A
 Frequencies --   1133.7885              1164.5764              1205.9818
 Red. masses --      2.2087                 1.0951                 1.9454
 Frc consts  --      1.6728                 0.8751                 1.6670
 IR Inten    --      2.3341                35.0457                 1.7370

                     40                     41                     42
                      A                      A                      A
 Frequencies --   1231.1802              1265.5127              1312.7929
 Red. masses --      2.1176                 1.2388                 1.4231
 Frc consts  --      1.8912                 1.1689                 1.4450
 IR Inten    --      9.1348                69.0955                10.2329

                     43                     44                     45
                      A                      A                      A
 Frequencies --   1338.0145              1348.4921              1360.3929
 Red. masses --      2.3028                 1.7848                 1.3452
 Frc consts  --      2.4290                 1.9122                 1.4667
 IR Inten    --      2.6071                17.5234                 3.1666

                     46                     47                     48
                      A                      A                      A
 Frequencies --   1368.3887              1421.5745              1429.7802
 Red. masses --      1.2905                 1.2344                 1.2211
 Frc consts  --      1.4237                 1.4697                 1.4708
 IR Inten    --      5.3838                 4.3113                13.0845

                     49                     50                     51
                      A                      A                      A
 Frequencies --   1443.1978              1450.5901              1464.9369
 Red. masses --      1.2306                 1.2215                 1.2580
 Frc consts  --      1.5102                 1.5144                 1.5907
 IR Inten    --      4.6143                22.3714                 5.3619

                     52                     53                     54
                      A                      A                      A
 Frequencies --   1490.3883              1517.5905              1522.6657
 Red. masses --      1.1981                 1.0436                 1.0476
 Frc consts  --      1.5679                 1.4161                 1.4310
 IR Inten    --      4.7741                 1.5780                 2.5280

                     55                     56                     57
                      A                      A                      A
 Frequencies --   1528.8271              1533.1814              1541.8762
 Red. masses --      1.0458                 1.0496                 1.0486
 Frc consts  --      1.4401                 1.4536                 1.4688
 IR Inten    --     10.7350                 9.4737                 7.9433

                     58                     59                     60
                      A                      A                      A
 Frequencies --   1548.3801              1683.3941              1719.2497
 Red. masses --      1.0557                 4.1278                 5.3706
 Frc consts  --      1.4912                 6.8919                 9.3529
 IR Inten    --      5.3881                16.5882                 0.1476

                     61                     62                     63
                      A                      A                      A
 Frequencies --   1732.1667              3007.2225              3038.1427
 Red. masses --      8.7128                 1.0820                 1.0840
 Frc consts  --     15.4024                 5.7654                 5.8951
 IR Inten    --     48.2303                15.0828                16.7470

                     64                     65                     66
                      A                      A                      A
 Frequencies --   3048.7863              3052.9498              3062.0882
 Red. masses --      1.0350                 1.0357                 1.0386
 Frc consts  --      5.6683                 5.6878                 5.7379
 IR Inten    --     23.7809                20.5548                17.6271

                     67                     68                     69
                      A                      A                      A
 Frequencies --   3079.9250              3113.3206              3117.9531
 Red. masses --      1.0856                 1.1020                 1.1017
 Frc consts  --      6.0674                 6.2934                 6.3106
 IR Inten    --     55.0838                 3.4015                70.6000

                     70                     71                     72
                      A                      A                      A
 Frequencies --   3126.1001              3130.3907              3131.9697
 Red. masses --      1.1024                 1.1003                 1.1015
 Frc consts  --      6.3476                 6.3529                 6.3662
 IR Inten    --     33.7102                 9.1964                35.7503

                     73                     74                     75
                      A                      A                      A
 Frequencies --   3148.4887              3164.9046              3168.0022
 Red. masses --      1.1030                 1.0620                 1.0638
 Frc consts  --      6.4421                 6.2678                 6.2907
 IR Inten    --     14.0086                12.4293                 9.9399

                     76                     77                     78
                      A                      A                      A
 Frequencies --   3252.6794              3261.0343              3367.7349
 Red. masses --      1.1135                 1.1112                 1.0722
 Frc consts  --      6.9413                 6.9626                 7.1650
 IR Inten    --      6.8501                10.4277                 1.3644

 - Thermochemistry -
 -------------------
 Temperature   298.150 Kelvin.  Pressure   1.00000 Atm.
 Atom     1 has atomic number  6 and mass  12.00000

 Molecular mass:   151.13610 amu.
 Principal axes and moments of inertia in atomic units:
                           1         2         3
     Eigenvalues --  1062.120592428.578992626.50584
           X            0.99980  -0.01970   0.00192
           Y            0.01975   0.99944  -0.02687
           Z           -0.00139   0.02690   0.99964
 This molecule is an asymmetric top.
 Rotational symmetry number  1.
 Warning -- assumption of classical behavior for rotation
           may cause significant error
 Rotational temperatures (Kelvin)      0.08155     0.03566     0.03298
 Rotational constants (GHZ):           1.69919     0.74313     0.68713
 Zero-point vibrational energy     658311.4 (Joules/Mol)
                                  157.34021 (Kcal/Mol)
 Warning -- explicit consideration of  18 degrees of freedom as
           vibrations may cause significant error
 Vibrational temperatures:     57.12   104.60   112.02   172.95   245.70
          (Kelvin)            269.54   285.97   326.66   353.55   399.48
                              410.35   456.91   479.05   548.93   562.27
                              689.37   729.58   782.57   905.64  1000.09
                             1035.04  1086.05  1096.79  1133.07  1218.23
                             1278.32  1343.04  1350.88  1355.85  1369.93
                             1391.10  1403.75  1501.80  1575.57  1600.27
                             1628.97  1631.27  1675.57  1735.14  1771.39
                             1820.79  1888.82  1925.10  1940.18  1957.30
                             1968.81  2045.33  2057.13  2076.44  2087.08
                             2107.72  2144.34  2183.47  2190.78  2199.64
                             2205.91  2218.42  2227.77  2422.03  2473.62
                             2492.20  4326.72  4371.21  4386.52  4392.51
                             4405.66  4431.33  4479.37  4486.04  4497.76
                             4503.93  4506.21  4529.97  4553.59  4558.05
                             4679.88  4691.90  4845.42

 Zero-point correction=                           0.250738 (Hartree/Particle)
 Thermal correction to Energy=                    0.263739
 Thermal correction to Enthalpy=                  0.264683
 Thermal correction to Gibbs Free Energy=         0.211880
 Sum of electronic and zero-point Energies=           -445.791505
 Sum of electronic and thermal Energies=              -445.778504
 Sum of electronic and thermal Enthalpies=            -445.777560
 Sum of electronic and thermal Free Energies=         -445.830363

                     E (Thermal)             CV                S
                      KCal/Mol        Cal/Mol-Kelvin    Cal/Mol-Kelvin
 Total                  165.499             48.568            111.133
 Electronic               0.000              0.000              0.000
 Translational            0.889              2.981             40.949
 Rotational               0.889              2.981             30.295
 Vibrational            163.721             42.606             39.889
 Vibration     1          0.594              1.981              5.274
 Vibration     2          0.599              1.967              4.079
 Vibration     3          0.599              1.964              3.944
 Vibration     4          0.609              1.932              3.097
 Vibration     5          0.626              1.878              2.427
 Vibration     6          0.632              1.857              2.254
 Vibration     7          0.637              1.842              2.145
 Vibration     8          0.651              1.800              1.902
 Vibration     9          0.660              1.770              1.761
 Vibration    10          0.679              1.715              1.548
 Vibration    11          0.683              1.701              1.502
 Vibration    12          0.704              1.640              1.323
 Vibration    13          0.715              1.610              1.246
 Vibration    14          0.751              1.510              1.033
 Vibration    15          0.758              1.490              0.997
 Vibration    16          0.836              1.296              0.712
 Vibration    17          0.862              1.234              0.641
 Vibration    18          0.899              1.153              0.557

 Optimization completed.
    -- Stationary point found.
 Normal termination of Gaussian 16 at Tue Dec  8 20:33:41 2020.

 ----------------------------------------------------------------------
 # B3LYP/6-311++G(d,p) empiricaldispersion=gd3bj scf=xqc pop=npa geom=c
 heck
 ----------------------------------------------------------------------

 ---------------------------------------
 CID_149355316_JID_1567_Energie_neutraal
 ---------------------------------------
 Structure from the checkpoint file:  "JID_1567.chk"
 Charge =  0 Multiplicity = 1

 SCF Done:  E(RB3LYP) =  -446.169613869     A.U. after   15 cycles
 Normal termination of Gaussian 16 at Tue Dec  8 20:37:26 2020.

 ----------------------------------------------------------------------
 # B3LYP/6-311++G(d,p) empiricaldispersion=gd3bj scf=xqc pop=npa geom=c
 heck
 ----------------------------------------------------------------------

 -------------------------------------
 CID_149355316_JID_1567_Energie_kation
 -------------------------------------
 Structure from the checkpoint file:  "JID_1567.chk"
 Charge =  1 Multiplicity = 2

 SCF Done:  E(UB3LYP) =  -445.848215724     A.U. after   25 cycles
 Normal termination of Gaussian 16 at Tue Dec  8 20:45:43 2020.
 Gaussian 16:  ES64L-G16RevA.03 25-Dec-2016

 ----------------------------------------------------------------------
 # B3LYP/6-311++G(d,p) empiricaldispersion=gd3bj scf=xqc pop=npa geom=c
 heck
 ----------------------------------------------------------------------

 ------------------------------------
 CID_149355316_JID_1567_Energie_anion
 ------------------------------------
 Structure from the checkpoint file:  "JID_1567.chk"
 Charge = -1 Multiplicity = 2

                         Standard orientation:
 ---------------------------------------------------------------------
 Center     Atomic      Atomic             Coordinates (Angstroms)
 Number     Number       Type             X           Y           Z
 ---------------------------------------------------------------------
      1          6           0        2.269877    1.414532    0.286871
      2          6           0        2.084008    0.086168   -0.463098
      3          6           0        2.909675   -1.025383    0.208970
      4          6           0        0.609637   -0.269844   -0.644354
      5          6           0        0.123155   -0.494079   -1.871886
      6          6           0       -0.284093   -0.315526    0.558171
      7          6           0       -0.085229   -1.175255    1.567470
      8          6           0       -1.502986    0.599822    0.599333
      9          6           0       -1.264250    2.018096    0.059614
     10          6           0       -2.714751   -0.034848   -0.090363
     11          7           0       -2.926286   -1.255902   -0.367716
     12          1           0        1.851436    1.352235    1.297664
     13          1           0        1.777581    2.239943   -0.236930
     14          1           0        3.334913    1.656218    0.378160
     15          1           0        2.485403    0.214401   -1.476684
     16          1           0        2.675775   -1.112477    1.274451
     17          1           0        2.733373   -1.996301   -0.266098
     18          1           0        3.978141   -0.794067    0.127956
     19          1           0       -0.917285   -0.743913   -2.050726
     20          1           0        0.769465   -0.444525   -2.744934
     21          1           0       -0.746584   -1.187197    2.430730
     22          1           0        0.717018   -1.903648    1.564230
     23          1           0       -1.798888    0.698336    1.655346
     24          1           0       -0.955228    1.995231   -0.988890
     25          1           0       -2.182281    2.611318    0.135036
     26          1           0       -0.485191    2.526387    0.634415
     27          1           0       -3.508515    0.678787   -0.344478
     28          1           0       -2.115392   -1.821514   -0.079599
 ---------------------------------------------------------------------

 SCF Done:  E(UB3LYP) =  -446.158019370     A.U. after   32 cycles

 The electronic state is 2-A.
 Alpha  occ. eigenvalues --  -14.17452 -10.09409 -10.07142 -10.06652 -10.06309
 Alpha  occ. eigenvalues --  -10.05858 -10.04867 -10.04853 -10.04526 -10.04223
 Alpha  occ. eigenvalues --  -10.03591  -0.78751  -0.72087  -0.67913  -0.63339
 Alpha  occ. eigenvalues --   -0.61328  -0.57355  -0.52831  -0.49340  -0.48307
 Alpha  occ. eigenvalues --   -0.45829  -0.38761  -0.36744  -0.35381  -0.34303
 Alpha  occ. eigenvalues --   -0.33107  -0.31808  -0.30693  -0.29891  -0.29747
 Alpha  occ. eigenvalues --   -0.27612  -0.27438  -0.26071  -0.25439  -0.24146
 Alpha  occ. eigenvalues --   -0.23243  -0.22162  -0.20704  -0.18554  -0.16274
 Alpha  occ. eigenvalues --   -0.14653  -0.12663   0.04940
 Alpha virt. eigenvalues --    0.07284   0.08121   0.08416   0.09206   0.09521
 Alpha virt. eigenvalues --    0.09914   0.10261   0.10822   0.11474   0.12486
 Alpha virt. eigenvalues --    0.12510   0.13416   0.13677   0.13857   0.14144

  Beta  occ. eigenvalues --  -14.17343 -10.09345 -10.07141 -10.06643 -10.06215
  Beta  occ. eigenvalues --  -10.05776 -10.04832 -10.04830 -10.04507 -10.04155
  Beta  occ. eigenvalues --  -10.03522  -0.78558  -0.71900  -0.67823  -0.63224
  Beta  occ. eigenvalues --   -0.61186  -0.57296  -0.52679  -0.49122  -0.48136
  Beta  occ. eigenvalues --   -0.45698  -0.38629  -0.36643  -0.35274  -0.34185
  Beta  occ. eigenvalues --   -0.33046  -0.31738  -0.30574  -0.29828  -0.29673
  Beta  occ. eigenvalues --   -0.27539  -0.27375  -0.25982  -0.25295  -0.24050
  Beta  occ. eigenvalues --   -0.23187  -0.22081  -0.20504  -0.18199  -0.15792
  Beta  occ. eigenvalues --   -0.14506  -0.12159
  Beta virt. eigenvalues --    0.07456   0.08159   0.08910   0.09003   0.09423
  Beta virt. eigenvalues --    0.09898   0.10319   0.10826   0.11093   0.11716
  Beta virt. eigenvalues --    0.12646   0.12899   0.13718   0.14016   0.14228

 Mulliken charges and spin densities:
               1          2
     1  C    0.663700  -1.308008
     2  C   -1.426369   1.598385
     3  C    0.525672  -1.191883
     4  C    0.111496   0.346646
     5  C    0.259484  -0.573607
     6  C   -0.874551   0.833873
     7  C    0.503281  -0.953080
     8  C   -0.190667   0.427596
     9  C    0.842688  -1.544621
    10  C   -0.027851  -0.278444
    11  N   -0.296229   0.049266
    12  H   -0.043708   0.205252
    13  H    0.014886   0.114649
    14  H   -0.186437   0.323462
    15  H   -0.193775   0.353216
    16  H   -0.214826   0.352581
    17  H    0.107857   0.033297
    18  H   -0.240442   0.372265
    19  H    0.168087  -0.044580
    20  H    0.019544   0.076211
    21  H   -0.279312   0.406752
    22  H    0.229313  -0.105315
    23  H   -0.289726   0.491441
    24  H   -0.101821   0.289877
    25  H   -0.192286   0.316488
    26  H   -0.129196   0.276522
    27  H    0.004659   0.149231
    28  H    0.236529  -0.017471
 Sum of Mulliken charges =  -1.00000   1.00000

 Dipole moment (field-independent basis, Debye):
    X=             -0.0602    Y=             -1.1905    Z=             -1.3645  Tot=              1.8118
 Quadrupole moment (field-independent basis, Debye-Ang):
   XX=           -127.7336   YY=           -100.6567   ZZ=           -103.4866
   XY=             -3.9368   XZ=             -3.2251   YZ=             -1.8153

 Summary of Natural Population Analysis:

                                       Natural Population
                Natural  -----------------------------------------------
    Atom  No    Charge         Core      Valence    Rydberg      Total
 -----------------------------------------------------------------------
      C    1   -0.28268      0.99965     2.27725    0.00579     3.28268
      C    2   -0.11960      0.99957     2.10862    0.01142     3.11960
      C    3   -0.28244      0.99964     2.27705    0.00575     3.28244
      C    4    0.00139      0.99945     1.98642    0.01274     2.99861
      C    5   -0.18426      0.99950     2.17827    0.00649     3.18426
      C    6   -0.00168      0.99946     1.98697    0.01526     3.00168
      C    7   -0.18353      0.99949     2.17684    0.00720     3.18353
      C    8   -0.15739      0.99953     2.14523    0.01263     3.15739
      C    9   -0.28327      0.99965     2.27726    0.00636     3.28327
      C   10    0.08929      0.99966     1.89293    0.01811     2.91071
      N   11   -0.30631      0.99974     2.79796    0.00862     3.80631
      H   12    0.10221      0.00000     0.39653    0.00126     0.39779
      H   13    0.09933      0.00000     0.39939    0.00128     0.40067
      H   14    0.09610      0.00000     0.40300    0.00090     0.40390
      H   15    0.09286      0.00000     0.40533    0.00181     0.40714
      H   16    0.09965      0.00000     0.39930    0.00105     0.40035
      H   17    0.09722      0.00000     0.40199    0.00079     0.40278
      H   18    0.09868      0.00000     0.40007    0.00125     0.40132
      H   19    0.09786      0.00000     0.40097    0.00116     0.40214
      H   20    0.08839      0.00000     0.41059    0.00101     0.41161
      H   21    0.09279      0.00000     0.40613    0.00108     0.40721
      H   22    0.09292      0.00000     0.40604    0.00104     0.40708
      H   23    0.11107      0.00000     0.38617    0.00276     0.38893
      H   24    0.10533      0.00000     0.39341    0.00127     0.39467
      H   25    0.09614      0.00000     0.40292    0.00093     0.40386
      H   26    0.10312      0.00000     0.39544    0.00144     0.39688
      H   27    0.07313      0.00000     0.42538    0.00149     0.42687
      H   28    0.16367      0.00000     0.33403    0.00230     0.33633
 =======================================================================
   * Total *    0.00000     10.99533    30.87148    0.13319    42.00000

 Normal termination of Gaussian 16 at Tue Dec  8 20:56:30 2020.
