 Gaussian 16, Revision A.03,

 -----------------------------------------------------------
 # opt freq B3LYP/6-31G(d) empiricaldispersion=gd3bj scf=xqc
 -----------------------------------------------------------

 -------------------------------
 CID_104592705_JID_6834_neutraal
 -------------------------------
 Symbolic Z-matrix:
 Charge =  0 Multiplicity = 1

 SCF Done:  E(RB3LYP) =  -753.923139896     A.U. after   15 cycles
 SCF Done:  E(RB3LYP) =  -753.928330278     A.U. after   12 cycles
 SCF Done:  E(RB3LYP) =  -753.929383404     A.U. after   12 cycles
 SCF Done:  E(RB3LYP) =  -753.930052216     A.U. after   12 cycles
 SCF Done:  E(RB3LYP) =  -753.930381745     A.U. after   13 cycles
 SCF Done:  E(RB3LYP) =  -753.930190716     A.U. after   13 cycles
 SCF Done:  E(RB3LYP) =  -753.930731351     A.U. after   12 cycles
 SCF Done:  E(RB3LYP) =  -753.930918180     A.U. after   12 cycles
 SCF Done:  E(RB3LYP) =  -753.931007498     A.U. after   11 cycles
 SCF Done:  E(RB3LYP) =  -753.931074707     A.U. after   12 cycles
 SCF Done:  E(RB3LYP) =  -753.931485564     A.U. after    8 cycles
 SCF Done:  E(RB3LYP) =  -753.931485786     A.U. after    8 cycles
 SCF Done:  E(RB3LYP) =  -753.931486045     A.U. after    8 cycles
 SCF Done:  E(RB3LYP) =  -753.931486208     A.U. after    8 cycles
 SCF Done:  E(RB3LYP) =  -753.931486259     A.U. after    7 cycles
 Optimization completed.
    -- Stationary point found.
 Normal termination of Gaussian 16 at Fri Dec 11 01:25:06 2020.

 --------------------------------------------------------------------
 #N Geom=AllCheck Guess=TCheck SCRF=Check GenChk RB3LYP/6-31G(d) Freq
 --------------------------------------------------------------------

 Structure from the checkpoint file:  "JID_6834.chk"
 -------------------------------
 CID_104592705_JID_6834_neutraal
 -------------------------------
 Charge =  0 Multiplicity = 1

 SCF Done:  E(RB3LYP) =  -753.931486259     A.U. after    1 cycles

  Exact polarizability: 168.519  -3.608 163.278  -1.422  -2.397  69.483
 Approx polarizability: 232.236 -10.106 270.172  -2.215  -5.027 108.564

                      1                      2                      3
                      A                      A                      A
 Frequencies --     24.4380                31.5393                58.6275
 Red. masses --      5.1504                 4.5365                 1.3227
 Frc consts  --      0.0018                 0.0027                 0.0027
 IR Inten    --      1.5725                 3.8889                 0.9563

                      4                      5                      6
                      A                      A                      A
 Frequencies --     87.8063                98.1439               106.5906
 Red. masses --      5.5929                 3.8985                 2.9024
 Frc consts  --      0.0254                 0.0221                 0.0194
 IR Inten    --      1.4205                 2.1328                 1.0759

                      7                      8                      9
                      A                      A                      A
 Frequencies --    156.0309               179.7417               197.0078
 Red. masses --      4.0536                 2.8477                 5.1137
 Frc consts  --      0.0581                 0.0542                 0.1169
 IR Inten    --      5.1853                 2.3265                 1.0208

                     10                     11                     12
                      A                      A                      A
 Frequencies --    211.2164               226.2969               296.0467
 Red. masses --      4.6419                 2.9916                 3.6395
 Frc consts  --      0.1220                 0.0903                 0.1879
 IR Inten    --      1.5297                 0.4829                11.3540

                     13                     14                     15
                      A                      A                      A
 Frequencies --    322.1893               359.4351               386.0522
 Red. masses --      3.5536                 1.5778                 4.6268
 Frc consts  --      0.2173                 0.1201                 0.4063
 IR Inten    --      4.9629                25.0024                 9.3422

                     16                     17                     18
                      A                      A                      A
 Frequencies --    406.2563               497.2215               511.2969
 Red. masses --      5.6908                 4.0742                 1.7713
 Frc consts  --      0.5534                 0.5935                 0.2728
 IR Inten    --      3.5302                 7.9763                61.8542

                     19                     20                     21
                      A                      A                      A
 Frequencies --    536.2224               597.8170               621.1611
 Red. masses --      6.7918                 5.2525                 3.6408
 Frc consts  --      1.1506                 1.1060                 0.8277
 IR Inten    --      4.4388                 0.7575                10.5372

                     22                     23                     24
                      A                      A                      A
 Frequencies --    635.1486               661.6636               685.6494
 Red. masses --      3.7998                 4.3853                 2.9088
 Frc consts  --      0.9032                 1.1312                 0.8057
 IR Inten    --      9.0217                16.1896                21.1542

                     25                     26                     27
                      A                      A                      A
 Frequencies --    736.6901               745.8471               753.6838
 Red. masses --      4.9480                 4.1087                 3.9416
 Frc consts  --      1.5822                 1.3466                 1.3192
 IR Inten    --     11.3550                46.4489                25.6880

                     28                     29                     30
                      A                      A                      A
 Frequencies --    795.4001               853.4567               866.9686
 Red. masses --      1.3869                 1.2269                 1.2784
 Frc consts  --      0.5170                 0.5265                 0.5662
 IR Inten    --     18.4692                86.3091                 5.7209

                     31                     32                     33
                      A                      A                      A
 Frequencies --    900.8527               911.7573               938.8269
 Red. masses --      1.2516                 1.4120                 4.8321
 Frc consts  --      0.5985                 0.6916                 2.5093
 IR Inten    --    111.0825                11.9360                40.0994

                     34                     35                     36
                      A                      A                      A
 Frequencies --    954.2329              1001.0806              1013.5382
 Red. masses --      5.8708                 1.7854                 4.1524
 Frc consts  --      3.1496                 1.0542                 2.5132
 IR Inten    --     10.2120                21.3127                32.7138

                     37                     38                     39
                      A                      A                      A
 Frequencies --   1030.9686              1049.0612              1058.6696
 Red. masses --      4.5524                 2.7094                 2.6602
 Frc consts  --      2.8509                 1.7568                 1.7567
 IR Inten    --     15.3410                26.5435                32.3717

                     40                     41                     42
                      A                      A                      A
 Frequencies --   1092.2462              1160.6270              1164.8737
 Red. masses --      1.5638                 1.3373                 2.1138
 Frc consts  --      1.0992                 1.0614                 1.6900
 IR Inten    --     12.2440                 8.0925                22.9921

                     43                     44                     45
                      A                      A                      A
 Frequencies --   1175.0149              1182.3199              1210.4226
 Red. masses --      1.8385                 1.3848                 1.4800
 Frc consts  --      1.4956                 1.1405                 1.2776
 IR Inten    --     20.6643                 4.7594                 5.1491

                     46                     47                     48
                      A                      A                      A
 Frequencies --   1230.6685              1286.9456              1308.7029
 Red. masses --      2.5909                 2.3086                 1.4570
 Frc consts  --      2.3120                 2.2528                 1.4702
 IR Inten    --     14.5304                78.0625                 5.0570

                     49                     50                     51
                      A                      A                      A
 Frequencies --   1351.2422              1357.4473              1399.2221
 Red. masses --      3.1992                 2.8055                 3.0761
 Frc consts  --      3.4416                 3.0459                 3.5483
 IR Inten    --     41.1149               133.8506                31.7822

                     52                     53                     54
                      A                      A                      A
 Frequencies --   1412.1525              1432.0657              1451.5974
 Red. masses --      5.5286                 1.6080                 5.6022
 Frc consts  --      6.4958                 1.9429                 6.9551
 IR Inten    --    151.4343                40.1359                54.9696

                     55                     56                     57
                      A                      A                      A
 Frequencies --   1476.3796              1496.8586              1503.2083
 Red. masses --      1.3231                 2.6536                 1.0522
 Frc consts  --      1.6992                 3.5030                 1.4009
 IR Inten    --      5.3417                25.1753                 7.5951

                     58                     59                     60
                      A                      A                      A
 Frequencies --   1508.9029              1518.1127              1533.3865
 Red. masses --      2.6529                 2.2837                 1.1047
 Frc consts  --      3.5587                 3.1010                 1.5303
 IR Inten    --    129.6270                21.0657                 9.9080

                     61                     62                     63
                      A                      A                      A
 Frequencies --   1552.7379              1582.6882              1607.2889
 Red. masses --      1.2730                 3.3615                 4.1540
 Frc consts  --      1.8084                 4.9611                 6.3227
 IR Inten    --     30.1079               269.8873                17.8753

                     64                     65                     66
                      A                      A                      A
 Frequencies --   1644.7542              1687.3848              1743.0055
 Red. masses --      5.3365                 1.1098                 6.1505
 Frc consts  --      8.5057                 1.8617                11.0092
 IR Inten    --    125.4580                25.3851               398.7483

                     67                     68                     69
                      A                      A                      A
 Frequencies --   2985.9838              3050.0812              3061.6832
 Red. masses --      1.0706                 1.0918                 1.0346
 Frc consts  --      5.6239                 5.9846                 5.7143
 IR Inten    --     85.3530                26.5763                58.5524

                     70                     71                     72
                      A                      A                      A
 Frequencies --   3126.6796              3162.7613              3266.6824
 Red. masses --      1.1039                 1.1038                 1.0978
 Frc consts  --      6.3584                 6.5055                 6.9023
 IR Inten    --     18.0050                 9.9359                 1.9851

                     73                     74                     75
                      A                      A                      A
 Frequencies --   3287.7419              3313.7567              3419.1814
 Red. masses --      1.0966                 1.0990                 1.0769
 Frc consts  --      6.9837                 7.1105                 7.4177
 IR Inten    --      1.0850                50.3229               282.0346

                     76                     77                     78
                      A                      A                      A
 Frequencies --   3478.0722              3568.3055              3666.2745
 Red. masses --      1.0495                 1.0938                 1.0815
 Frc consts  --      7.4802                 8.2059                 8.5647
 IR Inten    --      1.1047                 0.5998                65.7317

 - Thermochemistry -
 -------------------
 Temperature   298.150 Kelvin.  Pressure   1.00000 Atm.
 Atom     1 has atomic number  6 and mass  12.00000

 Molecular mass:   220.10726 amu.
 Principal axes and moments of inertia in atomic units:
                           1         2         3
     Eigenvalues --  2304.695444879.226756982.80547
           X            0.99994   0.01057  -0.00248
           Y           -0.01058   0.99993  -0.00604
           Z            0.00242   0.00606   0.99998
 This molecule is an asymmetric top.
 Rotational symmetry number  1.
 Warning -- assumption of classical behavior for rotation
           may cause significant error
 Rotational temperatures (Kelvin)      0.03758     0.01775     0.01240
 Rotational constants (GHZ):           0.78307     0.36988     0.25846
 Zero-point vibrational energy     591924.8 (Joules/Mol)
                                  141.47342 (Kcal/Mol)
 Warning -- explicit consideration of  20 degrees of freedom as
           vibrations may cause significant error
 Vibrational temperatures:     35.16    45.38    84.35   126.33   141.21
          (Kelvin)            153.36   224.49   258.61   283.45   303.89
                              325.59   425.95   463.56   517.15   555.44
                              584.51   715.39   735.64   771.50   860.13
                              893.71   913.84   951.99   986.50  1059.93
                             1073.11  1084.38  1144.40  1227.93  1247.37
                             1296.13  1311.82  1350.76  1372.93  1440.33
                             1458.26  1483.33  1509.37  1523.19  1571.50
                             1669.88  1675.99  1690.58  1701.09  1741.53
                             1770.66  1851.63  1882.93  1944.14  1953.06
                             2013.17  2031.77  2060.42  2088.52  2124.18
                             2153.65  2162.78  2170.97  2184.23  2206.20
                             2234.04  2277.14  2312.53  2366.43  2427.77
                             2507.80  4296.16  4388.39  4405.08  4498.59
                             4550.51  4700.03  4730.33  4767.76  4919.44
                             5004.17  5134.00  5274.95

 Zero-point correction=                           0.225452 (Hartree/Particle)
 Thermal correction to Energy=                    0.240173
 Thermal correction to Enthalpy=                  0.241117
 Thermal correction to Gibbs Free Energy=         0.181591
 Sum of electronic and zero-point Energies=           -753.706034
 Sum of electronic and thermal Energies=              -753.691313
 Sum of electronic and thermal Enthalpies=            -753.690369
 Sum of electronic and thermal Free Energies=         -753.749895

                     E (Thermal)             CV                S
                      KCal/Mol        Cal/Mol-Kelvin    Cal/Mol-Kelvin
 Total                  150.711             54.034            125.283
 Electronic               0.000              0.000              0.000
 Translational            0.889              2.981             42.070
 Rotational               0.889              2.981             32.729
 Vibrational            148.933             48.073             50.484
 Vibration     1          0.593              1.985              6.236
 Vibration     2          0.594              1.983              5.730
 Vibration     3          0.596              1.974              4.503
 Vibration     4          0.601              1.958              3.708
 Vibration     5          0.604              1.950              3.491
 Vibration     6          0.605              1.944              3.330
 Vibration     7          0.620              1.896              2.597
 Vibration     8          0.629              1.867              2.331
 Vibration     9          0.636              1.844              2.161
 Vibration    10          0.643              1.824              2.033
 Vibration    11          0.650              1.801              1.908
 Vibration    12          0.690              1.681              1.439
 Vibration    13          0.707              1.631              1.299
 Vibration    14          0.734              1.556              1.125
 Vibration    15          0.755              1.500              1.015
 Vibration    16          0.771              1.457              0.940
 Vibration    17          0.853              1.256              0.665
 Vibration    18          0.866              1.225              0.630
 Vibration    19          0.891              1.170              0.573
 Vibration    20          0.956              1.036              0.453

 Optimization completed.
    -- Stationary point found.
 Normal termination of Gaussian 16 at Fri Dec 11 01:34:06 2020.

 ----------------------------------------------------------------------
 # B3LYP/6-311++G(d,p) empiricaldispersion=gd3bj scf=xqc pop=npa geom=c
 heck
 ----------------------------------------------------------------------

 ---------------------------------------
 CID_104592705_JID_6834_Energie_neutraal
 ---------------------------------------
 Structure from the checkpoint file:  "JID_6834.chk"
 Charge =  0 Multiplicity = 1

 SCF Done:  E(RB3LYP) =  -754.148881989     A.U. after   16 cycles
 Normal termination of Gaussian 16 at Fri Dec 11 01:38:27 2020.

 ----------------------------------------------------------------------
 # B3LYP/6-311++G(d,p) empiricaldispersion=gd3bj scf=xqc pop=npa geom=c
 heck
 ----------------------------------------------------------------------

 -------------------------------------
 CID_104592705_JID_6834_Energie_kation
 -------------------------------------
 Structure from the checkpoint file:  "JID_6834.chk"
 Charge =  1 Multiplicity = 2

 SCF Done:  E(UB3LYP) =  -753.861883555     A.U. after   30 cycles
 Normal termination of Gaussian 16 at Fri Dec 11 01:48:41 2020.
 Gaussian 16:  ES64L-G16RevA.03 25-Dec-2016

 ----------------------------------------------------------------------
 # B3LYP/6-311++G(d,p) empiricaldispersion=gd3bj scf=xqc pop=npa geom=c
 heck
 ----------------------------------------------------------------------

 ------------------------------------
 CID_104592705_JID_6834_Energie_anion
 ------------------------------------
 Structure from the checkpoint file:  "JID_6834.chk"
 Charge = -1 Multiplicity = 2

                         Standard orientation:
 ---------------------------------------------------------------------
 Center     Atomic      Atomic             Coordinates (Angstroms)
 Number     Number       Type             X           Y           Z
 ---------------------------------------------------------------------
      1          6           0       -1.863547    3.348007   -0.218065
      2          7           0       -1.862815    1.907922   -0.098234
      3          6           0       -2.865387    1.094061    0.317852
      4          6           0       -2.374529   -0.196078    0.323104
      5          6           0       -1.026557   -0.056063   -0.127087
      6          7           0       -0.728624    1.217072   -0.391995
      7          7           0       -0.198837   -1.155754   -0.323451
      8          6           0        1.163616   -1.414944   -0.242270
      9          8           0        1.519683   -2.589525   -0.328247
     10          6           0        2.172268   -0.361407   -0.037671
     11          6           0        2.168715    1.026160   -0.122697
     12          7           0        3.433858    1.418561    0.145480
     13          7           0        4.285806    0.389803    0.403054
     14          6           0        3.521712   -0.686179    0.284675
     15          6           0       -3.047143   -1.473170    0.722234
     16          7           0       -2.787744   -2.514004   -0.288807
     17          1           0       -1.192396    3.798115    0.521321
     18          1           0       -1.535916    3.638494   -1.220256
     19          1           0       -2.878803    3.713295   -0.050393
     20          1           0       -3.837227    1.485376    0.585093
     21          1           0       -0.741537   -2.019189   -0.408671
     22          1           0        1.370066    1.710244   -0.357882
     23          1           0        3.793948    2.360679    0.160235
     24          1           0        3.928655   -1.676171    0.430547
     25          1           0       -2.621662   -1.842036    1.665208
     26          1           0       -4.116826   -1.285015    0.911629
     27          1           0       -3.146722   -3.413540    0.024165
     28          1           0       -3.265428   -2.281583   -1.157803
 ---------------------------------------------------------------------

 SCF Done:  E(UB3LYP) =  -754.145054878     A.U. after   33 cycles
 SCF Done:  E(UB3LYP) =  -754.145054878     a.u. after    1 cycles

 The electronic state is 2-A.
 Alpha  occ. eigenvalues --  -18.99199 -14.30479 -14.29864 -14.24952 -14.24624
 Alpha  occ. eigenvalues --  -14.23515 -14.21725 -10.18982 -10.14252 -10.12483
 Alpha  occ. eigenvalues --  -10.11826 -10.11743 -10.11611 -10.10692 -10.09021
 Alpha  occ. eigenvalues --  -10.08093  -0.96551  -0.96220  -0.94450  -0.83981
 Alpha  occ. eigenvalues --   -0.80419  -0.74324  -0.74040  -0.70803  -0.70187
 Alpha  occ. eigenvalues --   -0.62609  -0.58586  -0.56565  -0.52991  -0.51152
 Alpha  occ. eigenvalues --   -0.50622  -0.46594  -0.45076  -0.43239  -0.41471
 Alpha  occ. eigenvalues --   -0.39401  -0.38976  -0.38587  -0.36708  -0.36307
 Alpha  occ. eigenvalues --   -0.35728  -0.34006  -0.33176  -0.32258  -0.32111
 Alpha  occ. eigenvalues --   -0.31684  -0.30347  -0.30043  -0.28924  -0.22283
 Alpha  occ. eigenvalues --   -0.21783  -0.20791  -0.18281  -0.17801  -0.16938
 Alpha  occ. eigenvalues --   -0.16690  -0.15709  -0.12597   0.03411
 Alpha virt. eigenvalues --    0.05092   0.06032   0.06475   0.07651   0.07791
 Alpha virt. eigenvalues --    0.08816   0.09246   0.09586   0.09785   0.10255
 Alpha virt. eigenvalues --    0.11180   0.11468   0.12647   0.13264   0.13348

  Beta  occ. eigenvalues --  -18.99198 -14.30455 -14.29864 -14.24951 -14.24623
  Beta  occ. eigenvalues --  -14.23506 -14.21692 -10.18980 -10.14246 -10.12479
  Beta  occ. eigenvalues --  -10.11768 -10.11715 -10.11580 -10.10692 -10.09020
  Beta  occ. eigenvalues --  -10.08095  -0.96535  -0.96210  -0.94447  -0.83972
  Beta  occ. eigenvalues --   -0.80365  -0.74303  -0.74014  -0.70783  -0.70164
  Beta  occ. eigenvalues --   -0.62546  -0.58538  -0.56524  -0.52953  -0.51127
  Beta  occ. eigenvalues --   -0.50582  -0.46567  -0.45033  -0.43206  -0.41433
  Beta  occ. eigenvalues --   -0.39372  -0.38933  -0.38547  -0.36654  -0.36294
  Beta  occ. eigenvalues --   -0.35704  -0.33967  -0.33151  -0.32232  -0.32072
  Beta  occ. eigenvalues --   -0.31654  -0.30327  -0.30007  -0.28894  -0.22270
  Beta  occ. eigenvalues --   -0.21770  -0.20771  -0.18271  -0.17782  -0.16923
  Beta  occ. eigenvalues --   -0.16680  -0.15685  -0.12586
  Beta virt. eigenvalues --    0.05858   0.06138   0.06539   0.07211   0.07976
  Beta virt. eigenvalues --    0.08600   0.08985   0.09517   0.09903   0.10276
  Beta virt. eigenvalues --    0.10636   0.11562   0.11906   0.12741   0.13284

 Mulliken charges and spin densities:
               1          2
     1  C    1.389419  -1.743677
     2  N    0.306254  -0.053157
     3  C    0.244849  -0.340408
     4  C   -0.745741   1.266369
     5  C    0.315984  -0.536009
     6  N   -0.717997   0.369423
     7  N   -0.196640  -0.011174
     8  C   -0.600717  -0.222639
     9  O   -0.331479   0.001591
    10  C    0.236615   0.026059
    11  C    0.295982  -0.076934
    12  N    0.055634  -0.079982
    13  N   -0.155363  -0.015343
    14  C   -0.110905   0.050351
    15  C    1.227633  -2.252392
    16  N   -0.527802   0.105249
    17  H   -0.402621   0.588622
    18  H   -0.247606   0.427742
    19  H   -0.555602   0.705878
    20  H   -1.001859   1.197625
    21  H    0.534085  -0.099753
    22  H    0.157091   0.190432
    23  H    0.016616   0.301650
    24  H    0.186901   0.008526
    25  H    0.005013   0.176632
    26  H   -0.456976   0.636547
    27  H    0.044821   0.199205
    28  H    0.034411   0.179568
 Sum of Mulliken charges =  -1.00000   1.00000

 Dipole moment (field-independent basis, Debye):
    X=              3.6711    Y=             -2.3807    Z=             -0.6407  Tot=              4.4221
 Quadrupole moment (field-independent basis, Debye-Ang):
   XX=           -178.2916   YY=           -155.9427   ZZ=           -117.8572
   XY=             13.7082   XZ=              3.2971   YZ=             -3.3426

 Summary of Natural Population Analysis:

                                       Natural Population
                Natural  -----------------------------------------------
    Atom  No    Charge         Core      Valence    Rydberg      Total
 -----------------------------------------------------------------------
      C    1   -0.17108      0.99964     2.16272    0.00872     3.17108
      N    2   -0.10285      0.99967     2.59066    0.01251     3.60285
      C    3    0.01160      0.99949     1.97725    0.01166     2.98840
      C    4   -0.08637      0.99949     2.07594    0.01095     3.08637
      C    5    0.17476      0.99950     1.81057    0.01516     2.82524
      N    6   -0.18135      0.99968     2.66942    0.01224     3.68135
      N    7   -0.31782      0.99963     2.81023    0.00796     3.81782
      C    8    0.33688      0.99962     1.64330    0.02020     2.66312
      O    9   -0.32242      0.99988     3.31747    0.00507     4.32242
      C   10   -0.13005      0.99948     2.12111    0.00946     3.13005
      C   11    0.01161      0.99955     1.97714    0.01169     2.98839
      N   12   -0.16900      0.99970     2.65613    0.01317     3.66900
      N   13   -0.15922      0.99974     2.64592    0.01356     3.65922
      C   14    0.01160      0.99961     1.97478    0.01401     2.98840
      C   15   -0.09583      0.99960     2.08439    0.01184     3.09583
      N   16   -0.42907      0.99977     2.91913    0.01017     3.92907
      H   17    0.10130      0.00000     0.39638    0.00232     0.39870
      H   18    0.10194      0.00000     0.39638    0.00168     0.39806
      H   19    0.10514      0.00000     0.39208    0.00278     0.39486
      H   20    0.10933      0.00000     0.38812    0.00255     0.39067
      H   21    0.21931      0.00000     0.27771    0.00299     0.28069
      H   22    0.12840      0.00000     0.36975    0.00185     0.37160
      H   23    0.20120      0.00000     0.29621    0.00260     0.29880
      H   24    0.10636      0.00000     0.39275    0.00089     0.39364
      H   25    0.09559      0.00000     0.40312    0.00128     0.40441
      H   26    0.09159      0.00000     0.40588    0.00254     0.40841
      H   27    0.17986      0.00000     0.31836    0.00179     0.32014
      H   28    0.17858      0.00000     0.31967    0.00175     0.32142
 =======================================================================
   * Total *   -0.00000     15.99406    41.79256    0.21339    58.00000

 Normal termination of Gaussian 16 at Fri Dec 11 02:00:09 2020.
