 Gaussian 16, Revision A.03,

 -----------------------------------------------------------
 # opt freq B3LYP/6-31G(d) empiricaldispersion=gd3bj scf=xqc
 -----------------------------------------------------------

 -----------------------------
 CID_6914021_JID_1394_neutraal
 -----------------------------
 Symbolic Z-matrix:
 Charge =  0 Multiplicity = 1

 SCF Done:  E(RB3LYP) =  -503.078031512     A.U. after   14 cycles
 SCF Done:  E(RB3LYP) =  -503.079046036     A.U. after   12 cycles
 SCF Done:  E(RB3LYP) =  -503.077952875     A.U. after   13 cycles
 SCF Done:  E(RB3LYP) =  -503.079703623     A.U. after   12 cycles
 SCF Done:  E(RB3LYP) =  -503.080373063     A.U. after   13 cycles
 SCF Done:  E(RB3LYP) =  -503.080775027     A.U. after   12 cycles
 SCF Done:  E(RB3LYP) =  -503.081139900     A.U. after   12 cycles
 SCF Done:  E(RB3LYP) =  -503.081517416     A.U. after   13 cycles
 SCF Done:  E(RB3LYP) =  -503.082026268     A.U. after   12 cycles
 SCF Done:  E(RB3LYP) =  -503.082243018     A.U. after   12 cycles
 SCF Done:  E(RB3LYP) =  -503.082314621     A.U. after   10 cycles
 SCF Done:  E(RB3LYP) =  -503.082317407     A.U. after   10 cycles
 SCF Done:  E(RB3LYP) =  -503.082319620     A.U. after    9 cycles
 SCF Done:  E(RB3LYP) =  -503.082320179     A.U. after    8 cycles
 SCF Done:  E(RB3LYP) =  -503.082320264     A.U. after    7 cycles
 SCF Done:  E(RB3LYP) =  -503.082320272     A.U. after    7 cycles
 Optimization completed.
    -- Stationary point found.

 1\1\GINC-NODE308\FOpt\RB3LYP\6-31G(d)\C9H16O2\VSC10255\08-Dec-2020\0\\
 # opt freq B3LYP/6-31G(d) empiricaldispersion=gd3bj scf=xqc\\CID_69140
 21_JID_1394_neutraal\\0,1\C,0.9921628397,-0.0122123362,0.491610301\C,0
 .4373002476,-1.079411529,-0.4104629521\C,-0.3360893005,-2.1158908601,-
 0.0667034967\C,-0.8387003572,-2.4729500406,1.3087018919\C,-2.343459522
 6,-2.7795468232,1.272358946\C,-0.0629913506,-3.6764073243,1.8917805956
 \C,1.4493502104,-3.4606530885,1.9755382361\C,1.8330329779,-2.327690779
 8,2.9030772616\O,1.1429410943,-1.8712051602,3.7906828719\O,3.078195607

 Normal termination of Gaussian 16 at Tue Dec  8 19:55:45 2020.

 --------------------------------------------------------------------
 #N Geom=AllCheck Guess=TCheck SCRF=Check GenChk RB3LYP/6-31G(d) Freq
 --------------------------------------------------------------------

 Structure from the checkpoint file:  "JID_1394.chk"
 -----------------------------
 CID_6914021_JID_1394_neutraal
 -----------------------------
 Charge =  0 Multiplicity = 1

 SCF Done:  E(RB3LYP) =  -503.082320272     A.U. after    1 cycles

  Exact polarizability: 108.082  13.072 103.710   3.227  -1.193  83.629
 Approx polarizability: 134.936  20.980 146.960   4.532  -7.109 132.394

                      1                      2                      3
                      A                      A                      A
 Frequencies --     37.2991                43.5478                79.2611
 Red. masses --      3.6207                 4.5834                 3.0676
 Frc consts  --      0.0030                 0.0051                 0.0114
 IR Inten    --      0.5403                 1.2453                 0.1470

                      4                      5                      6
                      A                      A                      A
 Frequencies --    102.2552               138.0877               161.3194
 Red. masses --      2.9490                 1.2255                 1.4627
 Frc consts  --      0.0182                 0.0138                 0.0224
 IR Inten    --      0.4276                 0.9874                 1.6323

                      7                      8                      9
                      A                      A                      A
 Frequencies --    174.6243               201.5963               209.0211
 Red. masses --      1.7648                 2.6487                 2.7512
 Frc consts  --      0.0317                 0.0634                 0.0708
 IR Inten    --      1.2582                 4.5155                 0.2246

                     10                     11                     12
                      A                      A                      A
 Frequencies --    234.3322               249.0416               290.7291
 Red. masses --      1.1974                 2.1302                 2.2121
 Frc consts  --      0.0387                 0.0778                 0.1102
 IR Inten    --      0.9472                 2.0319                 1.2741

                     13                     14                     15
                      A                      A                      A
 Frequencies --    309.4416               363.9054               402.6418
 Red. masses --      2.5138                 3.6681                 2.8610
 Frc consts  --      0.1418                 0.2862                 0.2733
 IR Inten    --      7.2599                11.2252                 2.3767

                     16                     17                     18
                      A                      A                      A
 Frequencies --    489.4634               534.7289               580.6593
 Red. masses --      2.3970                 2.7788                 2.9014
 Frc consts  --      0.3383                 0.4681                 0.5764
 IR Inten    --      0.1211                 2.9352                 7.9815

                     19                     20                     21
                      A                      A                      A
 Frequencies --    597.4635               667.0336               753.5988
 Red. masses --      2.8447                 2.9309                 1.3887
 Frc consts  --      0.5983                 0.7683                 0.4647
 IR Inten    --      0.8920                 3.8578                25.1935

                     22                     23                     24
                      A                      A                      A
 Frequencies --    809.6398               859.3046               898.6524
 Red. masses --      2.3458                 2.7339                 2.2527
 Frc consts  --      0.9060                 1.1894                 1.0719
 IR Inten    --     12.9544                 7.0009                 2.5117

                     25                     26                     27
                      A                      A                      A
 Frequencies --    933.8974               957.5248               997.9670
 Red. masses --      1.9132                 1.8955                 1.7807
 Frc consts  --      0.9831                 1.0239                 1.0449
 IR Inten    --      7.6420                 8.8365                 4.5705

                     28                     29                     30
                      A                      A                      A
 Frequencies --   1012.4285              1015.1393              1055.7125
 Red. masses --      3.4561                 1.2486                 2.1139
 Frc consts  --      2.0872                 0.7581                 1.3881
 IR Inten    --     10.9680                 0.7327                 8.4293

                     31                     32                     33
                      A                      A                      A
 Frequencies --   1071.8456              1080.6111              1111.1869
 Red. masses --      1.6822                 1.4847                 2.5198
 Frc consts  --      1.1386                 1.0215                 1.8331
 IR Inten    --      0.9094                 0.9215                 9.5737

                     34                     35                     36
                      A                      A                      A
 Frequencies --   1148.1803              1174.7752              1186.5152
 Red. masses --      2.2861                 1.7818                 1.2782
 Frc consts  --      1.7757                 1.4488                 1.0602
 IR Inten    --     23.0406                 6.3991                 0.8457

                     37                     38                     39
                      A                      A                      A
 Frequencies --   1210.3637              1220.3648              1253.4327
 Red. masses --      1.8197                 1.4328                 2.1236
 Frc consts  --      1.5707                 1.2572                 1.9657
 IR Inten    --     84.3890                11.0439               208.9572

                     40                     41                     42
                      A                      A                      A
 Frequencies --   1266.8426              1306.3252              1349.7389
 Red. masses --      1.3998                 1.1982                 1.2283
 Frc consts  --      1.3237                 1.2047                 1.3185
 IR Inten    --     15.4166                 7.2799                 5.6751

                     43                     44                     45
                      A                      A                      A
 Frequencies --   1362.6340              1397.2092              1414.9141
 Red. masses --      1.3349                 1.4343                 1.5942
 Frc consts  --      1.4604                 1.6498                 1.8804
 IR Inten    --     21.2799                 2.8409                34.3443

                     46                     47                     48
                      A                      A                      A
 Frequencies --   1434.6317              1442.6559              1460.8368
 Red. masses --      1.2517                 1.2229                 1.4415
 Frc consts  --      1.5179                 1.4996                 1.8124
 IR Inten    --      0.4594                 0.2944                 5.9543

                     49                     50                     51
                      A                      A                      A
 Frequencies --   1487.9002              1493.8208              1508.3522
 Red. masses --      1.0866                 1.2285                 1.0937
 Frc consts  --      1.4173                 1.6152                 1.4661
 IR Inten    --     10.8040                14.0672                 7.7498

                     52                     53                     54
                      A                      A                      A
 Frequencies --   1512.6749              1520.7028              1521.4964
 Red. masses --      1.0487                 1.0460                 1.0666
 Frc consts  --      1.4138                 1.4252                 1.4548
 IR Inten    --      2.0283                12.3522                 8.6056

                     55                     56                     57
                      A                      A                      A
 Frequencies --   1525.1176              1527.9535              1530.8685
 Red. masses --      1.0476                 1.0513                 1.0582
 Frc consts  --      1.4357                 1.4462                 1.4611
 IR Inten    --      8.6836                 7.9609                 2.8113

                     58                     59                     60
                      A                      A                      A
 Frequencies --   1745.8531              1818.5416              3037.4296
 Red. masses --      6.2090                10.7612                 1.0404
 Frc consts  --     11.1504                20.9680                 5.6557
 IR Inten    --      1.4295               157.3909                31.0530

                     61                     62                     63
                      A                      A                      A
 Frequencies --   3038.7927              3042.1487              3054.0072
 Red. masses --      1.0474                 1.0534                 1.0682
 Frc consts  --      5.6987                 5.7441                 5.8698
 IR Inten    --      4.5124                48.8285                23.2415

                     64                     65                     66
                      A                      A                      A
 Frequencies --   3074.9326              3081.7810              3085.3979
 Red. masses --      1.0296                 1.0997                 1.0878
 Frc consts  --      5.7358                 6.1536                 6.1015
 IR Inten    --     28.2213                25.3588                10.5764

                     67                     68                     69
                      A                      A                      A
 Frequencies --   3093.6824              3108.9657              3119.3266
 Red. masses --      1.0981                 1.0955                 1.0937
 Frc consts  --      6.1920                 6.2390                 6.2701
 IR Inten    --      1.0786                23.9110                 9.1896

                     70                     71                     72
                      A                      A                      A
 Frequencies --   3121.0330              3121.5605              3138.0393
 Red. masses --      1.0982                 1.0886                 1.0945
 Frc consts  --      6.3028                 6.2500                 6.3502
 IR Inten    --     36.6227                30.0990                 3.0129

                     73                     74                     75
                      A                      A                      A
 Frequencies --   3149.0419              3153.7010              3181.4025
 Red. masses --      1.1072                 1.0944                 1.1071
 Frc consts  --      6.4692                 6.4133                 6.6018
 IR Inten    --     26.1156                58.1098                18.0343

 - Thermochemistry -
 -------------------
 Temperature   298.150 Kelvin.  Pressure   1.00000 Atm.
 Atom     1 has atomic number  6 and mass  12.00000

 Molecular mass:   156.11503 amu.
 Principal axes and moments of inertia in atomic units:
                           1         2         3
     Eigenvalues --  1192.586612414.405553009.89965
           X            0.99937   0.03553   0.00143
           Y           -0.03555   0.99910   0.02316
           Z           -0.00060  -0.02319   0.99973
 This molecule is an asymmetric top.
 Rotational symmetry number  1.
 Warning -- assumption of classical behavior for rotation
           may cause significant error
 Rotational temperatures (Kelvin)      0.07263     0.03587     0.02878
 Rotational constants (GHZ):           1.51330     0.74749     0.59960
 Zero-point vibrational energy     627129.7 (Joules/Mol)
                                  149.88761 (Kcal/Mol)
 Warning -- explicit consideration of  19 degrees of freedom as
           vibrations may cause significant error
 Vibrational temperatures:     53.67    62.66   114.04   147.12   198.68
          (Kelvin)            232.10   251.25   290.05   300.73   337.15
                              358.32   418.29   445.22   523.58   579.31
                              704.23   769.36   835.44   859.62   959.71
                             1084.26  1164.89  1236.35  1292.96  1343.67
                             1377.66  1435.85  1456.66  1460.56  1518.93
                             1542.15  1554.76  1598.75  1651.98  1690.24
                             1707.13  1741.44  1755.83  1803.41  1822.70
                             1879.51  1941.97  1960.53  2010.27  2035.75
                             2064.11  2075.66  2101.82  2140.76  2149.27
                             2170.18  2176.40  2187.95  2189.09  2194.30
                             2198.38  2202.58  2511.89  2616.48  4370.18
                             4372.14  4376.97  4394.04  4424.14  4434.00
                             4439.20  4451.12  4473.11  4488.02  4490.47
                             4491.23  4514.94  4530.77  4537.47  4577.33

 Zero-point correction=                           0.238861 (Hartree/Particle)
 Thermal correction to Energy=                    0.252098
 Thermal correction to Enthalpy=                  0.253042
 Thermal correction to Gibbs Free Energy=         0.198684
 Sum of electronic and zero-point Energies=           -502.843459
 Sum of electronic and thermal Energies=              -502.830223
 Sum of electronic and thermal Enthalpies=            -502.829278
 Sum of electronic and thermal Free Energies=         -502.883636

                     E (Thermal)             CV                S
                      KCal/Mol        Cal/Mol-Kelvin    Cal/Mol-Kelvin
 Total                  158.194             47.114            114.405
 Electronic               0.000              0.000              0.000
 Translational            0.889              2.981             41.046
 Rotational               0.889              2.981             30.539
 Vibrational            156.416             41.152             42.820
 Vibration     1          0.594              1.982              5.398
 Vibration     2          0.595              1.980              5.091
 Vibration     3          0.600              1.963              3.909
 Vibration     4          0.604              1.947              3.411
 Vibration     5          0.614              1.915              2.830
 Vibration     6          0.622              1.890              2.534
 Vibration     7          0.627              1.874              2.385
 Vibration     8          0.638              1.838              2.118
 Vibration     9          0.642              1.827              2.052
 Vibration    10          0.654              1.788              1.846
 Vibration    11          0.662              1.764              1.737
 Vibration    12          0.687              1.691              1.470
 Vibration    13          0.699              1.656              1.365
 Vibration    14          0.737              1.547              1.105
 Vibration    15          0.768              1.464              0.953
 Vibration    16          0.845              1.273              0.685
 Vibration    17          0.890              1.173              0.577
 Vibration    18          0.937              1.073              0.484
 Vibration    19          0.955              1.037              0.454

                           ! Non-Optimized Parameters !

 1\1\GINC-NODE308\Freq\RB3LYP\6-31G(d)\C9H16O2\VSC10255\08-Dec-2020\0\\
 #N Geom=AllCheck Guess=TCheck SCRF=Check GenChk RB3LYP/6-31G(d) Freq\\
 CID_6914021_JID_1394_neutraal\\0,1\C,0.9921628397,-0.0122123362,0.4916
 10301\C,0.4373002476,-1.079411529,-0.4104629521\C,-0.3360893005,-2.115
 8908601,-0.0667034967\C,-0.8387003572,-2.4729500406,1.3087018919\C,-2.
 3434595226,-2.7795468232,1.272358946\C,-0.0629913506,-3.6764073243,1.8
 917805956\C,1.4493502104,-3.4606530885,1.9755382361\C,1.8330329779,-2.
 3276907798,2.9030772616\O,1.1429410943,-1.8712051602,3.7906828719\O,3.

 Normal termination of Gaussian 16 at Tue Dec  8 20:01:23 2020.

 ----------------------------------------------------------------------
 # B3LYP/6-311++G(d,p) empiricaldispersion=gd3bj scf=xqc pop=npa geom=c
 heck
 ----------------------------------------------------------------------

 -------------------------------------
 CID_6914021_JID_1394_Energie_neutraal
 -------------------------------------
 Structure from the checkpoint file:  "JID_1394.chk"
 Charge =  0 Multiplicity = 1

 SCF Done:  E(RB3LYP) =  -503.230519225     A.U. after   14 cycles
 Normal termination of Gaussian 16 at Tue Dec  8 20:03:34 2020.

 ----------------------------------------------------------------------
 # B3LYP/6-311++G(d,p) empiricaldispersion=gd3bj scf=xqc pop=npa geom=c
 heck
 ----------------------------------------------------------------------

 -----------------------------------
 CID_6914021_JID_1394_Energie_kation
 -----------------------------------
 Structure from the checkpoint file:  "JID_1394.chk"
 Charge =  1 Multiplicity = 2

 SCF Done:  E(UB3LYP) =  -502.906703455     A.U. after   20 cycles
 Normal termination of Gaussian 16 at Tue Dec  8 20:07:18 2020.
 Gaussian 16:  ES64L-G16RevA.03 25-Dec-2016

 ----------------------------------
 CID_6914021_JID_1394_Energie_anion
 ----------------------------------
 Structure from the checkpoint file:  "JID_1394.chk"
 Charge = -1 Multiplicity = 2

                         Standard orientation:
 ---------------------------------------------------------------------
 Center     Atomic      Atomic             Coordinates (Angstroms)
 Number     Number       Type             X           Y           Z
 ---------------------------------------------------------------------
      1          6           0       -0.038879    2.340895    0.450596
      2          6           0       -1.191846    2.038623   -0.465822
      3          6           0       -1.904435    0.908022   -0.533279
      4          6           0       -1.725764   -0.342948    0.288305
      5          6           0       -3.075477   -0.824614    0.841383
      6          6           0       -1.057809   -1.464452   -0.539993
      7          6           0        0.301242   -1.079122   -1.127569
      8          6           0        1.338031   -0.776778   -0.067003
      9          8           0        1.301474   -1.146119    1.088290
     10          8           0        2.349553   -0.034294   -0.572583
     11          6           0        3.394354    0.286566    0.358505
     12          1           0        0.131370    1.554993    1.190604
     13          1           0       -0.203356    3.284043    0.987442
     14          1           0        0.888989    2.460415   -0.124831
     15          1           0       -1.454587    2.842783   -1.154091
     16          1           0       -2.700722    0.853416   -1.278825
     17          1           0       -1.068279   -0.135509    1.137555
     18          1           0       -3.773871   -1.055523    0.026641
     19          1           0       -2.950181   -1.731913    1.443336
     20          1           0       -3.538472   -0.057361    1.470904
     21          1           0       -0.938292   -2.345924    0.100032
     22          1           0       -1.723077   -1.751361   -1.365268
     23          1           0        0.697853   -1.899564   -1.741142
     24          1           0        0.217948   -0.210151   -1.786399
     25          1           0        2.999139    0.886892    1.182393
     26          1           0        3.840806   -0.623926    0.766352
     27          1           0        4.130023    0.854840   -0.211107
 ---------------------------------------------------------------------

 SCF Done:  E(UB3LYP) =  -503.213022190     A.U. after   32 cycles

 The electronic state is 2-A.
 Alpha  occ. eigenvalues --  -19.06681 -19.01173 -10.19934 -10.11749 -10.07925
 Alpha  occ. eigenvalues --  -10.07516 -10.07074 -10.06922 -10.06386 -10.06356
 Alpha  occ. eigenvalues --  -10.06086  -1.00680  -0.91974  -0.72804  -0.68200
 Alpha  occ. eigenvalues --   -0.65737  -0.61750  -0.58376  -0.54821  -0.49874
 Alpha  occ. eigenvalues --   -0.45822  -0.43400  -0.39890  -0.39169  -0.38116
 Alpha  occ. eigenvalues --   -0.37275  -0.35223  -0.33974  -0.32723  -0.32045
 Alpha  occ. eigenvalues --   -0.30797  -0.29446  -0.28198  -0.27763  -0.26919
 Alpha  occ. eigenvalues --   -0.26397  -0.25624  -0.24262  -0.23103  -0.21967
 Alpha  occ. eigenvalues --   -0.20746  -0.18082  -0.14723   0.04692
 Alpha virt. eigenvalues --    0.06645   0.07125   0.07870   0.08642   0.09642
 Alpha virt. eigenvalues --    0.09699   0.09915   0.10373   0.11096   0.11432
 Alpha virt. eigenvalues --    0.11902   0.12157   0.12473   0.13053   0.13729

  Beta  occ. eigenvalues --  -19.06674 -19.01165 -10.19929 -10.11696 -10.07907
  Beta  occ. eigenvalues --  -10.07512 -10.07057 -10.06911 -10.06369 -10.06345
  Beta  occ. eigenvalues --  -10.06057  -1.00664  -0.91958  -0.72781  -0.68163
  Beta  occ. eigenvalues --   -0.65700  -0.61691  -0.58328  -0.54763  -0.49823
  Beta  occ. eigenvalues --   -0.45779  -0.43362  -0.39857  -0.39132  -0.38078
  Beta  occ. eigenvalues --   -0.37243  -0.35182  -0.33930  -0.32694  -0.32007
  Beta  occ. eigenvalues --   -0.30766  -0.29412  -0.28160  -0.27733  -0.26888
  Beta  occ. eigenvalues --   -0.26364  -0.25591  -0.24223  -0.23068  -0.21940
  Beta  occ. eigenvalues --   -0.20724  -0.18069  -0.14703
  Beta virt. eigenvalues --    0.06874   0.07692   0.07926   0.08271   0.09299
  Beta virt. eigenvalues --    0.09927   0.10292   0.10455   0.10614   0.11284
  Beta virt. eigenvalues --    0.11749   0.12329   0.12602   0.12937   0.13422

 Mulliken charges and spin densities:
               1          2
     1  C    0.517907  -1.293774
     2  C    1.282903  -1.435112
     3  C   -1.088816   0.851625
     4  C   -0.690881   1.336723
     5  C    0.287791  -0.848139
     6  C    0.415019  -0.922263
     7  C    0.600913  -0.817893
     8  C   -0.623444   0.224575
     9  O   -0.258145   0.041417
    10  O   -0.099773   0.106769
    11  C    1.211138  -1.417919
    12  H    0.072038   0.051460
    13  H   -0.353915   0.511544
    14  H   -0.037386   0.209149
    15  H   -0.360361   0.528234
    16  H   -0.242141   0.403589
    17  H   -0.040018   0.215796
    18  H   -0.082460   0.221059
    19  H   -0.003449   0.138492
    20  H    0.029970   0.105330
    21  H    0.109247   0.053443
    22  H   -0.232887   0.388577
    23  H   -0.416324   0.624262
    24  H    0.233353  -0.001457
    25  H   -0.249349   0.417974
    26  H   -0.276234   0.439159
    27  H   -0.704694   0.867382
 Sum of Mulliken charges =  -1.00000   1.00000

 Dipole moment (field-independent basis, Debye):
    X=             -3.1694    Y=             -2.1072    Z=              0.9214  Tot=              3.9159
 Quadrupole moment (field-independent basis, Debye-Ang):
   XX=           -136.4822   YY=           -116.0243   ZZ=           -102.6054
   XY=             -2.7928   XZ=             -3.8552   YZ=             -1.8359

 Summary of Natural Population Analysis:

                                       Natural Population
                Natural  -----------------------------------------------
    Atom  No    Charge         Core      Valence    Rydberg      Total
 -----------------------------------------------------------------------
      C    1   -0.30823      0.99964     2.30188    0.00671     3.30823
      C    2   -0.08665      0.99952     2.07709    0.01004     3.08665
      C    3   -0.09759      0.99950     2.08588    0.01220     3.09759
      C    4   -0.13625      0.99957     2.12598    0.01070     3.13625
      C    5   -0.27683      0.99965     2.27258    0.00459     3.27683
      C    6   -0.18353      0.99961     2.17380    0.01012     3.18353
      C    7   -0.23929      0.99957     2.23090    0.00881     3.23929
      C    8    0.41235      0.99969     1.56206    0.02591     2.58765
      O    9   -0.31048      0.99987     3.30520    0.00541     4.31048
      O   10   -0.27862      0.99986     3.26893    0.00983     4.27862
      C   11   -0.10448      0.99959     2.09543    0.00946     3.10448
      H   12    0.10137      0.00000     0.39716    0.00147     0.39863
      H   13    0.10334      0.00000     0.39550    0.00116     0.39666
      H   14    0.10785      0.00000     0.39071    0.00144     0.39215
      H   15    0.09272      0.00000     0.40609    0.00119     0.40728
      H   16    0.09454      0.00000     0.40412    0.00134     0.40546
      H   17    0.10451      0.00000     0.39321    0.00228     0.39549
      H   18    0.09575      0.00000     0.40312    0.00113     0.40425
      H   19    0.09756      0.00000     0.40155    0.00089     0.40244
      H   20    0.09958      0.00000     0.39949    0.00093     0.40042
      H   21    0.10309      0.00000     0.39576    0.00115     0.39691
      H   22    0.09861      0.00000     0.40004    0.00134     0.40139
      H   23    0.11607      0.00000     0.38256    0.00136     0.38393
      H   24    0.11622      0.00000     0.38202    0.00176     0.38378
      H   25    0.09219      0.00000     0.40624    0.00156     0.40781
      H   26    0.09116      0.00000     0.40741    0.00143     0.40884
      H   27    0.09501      0.00000     0.40258    0.00241     0.40499
 =======================================================================
   * Total *   -0.00000     10.99609    31.86729    0.13662    43.00000

 Normal termination of Gaussian 16 at Tue Dec  8 20:13:23 2020.
