 Gaussian 16, Revision A.03,

 -----------------------------------------------------------
 # opt freq B3LYP/6-31G(d) empiricaldispersion=gd3bj scf=xqc
 -----------------------------------------------------------

 -------------------------------
 CID_25066054_JID_10436_neutraal
 -------------------------------
 Symbolic Z-matrix:
 Charge =  0 Multiplicity = 1

 SCF Done:  E(RB3LYP) =  -944.777236181     A.U. after   16 cycles
 SCF Done:  E(RB3LYP) =  -944.793217907     A.U. after   17 cycles
 SCF Done:  E(RB3LYP) =  -944.798759425     A.U. after   15 cycles
 SCF Done:  E(RB3LYP) =  -944.801906118     A.U. after   17 cycles
 SCF Done:  E(RB3LYP) =  -944.799864572     A.U. after   17 cycles
 SCF Done:  E(RB3LYP) =  -944.802718282     A.U. after   16 cycles
 SCF Done:  E(RB3LYP) =  -944.805800150     A.U. after   14 cycles
 SCF Done:  E(RB3LYP) =  -944.806005236     A.U. after   14 cycles
 SCF Done:  E(RB3LYP) =  -944.806043662     A.U. after   13 cycles
 SCF Done:  E(RB3LYP) =  -944.806062282     A.U. after   12 cycles
 SCF Done:  E(RB3LYP) =  -944.806068730     A.U. after   11 cycles
 SCF Done:  E(RB3LYP) =  -944.806071947     A.U. after   12 cycles
 SCF Done:  E(RB3LYP) =  -944.806072618     A.U. after   11 cycles
 SCF Done:  E(RB3LYP) =  -944.806072736     A.U. after    9 cycles
 Optimization completed.
    -- Stationary point found.
 Normal termination of Gaussian 16 at Mon Dec 14 13:43:33 2020.

 --------------------------------------------------------------------
 #N Geom=AllCheck Guess=TCheck SCRF=Check GenChk RB3LYP/6-31G(d) Freq
 --------------------------------------------------------------------

 Structure from the checkpoint file:  "JID_10436.chk"
 -------------------------------
 CID_25066054_JID_10436_neutraal
 -------------------------------
 Charge =  0 Multiplicity = 1

 SCF Done:  E(RB3LYP) =  -944.806072736     A.U. after    1 cycles

  Exact polarizability: 468.206 -14.105 161.831   0.003   0.004  57.184
 Approx polarizability: 654.800 -43.908 325.732   0.001  -0.014  90.718

                      1                      2                      3
                      A                      A                      A
 Frequencies --     21.7505                26.1078                43.6309
 Red. masses --      5.7997                 7.2694                10.3755
 Frc consts  --      0.0016                 0.0029                 0.0116
 IR Inten    --      0.3267                 0.4180                 1.1309

                      4                      5                      6
                      A                      A                      A
 Frequencies --     50.9277                63.0751                87.8998
 Red. masses --      9.6638                 7.1876                 9.6257
 Frc consts  --      0.0148                 0.0168                 0.0438
 IR Inten    --      0.2157                 0.0344                 0.5276

                      7                      8                      9
                      A                      A                      A
 Frequencies --     94.2959               161.3726               163.7743
 Red. masses --      8.1733                 9.4636                 9.4040
 Frc consts  --      0.0428                 0.1452                 0.1486
 IR Inten    --      0.4642                 0.4734                 3.8427

                     10                     11                     12
                      A                      A                      A
 Frequencies --    208.0511               220.4906               303.2572
 Red. masses --     10.1962                 8.9086                 6.5356
 Frc consts  --      0.2600                 0.2552                 0.3541
 IR Inten    --      2.0823                 1.5055                 7.9348

                     13                     14                     15
                      A                      A                      A
 Frequencies --    330.6844               380.4192               396.7192
 Red. masses --      7.4996                 7.8914                 5.6020
 Frc consts  --      0.4832                 0.6729                 0.5195
 IR Inten    --      0.0045                28.5169                 0.2488

                     16                     17                     18
                      A                      A                      A
 Frequencies --    412.0883               425.2625               430.0734
 Red. masses --      8.0815                 3.1795                 3.3910
 Frc consts  --      0.8086                 0.3388                 0.3695
 IR Inten    --      3.2574                 0.0002                 0.0193

                     19                     20                     21
                      A                      A                      A
 Frequencies --    505.8376               511.6648               522.1830
 Red. masses --      2.9501                 9.4260                 7.4479
 Frc consts  --      0.4447                 1.4539                 1.1966
 IR Inten    --      0.0048                 2.1581                 5.8632

                     22                     23                     24
                      A                      A                      A
 Frequencies --    550.0921               557.5010               560.1965
 Red. masses --      5.9808                 5.6807                 3.6040
 Frc consts  --      1.0663                 1.0403                 0.6664
 IR Inten    --      5.1142                 5.5082                27.0380

                     25                     26                     27
                      A                      A                      A
 Frequencies --    627.6207               643.5642               654.0455
 Red. masses --     10.3047                 7.2057                 7.2704
 Frc consts  --      2.3915                 1.7584                 1.8324
 IR Inten    --     18.5903                 0.3886                 1.2818

                     28                     29                     30
                      A                      A                      A
 Frequencies --    690.1969               700.8239               736.2221
 Red. masses --      7.9211                 4.0115                 4.2042
 Frc consts  --      2.2232                 1.1609                 1.3426
 IR Inten    --      7.7500                16.2133                 9.3865

                     31                     32                     33
                      A                      A                      A
 Frequencies --    769.1583               771.2138               840.7538
 Red. masses --      5.5971                 6.9616                 1.2710
 Frc consts  --      1.9510                 2.4396                 0.5293
 IR Inten    --      6.7604                 4.2140                 3.7294

                     34                     35                     36
                      A                      A                      A
 Frequencies --    842.6969               857.8508               872.7377
 Red. masses --      7.6297                 1.2449                 1.5740
 Frc consts  --      3.1923                 0.5398                 0.7064
 IR Inten    --     43.5678                 0.0033                30.2359

                     37                     38                     39
                      A                      A                      A
 Frequencies --    876.9070               896.3875               947.2377
 Red. masses --      8.3830                 1.7290                 6.8581
 Frc consts  --      3.7980                 0.8185                 3.6255
 IR Inten    --     39.1945                49.3573                 3.5532

                     40                     41                     42
                      A                      A                      A
 Frequencies --    971.6685               992.5963               999.3170
 Red. masses --      1.3234                 1.3273                 1.3169
 Frc consts  --      0.7362                 0.7705                 0.7749
 IR Inten    --      0.5882                 0.0263                 0.1831

                     43                     44                     45
                      A                      A                      A
 Frequencies --   1009.1186              1030.6224              1032.2152
 Red. masses --      1.3109                 2.6104                 2.6718
 Frc consts  --      0.7865                 1.6337                 1.6773
 IR Inten    --      0.0000                 7.6227                 5.4111

                     46                     47                     48
                      A                      A                      A
 Frequencies --   1129.5724              1133.9166              1135.3878
 Red. masses --      1.2639                 2.6641                 1.3242
 Frc consts  --      0.9501                 2.0182                 1.0058
 IR Inten    --      6.5778               106.8618                15.5588

                     49                     50                     51
                      A                      A                      A
 Frequencies --   1159.9541              1176.2126              1185.9211
 Red. masses --      3.5016                 1.9568                 1.2802
 Frc consts  --      2.7759                 1.5950                 1.0608
 IR Inten    --    194.1840                16.7109                30.6459

                     52                     53                     54
                      A                      A                      A
 Frequencies --   1222.5158              1278.7238              1323.5879
 Red. masses --      2.1631                 4.1017                 1.3246
 Frc consts  --      1.9048                 3.9515                 1.3673
 IR Inten    --      9.2357                63.0144                 1.5152

                     55                     56                     57
                      A                      A                      A
 Frequencies --   1330.9351              1360.0958              1389.4823
 Red. masses --      1.3852                 7.4496                10.6777
 Frc consts  --      1.4457                 8.1194                12.1461
 IR Inten    --      2.7834                62.3371                20.5198

                     58                     59                     60
                      A                      A                      A
 Frequencies --   1394.8589              1454.8348              1466.7500
 Red. masses --     13.8949                 3.8004                 3.4714
 Frc consts  --     15.9281                 4.7393                 4.4001
 IR Inten    --    692.1353                20.9768                19.8025

                     61                     62                     63
                      A                      A                      A
 Frequencies --   1494.4992              1523.0282              1544.0087
 Red. masses --      3.1707                 2.9863                 5.0303
 Frc consts  --      4.1725                 4.0814                 7.0655
 IR Inten    --     31.2532                38.2555                42.8641

                     64                     65                     66
                      A                      A                      A
 Frequencies --   1580.1940              1616.5764              1622.0285
 Red. masses --      4.9003                 8.8742                 8.3173
 Frc consts  --      7.2093                13.6639                12.8929
 IR Inten    --    165.8455                87.0023                23.6263

                     67                     68                     69
                      A                      A                      A
 Frequencies --   1656.0466              1665.4571              1670.0552
 Red. masses --      6.2527                 6.2762                 9.4227
 Frc consts  --     10.1033                10.2569                15.4841
 IR Inten    --     13.9384               228.6804                87.6860

                     70                     71                     72
                      A                      A                      A
 Frequencies --   2371.3276              3204.8161              3220.0936
 Red. masses --     12.7063                 1.0893                 1.0903
 Frc consts  --     42.0973                 6.5918                 6.6611
 IR Inten    --   2602.3980                 9.7126                 5.9702

                     73                     74                     75
                      A                      A                      A
 Frequencies --   3223.5334              3224.0566              3241.2648
 Red. masses --      1.0941                 1.0906                 1.0886
 Frc consts  --      6.6987                 6.6789                 6.7382
 IR Inten    --      5.5977                 1.6944                 0.7618

                     76                     77                     78
                      A                      A                      A
 Frequencies --   3241.8480              3255.0881              3258.0331
 Red. masses --      1.0929                 1.0939                 1.0930
 Frc consts  --      6.7675                 6.8288                 6.8357
 IR Inten    --      3.1123                 0.2799                 0.3813

 - Thermochemistry -
 -------------------
 Temperature   298.150 Kelvin.  Pressure   1.00000 Atm.
 Atom     1 has atomic number  6 and mass  12.00000

 Molecular mass:   268.05964 amu.
 Principal axes and moments of inertia in atomic units:
                           1         2         3
     Eigenvalues --   858.78838********************
           X            1.00000  -0.00070  -0.00000
           Y            0.00070   1.00000   0.00003
           Z            0.00000  -0.00003   1.00000
 This molecule is an asymmetric top.
 Rotational symmetry number  1.
 Warning -- assumption of classical behavior for rotation
           may cause significant error
 Rotational temperatures (Kelvin)      0.10086     0.00433     0.00416
 Rotational constants (GHZ):           2.10150     0.09030     0.08658
 Zero-point vibrational energy     517654.1 (Joules/Mol)
                                  123.72231 (Kcal/Mol)
 Warning -- explicit consideration of  24 degrees of freedom as
           vibrations may cause significant error
 Vibrational temperatures:     31.29    37.56    62.78    73.27    90.75
          (Kelvin)            126.47   135.67   232.18   235.63   299.34
                              317.24   436.32   475.78   547.34   570.79
                              592.90   611.86   618.78   727.79   736.17
                              751.30   791.46   802.12   806.00   903.01
                              925.95   941.03   993.04  1008.33  1059.26
                             1106.65  1109.60  1209.66  1212.45  1234.26
                             1255.67  1261.67  1289.70  1362.86  1398.01
                             1428.12  1437.79  1451.90  1482.84  1485.13
                             1625.20  1631.45  1633.57  1668.92  1692.31
                             1706.28  1758.93  1839.80  1904.35  1914.92
                             1956.87  1999.16  2006.89  2093.18  2110.33
                             2150.25  2191.30  2221.48  2273.55  2325.89
                             2333.74  2382.68  2396.22  2402.84  3411.81
                             4611.02  4633.00  4637.95  4638.70  4663.46
                             4664.30  4683.35  4687.58

 Zero-point correction=                           0.197164 (Hartree/Particle)
 Thermal correction to Energy=                    0.213385
 Thermal correction to Enthalpy=                  0.214329
 Thermal correction to Gibbs Free Energy=         0.149933
 Sum of electronic and zero-point Energies=           -944.608909
 Sum of electronic and thermal Energies=              -944.592688
 Sum of electronic and thermal Enthalpies=            -944.591744
 Sum of electronic and thermal Free Energies=         -944.656139

                     E (Thermal)             CV                S
                      KCal/Mol        Cal/Mol-Kelvin    Cal/Mol-Kelvin
 Total                  133.901             60.459            135.532
 Electronic               0.000              0.000              0.000
 Translational            0.889              2.981             42.657
 Rotational               0.889              2.981             34.236
 Vibrational            132.124             54.497             58.639
 Vibration     1          0.593              1.985              6.468
 Vibration     2          0.593              1.985              6.105
 Vibration     3          0.595              1.980              5.087
 Vibration     4          0.595              1.977              4.781
 Vibration     5          0.597              1.972              4.359
 Vibration     6          0.601              1.958              3.706
 Vibration     7          0.603              1.953              3.569
 Vibration     8          0.622              1.890              2.534
 Vibration     9          0.623              1.887              2.506
 Vibration    10          0.641              1.828              2.061
 Vibration    11          0.647              1.810              1.955
 Vibration    12          0.695              1.668              1.399
 Vibration    13          0.713              1.614              1.257
 Vibration    14          0.750              1.512              1.037
 Vibration    15          0.763              1.477              0.975
 Vibration    16          0.776              1.444              0.919
 Vibration    17          0.787              1.415              0.874
 Vibration    18          0.791              1.405              0.858
 Vibration    19          0.861              1.237              0.644
 Vibration    20          0.867              1.224              0.630
 Vibration    21          0.877              1.201              0.605
 Vibration    22          0.905              1.139              0.544
 Vibration    23          0.913              1.123              0.529
 Vibration    24          0.916              1.117              0.523

                           ! Non-Optimized Parameters !
 Normal termination of Gaussian 16 at Mon Dec 14 13:52:36 2020.

 ----------------------------------------------------------------------
 # B3LYP/6-311++G(d,p) empiricaldispersion=gd3bj scf=xqc pop=npa geom=c
 heck
 ----------------------------------------------------------------------

 ---------------------------------------
 CID_25066054_JID_10436_Energie_neutraal
 ---------------------------------------
 Structure from the checkpoint file:  "JID_10436.chk"
 Charge =  0 Multiplicity = 1

 SCF Done:  E(RB3LYP) =  -945.062091947     A.U. after   16 cycles
 Normal termination of Gaussian 16 at Mon Dec 14 13:56:11 2020.

 ----------------------------------------------------------------------
 # B3LYP/6-311++G(d,p) empiricaldispersion=gd3bj scf=xqc pop=npa geom=c
 heck
 ----------------------------------------------------------------------

 -------------------------------------
 CID_25066054_JID_10436_Energie_kation
 -------------------------------------
 Structure from the checkpoint file:  "JID_10436.chk"
 Charge =  1 Multiplicity = 2

 SCF Done:  E(UB3LYP) =  -944.753894512     A.U. after   32 cycles
 Normal termination of Gaussian 16 at Mon Dec 14 14:06:27 2020.
 Gaussian 16:  ES64L-G16RevA.03 25-Dec-2016

 ----------------------------------------------------------------------
 # B3LYP/6-311++G(d,p) empiricaldispersion=gd3bj scf=xqc pop=npa geom=c
 heck
 ----------------------------------------------------------------------

 ------------------------------------
 CID_25066054_JID_10436_Energie_anion
 ------------------------------------
 Structure from the checkpoint file:  "JID_10436.chk"
 Charge = -1 Multiplicity = 2

                         Standard orientation:
 ---------------------------------------------------------------------
 Center     Atomic      Atomic             Coordinates (Angstroms)
 Number     Number       Type             X           Y           Z
 ---------------------------------------------------------------------
      1          6           0        3.978055   -1.043267   -0.001586
      2          6           0        2.600164   -1.207784   -0.001755
      3          6           0        1.748398   -0.093960   -0.000346
      4          6           0        2.296126    1.201662    0.001428
      5          6           0        3.669830    1.371176    0.001687
      6          6           0        4.519280    0.251291    0.000152
      7          7           0        5.893030    0.474553    0.000547
      8          6           0        6.920040   -0.169382    0.000273
      9          8           0        7.985324   -0.666516   -0.000197
     10          7           0        0.370040   -0.383639   -0.000652
     11          7           0       -0.385895    0.627682   -0.000066
     12          6           0       -1.767744    0.320492   -0.000025
     13          6           0       -2.628008    1.427395   -0.001109
     14          6           0       -4.006044    1.247781   -0.001153
     15          6           0       -4.504711   -0.052622    0.000047
     16          6           0       -3.668122   -1.172031    0.001249
     17          6           0       -2.295263   -0.983458    0.001198
     18          7           0       -5.959513   -0.254528    0.000115
     19          8           0       -6.675481    0.746813   -0.001265
     20          8           0       -6.375265   -1.413223    0.001446
     21          1           0        4.639646   -1.903997   -0.002755
     22          1           0        2.154479   -2.197079   -0.003033
     23          1           0        1.625505    2.052703    0.002550
     24          1           0        4.112402    2.361423    0.003094
     25          1           0       -2.190916    2.420069   -0.001949
     26          1           0       -4.693178    2.083986   -0.002046
     27          1           0       -4.107529   -2.161482    0.002221
     28          1           0       -1.612676   -1.824452    0.002093
 ---------------------------------------------------------------------

 SCF Done:  E(UB3LYP) =  -945.143663617     A.U. after   22 cycles

 The electronic state is 2-A.
 Alpha  occ. eigenvalues --  -19.09892 -19.01956 -19.01939 -14.40866 -14.27081
 Alpha  occ. eigenvalues --  -14.21788 -14.21482 -10.23289 -10.13822 -10.10385
 Alpha  occ. eigenvalues --  -10.09906 -10.09282 -10.09086 -10.08982 -10.08280
 Alpha  occ. eigenvalues --  -10.07700 -10.07691 -10.07438 -10.06950 -10.06604
 Alpha  occ. eigenvalues --   -1.09647  -1.03640  -0.92483  -0.90431  -0.89159
 Alpha  occ. eigenvalues --   -0.77415  -0.76240  -0.70554  -0.67107  -0.66289
 Alpha  occ. eigenvalues --   -0.65018  -0.61698  -0.56446  -0.52663  -0.51685
 Alpha  occ. eigenvalues --   -0.50524  -0.47236  -0.46183  -0.43896  -0.43632
 Alpha  occ. eigenvalues --   -0.41191  -0.40926  -0.39873  -0.39729  -0.38740
 Alpha  occ. eigenvalues --   -0.36942  -0.35832  -0.34719  -0.34210  -0.33893
 Alpha  occ. eigenvalues --   -0.32818  -0.32358  -0.32167  -0.29949  -0.29162
 Alpha  occ. eigenvalues --   -0.27239  -0.26522  -0.25544  -0.24328  -0.23225
 Alpha  occ. eigenvalues --   -0.23207  -0.19581  -0.18634  -0.17424  -0.17142
 Alpha  occ. eigenvalues --   -0.16854  -0.15970  -0.12727  -0.11022  -0.03037
 Alpha virt. eigenvalues --    0.03236   0.05843   0.07253   0.07955   0.08156
 Alpha virt. eigenvalues --    0.08491   0.09002   0.09176   0.09463   0.09944
 Alpha virt. eigenvalues --    0.11672   0.12001   0.12170   0.12864   0.13203

  Beta  occ. eigenvalues --  -19.09846 -19.01753 -19.01711 -14.40687 -14.27116
  Beta  occ. eigenvalues --  -14.21517 -14.20989 -10.23235 -10.13640 -10.10249
  Beta  occ. eigenvalues --  -10.09952 -10.09329 -10.09050 -10.09012 -10.08189
  Beta  occ. eigenvalues --  -10.07709 -10.07562 -10.07397 -10.06919 -10.06539
  Beta  occ. eigenvalues --   -1.09258  -1.03555  -0.92084  -0.89648  -0.89085
  Beta  occ. eigenvalues --   -0.77224  -0.76051  -0.70104  -0.66876  -0.66116
  Beta  occ. eigenvalues --   -0.64841  -0.61111  -0.56250  -0.52579  -0.51487
  Beta  occ. eigenvalues --   -0.50290  -0.47078  -0.46000  -0.43798  -0.43412
  Beta  occ. eigenvalues --   -0.41003  -0.39752  -0.39718  -0.39463  -0.38490
  Beta  occ. eigenvalues --   -0.36826  -0.35726  -0.34635  -0.34156  -0.33834
  Beta  occ. eigenvalues --   -0.32711  -0.32201  -0.31028  -0.29046  -0.28982
  Beta  occ. eigenvalues --   -0.27078  -0.25869  -0.25337  -0.24200  -0.23205
  Beta  occ. eigenvalues --   -0.22486  -0.18399  -0.18106  -0.17066  -0.16640
  Beta  occ. eigenvalues --   -0.16227  -0.15405  -0.11719  -0.10522
  Beta virt. eigenvalues --    0.01936   0.05257   0.05860   0.07526   0.08149
  Beta virt. eigenvalues --    0.08499   0.08700   0.09061   0.09462   0.09938
  Beta virt. eigenvalues --    0.09943   0.11666   0.11994   0.12293   0.12869

 Mulliken charges and spin densities:
               1          2
     1  C    0.186007  -0.029628
     2  C   -0.131261   0.078054
     3  C   -0.629398  -0.080774
     4  C    0.136419   0.142049
     5  C   -0.206208  -0.046292
     6  C   -0.424508   0.108224
     7  N   -0.061344  -0.019413
     8  C    0.377265   0.031236
     9  O   -0.295418   0.014027
    10  N    0.032536   0.247485
    11  N    0.001559   0.114363
    12  C   -0.510296   0.001696
    13  C   -0.148054   0.027295
    14  C   -0.153658   0.051008
    15  C   -0.268693   0.047866
    16  C   -0.137285   0.005626
    17  C    0.202676   0.105343
    18  N   -0.241577   0.062607
    19  O   -0.094457   0.075191
    20  O   -0.094076   0.082982
    21  H    0.165992   0.001772
    22  H    0.145750  -0.004275
    23  H    0.188190  -0.009622
    24  H    0.171329   0.003190
    25  H    0.145210  -0.001072
    26  H    0.227131  -0.002649
    27  H    0.228838   0.000677
    28  H    0.187327  -0.006965
 Sum of Mulliken charges =  -1.00000   1.00000

 Dipole moment (field-independent basis, Debye):
    X=              7.9177    Y=              0.6161    Z=              0.0011  Tot=              7.9417
 Quadrupole moment (field-independent basis, Debye-Ang):
   XX=           -276.0419   YY=           -117.3436   ZZ=           -120.4470
   XY=             -2.6752   XZ=              0.0021   YZ=              0.0070

 Summary of Natural Population Analysis:

                                       Natural Population
                Natural  -----------------------------------------------
    Atom  No    Charge         Core      Valence    Rydberg      Total
 -----------------------------------------------------------------------
      C    1   -0.12800      0.99954     2.12085    0.00761     3.12800
      C    2   -0.06669      0.99953     2.05823    0.00893     3.06669
      C    3    0.04587      0.99948     1.94104    0.01361     2.95413
      C    4   -0.06487      0.99952     2.05687    0.00848     3.06487
      C    5   -0.11973      0.99954     2.11191    0.00828     3.11973
      C    6    0.08966      0.99944     1.90027    0.01063     2.91034
      N    7   -0.26996      0.99949     2.76234    0.00813     3.76996
      C    8    0.42747      0.99961     1.55470    0.01823     2.57253
      O    9   -0.25880      0.99987     3.25203    0.00690     4.25880
      N   10   -0.04803      0.99970     2.52854    0.01979     3.54803
      N   11   -0.08814      0.99971     2.56803    0.02040     3.58814
      C   12    0.07793      0.99948     1.90899    0.01360     2.92207
      C   13   -0.08793      0.99953     2.07966    0.00875     3.08793
      C   14   -0.09303      0.99953     2.08432    0.00918     3.09303
      C   15    0.05725      0.99939     1.93252    0.01084     2.94275
      C   16   -0.10166      0.99954     2.09297    0.00914     3.10166
      C   17   -0.09014      0.99952     2.08216    0.00846     3.09014
      N   18    0.25889      0.99972     2.21370    0.02769     3.24111
      O   19   -0.19937      0.99990     3.19164    0.00784     4.19937
      O   20   -0.19539      0.99990     3.18768    0.00781     4.19539
      H   21    0.09817      0.00000     0.40084    0.00099     0.40183
      H   22    0.10457      0.00000     0.39434    0.00109     0.39543
      H   23    0.11088      0.00000     0.38693    0.00219     0.38912
      H   24    0.10121      0.00000     0.39778    0.00101     0.39879
      H   25    0.10276      0.00000     0.39613    0.00110     0.39724
      H   26    0.11327      0.00000     0.38554    0.00119     0.38673
      H   27    0.11338      0.00000     0.38546    0.00116     0.38662
      H   28    0.11042      0.00000     0.38777    0.00180     0.38958
 =======================================================================
   * Total *   -0.00000     19.99193    48.76323    0.24483    69.00000

 Normal termination of Gaussian 16 at Mon Dec 14 14:13:25 2020.
