 Gaussian 16, Revision A.03,

 -----------------------------------------------------------
 # opt freq B3LYP/6-31G(d) empiricaldispersion=gd3bj scf=xqc
 -----------------------------------------------------------

 -------------------------------
 CID_104104508_JID_3435_neutraal
 -------------------------------
 Symbolic Z-matrix:
 Charge =  0 Multiplicity = 1

 SCF Done:  E(RB3LYP) =  -658.185479743     A.U. after   15 cycles
 SCF Done:  E(RB3LYP) =  -658.189417656     A.U. after   13 cycles
 SCF Done:  E(RB3LYP) =  -658.189678332     A.U. after   12 cycles
 SCF Done:  E(RB3LYP) =  -658.190304103     A.U. after   12 cycles
 SCF Done:  E(RB3LYP) =  -658.190472742     A.U. after   12 cycles
 SCF Done:  E(RB3LYP) =  -658.190618310     A.U. after   12 cycles
 SCF Done:  E(RB3LYP) =  -658.190698018     A.U. after   11 cycles
 SCF Done:  E(RB3LYP) =  -658.190776122     A.U. after   12 cycles
 SCF Done:  E(RB3LYP) =  -658.190834260     A.U. after   12 cycles
 SCF Done:  E(RB3LYP) =  -658.190885436     A.U. after   12 cycles
 SCF Done:  E(RB3LYP) =  -658.192124006     A.U. after   10 cycles
 SCF Done:  E(RB3LYP) =  -658.192125134     A.U. after   10 cycles
 SCF Done:  E(RB3LYP) =  -658.192126829     A.U. after   10 cycles
 SCF Done:  E(RB3LYP) =  -658.192127743     A.U. after   10 cycles
 SCF Done:  E(RB3LYP) =  -658.192127875     A.U. after    8 cycles
 Optimization completed.
    -- Stationary point found.
 Normal termination of Gaussian 16 at Wed Dec  9 23:20:05 2020.

 --------------------------------------------------------------------
 #N Geom=AllCheck Guess=TCheck SCRF=Check GenChk RB3LYP/6-31G(d) Freq
 --------------------------------------------------------------------

 Structure from the checkpoint file:  "JID_3435.chk"
 -------------------------------
 CID_104104508_JID_3435_neutraal
 -------------------------------
 Charge =  0 Multiplicity = 1

 SCF Done:  E(RB3LYP) =  -658.192127875     A.U. after    1 cycles

  Exact polarizability: 128.459   1.203  94.685  -1.577  -3.361  64.203
 Approx polarizability: 172.481   2.440 167.107  -8.156  -7.015 104.507

                      1                      2                      3
                      A                      A                      A
 Frequencies --     23.1253                52.4124                82.0382
 Red. masses --      7.3534                 4.7000                 6.0583
 Frc consts  --      0.0023                 0.0076                 0.0240
 IR Inten    --      4.7147                 3.9384                 2.8569

                      4                      5                      6
                      A                      A                      A
 Frequencies --    137.7629               199.1764               238.1668
 Red. masses --      4.3715                 4.0736                 6.8764
 Frc consts  --      0.0489                 0.0952                 0.2298
 IR Inten    --      1.9322                 3.6518                 5.5747

                      7                      8                      9
                      A                      A                      A
 Frequencies --    271.9972               336.7074               376.3087
 Red. masses --      2.1637                 4.7641                 3.9200
 Frc consts  --      0.0943                 0.3182                 0.3271
 IR Inten    --      1.7601                 1.8478                 8.1041

                     10                     11                     12
                      A                      A                      A
 Frequencies --    413.2113               466.0976               480.8805
 Red. masses --      4.9264                 3.9760                 3.2086
 Frc consts  --      0.4956                 0.5089                 0.4372
 IR Inten    --      1.8791                 2.5458                 1.2866

                     13                     14                     15
                      A                      A                      A
 Frequencies --    507.5892               604.6396               605.9468
 Red. masses --      4.0327                 2.0676                 1.9529
 Frc consts  --      0.6122                 0.4454                 0.4225
 IR Inten    --      1.1244                 1.0863                45.2054

                     16                     17                     18
                      A                      A                      A
 Frequencies --    674.3348               690.4536               738.9307
 Red. masses --      4.5353                 7.5711                 2.3922
 Frc consts  --      1.2151                 2.1266                 0.7696
 IR Inten    --     11.0672                30.7222                38.5809

                     19                     20                     21
                      A                      A                      A
 Frequencies --    803.6766               844.1845               854.7964
 Red. masses --     11.5642                 2.6185                 1.7654
 Frc consts  --      4.4008                 1.0994                 0.7600
 IR Inten    --      1.4331                 0.9226                 2.3361

                     22                     23                     24
                      A                      A                      A
 Frequencies --    897.0102               925.5509               936.4935
 Red. masses --      3.4352                 1.7037                 2.8588
 Frc consts  --      1.6285                 0.8599                 1.4772
 IR Inten    --     20.7981                22.7260                30.5443

                     25                     26                     27
                      A                      A                      A
 Frequencies --    999.3594              1045.2479              1046.2621
 Red. masses --      2.5480                 5.8669                 2.8496
 Frc consts  --      1.4993                 3.7766                 1.8379
 IR Inten    --     91.4078                43.3581                14.6427

                     28                     29                     30
                      A                      A                      A
 Frequencies --   1067.9930              1073.7698              1115.2927
 Red. masses --      4.1950                 2.1510                 5.2122
 Frc consts  --      2.8192                 1.4612                 3.8199
 IR Inten    --      6.7270                 9.3728                 4.4209

                     31                     32                     33
                      A                      A                      A
 Frequencies --   1155.0409              1168.7077              1211.0702
 Red. masses --      2.0929                 3.8620                 2.4270
 Frc consts  --      1.6451                 3.1080                 2.0973
 IR Inten    --     18.5268                 8.1367                55.1543

                     34                     35                     36
                      A                      A                      A
 Frequencies --   1218.1216              1242.3721              1273.8219
 Red. masses --      3.1392                 1.4771                 3.3297
 Frc consts  --      2.7444                 1.3433                 3.1833
 IR Inten    --     16.6245                 3.6964                 5.6360

                     37                     38                     39
                      A                      A                      A
 Frequencies --   1294.2368              1307.8422              1333.6925
 Red. masses --      1.9777                 1.1794                 4.7135
 Frc consts  --      1.9519                 1.1886                 4.9398
 IR Inten    --     32.2508                 2.8788                24.7407

                     40                     41                     42
                      A                      A                      A
 Frequencies --   1374.0594              1392.9622              1404.5576
 Red. masses --      1.3368                 1.7658                 1.4308
 Frc consts  --      1.4871                 2.0187                 1.6631
 IR Inten    --      0.5834                 9.1420                 2.1947

                     43                     44                     45
                      A                      A                      A
 Frequencies --   1409.2985              1415.4358              1477.4703
 Red. masses --      1.3931                 1.6831                 2.8022
 Frc consts  --      1.6302                 1.9867                 3.6040
 IR Inten    --      2.7673                48.1264                40.0676

                     46                     47                     48
                      A                      A                      A
 Frequencies --   1503.6870              1509.4776              1515.8992
 Red. masses --      1.1127                 1.0920                 1.1218
 Frc consts  --      1.4823                 1.4660                 1.5189
 IR Inten    --      2.3360                 9.6023                 7.5473

                     49                     50                     51
                      A                      A                      A
 Frequencies --   1528.5334              1532.5177              1774.9351
 Red. masses --      1.1028                 3.5776                12.7266
 Frc consts  --      1.5181                 4.9505                23.6226
 IR Inten    --      2.7501                12.8192               261.9262

                     52                     53                     54
                      A                      A                      A
 Frequencies --   3048.7379              3052.8543              3061.9618
 Red. masses --      1.0620                 1.0627                 1.0656
 Frc consts  --      5.8158                 5.8357                 5.8865
 IR Inten    --     27.1315                16.6688                16.7286

                     55                     56                     57
                      A                      A                      A
 Frequencies --   3077.1585              3091.7275              3104.3157
 Red. masses --      1.0732                 1.0985                 1.1017
 Frc consts  --      5.9876                 6.1865                 6.2554
 IR Inten    --     19.0854                25.5211                63.0385

                     58                     59                     60
                      A                      A                      A
 Frequencies --   3135.7787              3188.9163              3640.6611
 Red. masses --      1.1038                 1.0949                 1.0835
 Frc consts  --      6.3949                 6.5604                 8.4614
 IR Inten    --     29.6998                 0.5784               126.4764

 - Thermochemistry -
 -------------------
 Temperature   298.150 Kelvin.  Pressure   1.00000 Atm.
 Atom     1 has atomic number  6 and mass  12.00000

 Molecular mass:   183.07562 amu.
 Principal axes and moments of inertia in atomic units:
                           1         2         3
     Eigenvalues --   995.083183324.327763992.26887
           X            0.99982   0.01716   0.00846
           Y           -0.01706   0.99978  -0.01229
           Z           -0.00867   0.01215   0.99989
 This molecule is an asymmetric top.
 Rotational symmetry number  1.
 Warning -- assumption of classical behavior for rotation
           may cause significant error
 Rotational temperatures (Kelvin)      0.08704     0.02605     0.02170
 Rotational constants (GHZ):           1.81366     0.54289     0.45206
 Zero-point vibrational energy     454313.4 (Joules/Mol)
                                  108.58351 (Kcal/Mol)
 Warning -- explicit consideration of  15 degrees of freedom as
           vibrations may cause significant error
 Vibrational temperatures:     33.27    75.41   118.03   198.21   286.57
          (Kelvin)            342.67   391.34   484.45   541.42   594.52
                              670.61   691.88   730.31   869.94   871.82
                              970.22   993.41  1063.16  1156.31  1214.59
                             1229.86  1290.60  1331.66  1347.41  1437.86
                             1503.88  1505.34  1536.60  1544.92  1604.66
                             1661.85  1681.51  1742.46  1752.61  1787.50
                             1832.75  1862.12  1881.69  1918.89  1976.96
                             2004.16  2020.85  2027.67  2036.50  2125.75
                             2163.47  2171.80  2181.04  2199.22  2204.95
                             2553.74  4386.45  4392.38  4405.48  4427.34
                             4448.31  4466.42  4511.69  4588.14  5238.10

 Zero-point correction=                           0.173039 (Hartree/Particle)
 Thermal correction to Energy=                    0.183649
 Thermal correction to Enthalpy=                  0.184593
 Thermal correction to Gibbs Free Energy=         0.134837
 Sum of electronic and zero-point Energies=           -658.019089
 Sum of electronic and thermal Energies=              -658.008479
 Sum of electronic and thermal Enthalpies=            -658.007535
 Sum of electronic and thermal Free Energies=         -658.057291

                     E (Thermal)             CV                S
                      KCal/Mol        Cal/Mol-Kelvin    Cal/Mol-Kelvin
 Total                  115.241             39.831            104.720
 Electronic               0.000              0.000              0.000
 Translational            0.889              2.981             41.521
 Rotational               0.889              2.981             30.958
 Vibrational            113.464             33.869             32.241
 Vibration     1          0.593              1.985              6.346
 Vibration     2          0.596              1.977              4.724
 Vibration     3          0.600              1.961              3.842
 Vibration     4          0.614              1.916              2.835
 Vibration     5          0.637              1.841              2.141
 Vibration     6          0.656              1.782              1.817
 Vibration     7          0.675              1.725              1.583
 Vibration     8          0.717              1.602              1.228
 Vibration     9          0.747              1.521              1.054
 Vibration    10          0.777              1.442              0.915
 Vibration    11          0.823              1.325              0.749
 Vibration    12          0.837              1.292              0.708
 Vibration    13          0.863              1.233              0.639
 Vibration    14          0.963              1.022              0.442
 Vibration    15          0.965              1.019              0.440

                           ! Non-Optimized Parameters !
 Normal termination of Gaussian 16 at Wed Dec  9 23:25:28 2020.

 ----------------------------------------------------------------------
 # B3LYP/6-311++G(d,p) empiricaldispersion=gd3bj scf=xqc pop=npa geom=c
 heck
 ----------------------------------------------------------------------

 ---------------------------------------
 CID_104104508_JID_3435_Energie_neutraal
 ---------------------------------------
 Structure from the checkpoint file:  "JID_3435.chk"
 Charge =  0 Multiplicity = 1

 SCF Done:  E(RB3LYP) =  -658.375646662     A.U. after   15 cycles
 Normal termination of Gaussian 16 at Wed Dec  9 23:27:45 2020.

 ----------------------------------------------------------------------
 # B3LYP/6-311++G(d,p) empiricaldispersion=gd3bj scf=xqc pop=npa geom=c
 heck
 ----------------------------------------------------------------------

 -------------------------------------
 CID_104104508_JID_3435_Energie_kation
 -------------------------------------
 Structure from the checkpoint file:  "JID_3435.chk"
 Charge =  1 Multiplicity = 2

 SCF Done:  E(UB3LYP) =  -658.043420954     A.U. after   25 cycles
 Normal termination of Gaussian 16 at Wed Dec  9 23:33:05 2020.
 Gaussian 16:  ES64L-G16RevA.03 25-Dec-2016

 ----------------------------------------------------------------------
 # B3LYP/6-311++G(d,p) empiricaldispersion=gd3bj scf=xqc pop=npa geom=c
 heck
 ----------------------------------------------------------------------

 ------------------------------------
 CID_104104508_JID_3435_Energie_anion
 ------------------------------------
 Structure from the checkpoint file:  "JID_3435.chk"
 Charge = -1 Multiplicity = 2

                         Standard orientation:
 ---------------------------------------------------------------------
 Center     Atomic      Atomic             Coordinates (Angstroms)
 Number     Number       Type             X           Y           Z
 ---------------------------------------------------------------------
      1          6           0       -1.858392   -1.646795   -0.274700
      2          6           0       -3.108506   -0.789993   -0.526458
      3          6           0       -2.743569    0.693112   -0.558671
      4          8           0       -2.032628    1.057625    0.645372
      5          7           0       -0.827519    0.345741    0.700390
      6          6           0       -1.064896   -1.081548    0.910440
      7          6           0        0.222353    0.976803    0.073593
      8          8           0        0.160172    2.106857   -0.379954
      9          6           0        1.526885    0.231478    0.022417
     10          7           0        2.685242    0.892987    0.072199
     11          7           0        3.546489   -0.096332   -0.098166
     12          7           0        3.005079   -1.300968   -0.258371
     13          7           0        1.712760   -1.103522   -0.182390
     14          1           0       -2.133084   -2.688813   -0.074833
     15          1           0       -1.206663   -1.643991   -1.157575
     16          1           0       -3.595079   -1.073133   -1.467566
     17          1           0       -3.834402   -0.954207    0.280174
     18          1           0       -2.123959    0.948207   -1.426979
     19          1           0       -3.626517    1.337110   -0.554186
     20          1           0       -1.636067   -1.165413    1.841196
     21          1           0       -0.110356   -1.589480    1.030487
     22          1           0        4.548169    0.050184   -0.109414
 ---------------------------------------------------------------------

 SCF Done:  E(UB3LYP) =  -658.372339553     A.U. after   33 cycles
 SCF Done:  E(UB3LYP) =  -658.372339553     a.u. after    1 cycles

 The electronic state is 2-A.
 Alpha  occ. eigenvalues --  -19.04802 -18.95851 -14.28427 -14.26350 -14.24481
 Alpha  occ. eigenvalues --  -14.21734 -14.20386 -10.14782 -10.10827 -10.09717
 Alpha  occ. eigenvalues --  -10.09311 -10.06338 -10.06298  -1.01201  -0.98770
 Alpha  occ. eigenvalues --   -0.90062  -0.81585  -0.76603  -0.74378  -0.69543
 Alpha  occ. eigenvalues --   -0.60799  -0.55806  -0.54666  -0.53580  -0.49615
 Alpha  occ. eigenvalues --   -0.45055  -0.42826  -0.39853  -0.37206  -0.36645
 Alpha  occ. eigenvalues --   -0.35800  -0.35280  -0.32567  -0.31009  -0.29973
 Alpha  occ. eigenvalues --   -0.28352  -0.26731  -0.25849  -0.24590  -0.23857
 Alpha  occ. eigenvalues --   -0.22311  -0.20064  -0.18460  -0.17435  -0.17005
 Alpha  occ. eigenvalues --   -0.16449  -0.13672  -0.12509   0.05105
 Alpha virt. eigenvalues --    0.06816   0.08275   0.08622   0.09352   0.10249
 Alpha virt. eigenvalues --    0.10920   0.11552   0.12682   0.13709   0.14166
 Alpha virt. eigenvalues --    0.15152   0.16731   0.17545   0.17790   0.18523

  Beta  occ. eigenvalues --  -19.04800 -18.95735 -14.28018 -14.26329 -14.24211
  Beta  occ. eigenvalues --  -14.21817 -14.19800 -10.14672 -10.10812 -10.09715
  Beta  occ. eigenvalues --  -10.09304 -10.06329 -10.06266  -1.00682  -0.98726
  Beta  occ. eigenvalues --   -0.89852  -0.81018  -0.76452  -0.73888  -0.69504
  Beta  occ. eigenvalues --   -0.60653  -0.55523  -0.54449  -0.53388  -0.49505
  Beta  occ. eigenvalues --   -0.44796  -0.42711  -0.39743  -0.36779  -0.36009
  Beta  occ. eigenvalues --   -0.35366  -0.34959  -0.32535  -0.30816  -0.29771
  Beta  occ. eigenvalues --   -0.28282  -0.26522  -0.25491  -0.24252  -0.23808
  Beta  occ. eigenvalues --   -0.22234  -0.18665  -0.17806  -0.17081  -0.16588
  Beta  occ. eigenvalues --   -0.15503  -0.13310  -0.12209
  Beta virt. eigenvalues --    0.07729   0.08303   0.09230   0.09837   0.10933
  Beta virt. eigenvalues --    0.11157   0.11550   0.11983   0.12875   0.13729
  Beta virt. eigenvalues --    0.14202   0.15144   0.16788   0.17555   0.17858

 Mulliken charges and spin densities:
               1          2
     1  C   -0.594405   0.370295
     2  C    0.993998  -1.407669
     3  C   -0.066940  -0.139102
     4  O    0.085653   0.029529
     5  N   -0.254793  -0.007806
     6  C   -0.026455  -0.251186
     7  C    0.088258   0.010077
     8  O   -0.327431   0.040427
     9  C   -0.235208   0.031423
    10  N   -0.125715   0.262561
    11  N   -0.147138   0.140372
    12  N    0.225944   0.114049
    13  N   -0.435430  -0.039187
    14  H   -0.246953   0.401248
    15  H    0.204422  -0.050368
    16  H   -0.567750   0.711192
    17  H   -0.066636   0.227347
    18  H    0.202710  -0.035690
    19  H   -0.163529   0.342619
    20  H   -0.063032   0.244241
    21  H    0.211291   0.012945
    22  H    0.309140  -0.007318
 Sum of Mulliken charges =  -1.00000   1.00000

 Dipole moment (field-independent basis, Debye):
    X=              3.6146    Y=             -0.7294    Z=              0.8736  Tot=              3.7896
 Quadrupole moment (field-independent basis, Debye-Ang):
   XX=           -119.3260   YY=           -112.1376   ZZ=            -90.0803
   XY=             -4.7675   XZ=             -1.2976   YZ=             -1.8863

 Summary of Natural Population Analysis:

                                       Natural Population
                Natural  -----------------------------------------------
    Atom  No    Charge         Core      Valence    Rydberg      Total
 -----------------------------------------------------------------------
      C    1   -0.19846      0.99962     2.18950    0.00934     3.19846
      C    2   -0.20610      0.99963     2.19708    0.00939     3.20610
      C    3   -0.01670      0.99959     2.00328    0.01384     3.01670
      O    4   -0.20989      0.99990     3.20057    0.00942     4.20989
      N    5   -0.09379      0.99963     2.58058    0.01357     3.59379
      C    6   -0.09690      0.99960     2.08536    0.01194     3.09690
      C    7    0.32678      0.99960     1.65239    0.02123     2.67322
      O    8   -0.29495      0.99988     3.28919    0.00588     4.29495
      C    9    0.09686      0.99963     1.88503    0.01847     2.90314
      N   10   -0.05417      0.99970     2.54154    0.01293     3.55417
      N   11   -0.03319      0.99975     2.51683    0.01660     3.53319
      N   12   -0.02110      0.99980     2.50252    0.01878     3.52110
      N   13   -0.18117      0.99972     2.66758    0.01387     3.68117
      H   14    0.10042      0.00000     0.39830    0.00129     0.39958
      H   15    0.10018      0.00000     0.39798    0.00184     0.39982
      H   16    0.10194      0.00000     0.39645    0.00161     0.39806
      H   17    0.09728      0.00000     0.40038    0.00234     0.40272
      H   18    0.08846      0.00000     0.41033    0.00122     0.41154
      H   19    0.09246      0.00000     0.40638    0.00116     0.40754
      H   20    0.09399      0.00000     0.40478    0.00123     0.40601
      H   21    0.11952      0.00000     0.37841    0.00207     0.38048
      H   22    0.18854      0.00000     0.30996    0.00150     0.31146
 =======================================================================
   * Total *    0.00000     12.99606    34.81442    0.18952    48.00000

 Normal termination of Gaussian 16 at Wed Dec  9 23:40:05 2020.
