 Gaussian 16, Revision A.03,

 -----------------------------------------------------------
 # opt freq B3LYP/6-31G(d) empiricaldispersion=gd3bj scf=xqc
 -----------------------------------------------------------

 -------------------------------
 CID_144987080_JID_5702_neutraal
 -------------------------------
 Symbolic Z-matrix:
 Charge =  0 Multiplicity = 1

 SCF Done:  E(RB3LYP) =  -976.071158549     A.U. after   15 cycles
 SCF Done:  E(RB3LYP) =  -976.074023944     A.U. after   12 cycles
 SCF Done:  E(RB3LYP) =  -976.074472910     A.U. after   12 cycles
 SCF Done:  E(RB3LYP) =  -976.074578284     A.U. after   11 cycles
 SCF Done:  E(RB3LYP) =  -976.074599441     A.U. after   10 cycles
 SCF Done:  E(RB3LYP) =  -976.074606480     A.U. after    9 cycles
 SCF Done:  E(RB3LYP) =  -976.074607406     A.U. after    8 cycles
 SCF Done:  E(RB3LYP) =  -976.074607792     A.U. after    8 cycles
 SCF Done:  E(RB3LYP) =  -976.074607941     A.U. after    7 cycles
 SCF Done:  E(RB3LYP) =  -976.074608012     A.U. after    7 cycles
 SCF Done:  E(RB3LYP) =  -976.074608035     A.U. after    7 cycles
 Optimization completed.
    -- Stationary point found.
 Normal termination of Gaussian 16 at Thu Dec 10 16:37:38 2020.

 --------------------------------------------------------------------
 #N Geom=AllCheck Guess=TCheck SCRF=Check GenChk RB3LYP/6-31G(d) Freq
 --------------------------------------------------------------------

 Structure from the checkpoint file:  "JID_5702.chk"
 -------------------------------
 CID_144987080_JID_5702_neutraal
 -------------------------------
 Charge =  0 Multiplicity = 1

 SCF Done:  E(RB3LYP) =  -976.074608035     A.U. after    1 cycles

  Exact polarizability: 242.491  -6.104 147.139   3.434   4.223  76.209
 Approx polarizability: 328.446 -15.145 267.969   5.796   9.162 122.217

                      1                      2                      3
                      A                      A                      A
 Frequencies --     50.5763                58.2419                96.3995
 Red. masses --      3.9252                 5.0050                 6.1548
 Frc consts  --      0.0059                 0.0100                 0.0337
 IR Inten    --      0.1614                 1.6907                 0.2022

                      4                      5                      6
                      A                      A                      A
 Frequencies --    105.7968               159.7069               257.7422
 Red. masses --      2.8768                 3.9706                 4.8528
 Frc consts  --      0.0190                 0.0597                 0.1899
 IR Inten    --      1.1534                 0.2154                 0.5458

                      7                      8                      9
                      A                      A                      A
 Frequencies --    268.4346               299.2274               312.5418
 Red. masses --      6.5785                 4.2980                 2.4961
 Frc consts  --      0.2793                 0.2267                 0.1437
 IR Inten    --      0.9217                 1.4738                 1.4285

                     10                     11                     12
                      A                      A                      A
 Frequencies --    357.5018               435.4472               465.5281
 Red. masses --      3.1018                 4.1729                 4.7302
 Frc consts  --      0.2336                 0.4662                 0.6040
 IR Inten    --      2.9748                 1.2151                 1.0573

                     13                     14                     15
                      A                      A                      A
 Frequencies --    470.0548               483.1117               495.4942
 Red. masses --      3.2108                 5.0802                 2.9929
 Frc consts  --      0.4180                 0.6986                 0.4329
 IR Inten    --      2.2807                 1.0652                 0.6082

                     16                     17                     18
                      A                      A                      A
 Frequencies --    592.6803               609.7496               638.9484
 Red. masses --      6.4914                 4.8905                 4.5918
 Frc consts  --      1.3435                 1.0713                 1.1045
 IR Inten    --      2.2673                 6.6450                 2.7651

                     19                     20                     21
                      A                      A                      A
 Frequencies --    670.0483               674.1859               684.5823
 Red. masses --      3.2527                 1.9950                 1.5246
 Frc consts  --      0.8604                 0.5343                 0.4210
 IR Inten    --      0.7166                 6.0922                 0.4874

                     22                     23                     24
                      A                      A                      A
 Frequencies --    722.6068               754.3886               793.5655
 Red. masses --      3.3411                 4.2516                 1.4101
 Frc consts  --      1.0279                 1.4256                 0.5232
 IR Inten    --      3.2426                 7.2248                74.6613

                     25                     26                     27
                      A                      A                      A
 Frequencies --    801.1959               826.6577               856.6343
 Red. masses --      5.8358                 1.4720                 4.7655
 Frc consts  --      2.2071                 0.5927                 2.0604
 IR Inten    --      6.8372                 5.6685                35.7702

                     28                     29                     30
                      A                      A                      A
 Frequencies --    876.3460               889.9561               892.3927
 Red. masses --      2.8149                 1.6510                 1.5829
 Frc consts  --      1.2737                 0.7704                 0.7427
 IR Inten    --     12.5112                12.8350                 0.3048

                     31                     32                     33
                      A                      A                      A
 Frequencies --    897.2064               899.3436               945.8753
 Red. masses --      1.4796                 2.1715                 1.3108
 Frc consts  --      0.7017                 1.0348                 0.6910
 IR Inten    --      7.8248                 9.0796                 0.7963

                     34                     35                     36
                      A                      A                      A
 Frequencies --    948.6052               960.2544              1032.0484
 Red. masses --      3.4299                 2.4511                 2.0193
 Frc consts  --      1.8185                 1.3316                 1.2672
 IR Inten    --     12.1984                 0.4813                13.7404

                     37                     38                     39
                      A                      A                      A
 Frequencies --   1077.0394              1095.7886              1114.0308
 Red. masses --      2.0926                 2.8506                 1.6989
 Frc consts  --      1.4302                 2.0167                 1.2423
 IR Inten    --      4.8878                48.6837                 1.0790

                     40                     41                     42
                      A                      A                      A
 Frequencies --   1122.7016              1169.0762              1209.7819
 Red. masses --      1.1138                 1.6312                 1.7299
 Frc consts  --      0.8272                 1.3136                 1.4917
 IR Inten    --      6.0211                37.5312                35.9843

                     43                     44                     45
                      A                      A                      A
 Frequencies --   1220.0102              1233.6175              1248.3839
 Red. masses --      1.4050                 1.4120                 1.7301
 Frc consts  --      1.2321                 1.2660                 1.5886
 IR Inten    --      2.2838                 4.2273                 3.1778

                     46                     47                     48
                      A                      A                      A
 Frequencies --   1261.5525              1291.9494              1307.6648
 Red. masses --      1.8615                 1.6100                 2.2276
 Frc consts  --      1.7455                 1.5833                 2.2443
 IR Inten    --    100.7199                 6.5819                32.5408

                     49                     50                     51
                      A                      A                      A
 Frequencies --   1320.1910              1351.5036              1383.5185
 Red. masses --      1.2082                 2.7904                 1.9981
 Frc consts  --      1.2406                 3.0029                 2.2534
 IR Inten    --     23.5107                41.1764                30.7206

                     52                     53                     54
                      A                      A                      A
 Frequencies --   1392.9343              1403.1957              1431.3348
 Red. masses --      1.4605                 3.1265                 1.4162
 Frc consts  --      1.6696                 3.6270                 1.7094
 IR Inten    --      2.0938                 3.5770                20.9135

                     55                     56                     57
                      A                      A                      A
 Frequencies --   1473.8008              1481.5659              1507.0287
 Red. masses --      5.4858                 3.3961                 1.1125
 Frc consts  --      7.0204                 4.3920                 1.4886
 IR Inten    --      6.8609                75.3092                 2.9982

                     58                     59                     60
                      A                      A                      A
 Frequencies --   1517.1834              1538.5244              1553.3406
 Red. masses --      1.1335                 1.1265                 2.9828
 Frc consts  --      1.5372                 1.5710                 4.2405
 IR Inten    --      2.2310                 1.1877                42.0251

                     61                     62                     63
                      A                      A                      A
 Frequencies --   1596.0235              1625.0096              1677.8682
 Red. masses --      5.6445                 6.8273                 6.5706
 Frc consts  --      8.4714                10.6222                10.8986
 IR Inten    --     25.2345                43.8870                50.7421

                     64                     65                     66
                      A                      A                      A
 Frequencies --   3016.1615              3022.7286              3057.6233
 Red. masses --      1.0709                 1.0697                 1.0625
 Frc consts  --      5.7398                 5.7586                 5.8526
 IR Inten    --     36.9850                58.2838                20.4169

                     67                     68                     69
                      A                      A                      A
 Frequencies --   3077.6802              3104.2031              3124.0680
 Red. masses --      1.0911                 1.1047                 1.0956
 Frc consts  --      6.0890                 6.2717                 6.3000
 IR Inten    --     35.1738                48.4447                44.8816

                     70                     71                     72
                      A                      A                      A
 Frequencies --   3173.0013              3207.9028              3214.4277
 Red. masses --      1.0884                 1.0924                 1.0904
 Frc consts  --      6.4562                 6.6233                 6.6380
 IR Inten    --     19.8375                12.6572                 2.6622

                     73                     74                     75
                      A                      A                      A
 Frequencies --   3227.7506              3272.3324              3273.5618
 Red. masses --      1.0903                 1.0932                 1.0972
 Frc consts  --      6.6923                 6.8970                 6.9273
 IR Inten    --      4.2123                 1.1139                 1.5251

 - Thermochemistry -
 -------------------
 Temperature   298.150 Kelvin.  Pressure   1.00000 Atm.
 Atom     1 has atomic number  6 and mass  12.00000

 Molecular mass:   216.06089 amu.
 Principal axes and moments of inertia in atomic units:
                           1         2         3
     Eigenvalues --  1051.468797335.396318233.15220
           X            0.99998   0.00533   0.00201
           Y           -0.00534   0.99997   0.00513
           Z           -0.00198  -0.00514   0.99998
 This molecule is an asymmetric top.
 Rotational symmetry number  1.
 Warning -- assumption of classical behavior for rotation
           may cause significant error
 Rotational temperatures (Kelvin)      0.08237     0.01181     0.01052
 Rotational constants (GHZ):           1.71640     0.24603     0.21920
 Zero-point vibrational energy     572168.7 (Joules/Mol)
                                  136.75160 (Kcal/Mol)
 Warning -- explicit consideration of  17 degrees of freedom as
           vibrations may cause significant error
 Vibrational temperatures:     72.77    83.80   138.70   152.22   229.78
          (Kelvin)            370.83   386.22   430.52   449.68   514.37
                              626.51   669.79   676.30   695.09   712.91
                              852.73   877.29   919.30   964.05   970.00
                              984.96  1039.67  1085.40  1141.76  1152.74
                             1189.38  1232.51  1260.87  1280.45  1283.95
                             1290.88  1293.95  1360.90  1364.83  1381.59
                             1484.89  1549.62  1576.60  1602.84  1615.32
                             1682.04  1740.61  1755.32  1774.90  1796.15
                             1815.09  1858.83  1881.44  1899.46  1944.51
                             1990.57  2004.12  2018.89  2059.37  2120.47
                             2131.64  2168.28  2182.89  2213.59  2234.91
                             2296.32  2338.03  2414.08  4339.58  4349.03
                             4399.24  4428.10  4466.26  4494.84  4565.24
                             4615.46  4624.84  4644.01  4708.16  4709.93

 Zero-point correction=                           0.217928 (Hartree/Particle)
 Thermal correction to Energy=                    0.229918
 Thermal correction to Enthalpy=                  0.230862
 Thermal correction to Gibbs Free Energy=         0.178776
 Sum of electronic and zero-point Energies=           -975.856680
 Sum of electronic and thermal Energies=              -975.844690
 Sum of electronic and thermal Enthalpies=            -975.843746
 Sum of electronic and thermal Free Energies=         -975.895832

                     E (Thermal)             CV                S
                      KCal/Mol        Cal/Mol-Kelvin    Cal/Mol-Kelvin
 Total                  144.276             48.299            109.624
 Electronic               0.000              0.000              0.000
 Translational            0.889              2.981             42.014
 Rotational               0.889              2.981             32.518
 Vibrational            142.498             42.337             35.092
 Vibration     1          0.595              1.977              4.795
 Vibration     2          0.596              1.974              4.516
 Vibration     3          0.603              1.952              3.526
 Vibration     4          0.605              1.945              3.345
 Vibration     5          0.622              1.892              2.553
 Vibration     6          0.667              1.750              1.677
 Vibration     7          0.673              1.731              1.606
 Vibration     8          0.692              1.675              1.421
 Vibration     9          0.701              1.650              1.349
 Vibration    10          0.733              1.560              1.133
 Vibration    11          0.796              1.393              0.841
 Vibration    12          0.823              1.327              0.750
 Vibration    13          0.827              1.316              0.737
 Vibration    14          0.839              1.288              0.702
 Vibration    15          0.851              1.260              0.669
 Vibration    16          0.950              1.047              0.462
 Vibration    17          0.969              1.011              0.433

 Optimization completed.
    -- Stationary point found.
 Normal termination of Gaussian 16 at Thu Dec 10 16:46:29 2020.

 ----------------------------------------------------------------------
 # B3LYP/6-311++G(d,p) empiricaldispersion=gd3bj scf=xqc pop=npa geom=c
 heck
 ----------------------------------------------------------------------

 ---------------------------------------
 CID_144987080_JID_5702_Energie_neutraal
 ---------------------------------------
 Structure from the checkpoint file:  "JID_5702.chk"
 Charge =  0 Multiplicity = 1

 SCF Done:  E(RB3LYP) =  -976.248674899     A.U. after   16 cycles
 Normal termination of Gaussian 16 at Thu Dec 10 16:51:45 2020.

 ----------------------------------------------------------------------
 # B3LYP/6-311++G(d,p) empiricaldispersion=gd3bj scf=xqc pop=npa geom=c
 heck
 ----------------------------------------------------------------------

 -------------------------------------
 CID_144987080_JID_5702_Energie_kation
 -------------------------------------
 Structure from the checkpoint file:  "JID_5702.chk"
 Charge =  1 Multiplicity = 2

 SCF Done:  E(UB3LYP) =  -975.973697244     A.U. after   27 cycles
 Normal termination of Gaussian 16 at Thu Dec 10 17:03:06 2020.
 Gaussian 16:  ES64L-G16RevA.03 25-Dec-2016

 ----------------------------------------------------------------------
 # B3LYP/6-311++G(d,p) empiricaldispersion=gd3bj scf=xqc pop=npa geom=c
 heck
 ----------------------------------------------------------------------

 ------------------------------------
 CID_144987080_JID_5702_Energie_anion
 ------------------------------------
 Structure from the checkpoint file:  "JID_5702.chk"
 Charge = -1 Multiplicity = 2

                         Standard orientation:
 ---------------------------------------------------------------------
 Center     Atomic      Atomic             Coordinates (Angstroms)
 Number     Number       Type             X           Y           Z
 ---------------------------------------------------------------------
      1          6           0       -4.478600   -0.172998    0.441864
      2          6           0       -3.751044    1.014814   -0.195912
      3          6           0       -2.253904    0.799466   -0.159804
      4          6           0       -1.721982   -0.484237    0.046443
      5          6           0       -0.342558   -0.686796    0.118299
      6          6           0        0.549115    0.379236   -0.035685
      7          6           0        0.023743    1.665098   -0.251990
      8          6           0       -1.351554    1.857871   -0.305526
      9          6           0        2.006226    0.159232    0.019198
     10          6           0        2.633526   -1.004239   -0.360564
     11         16           0        4.353293   -0.920377   -0.172937
     12          6           0        4.247644    0.704813    0.430064
     13          6           0        2.955335    1.140350    0.473222
     14          8           0       -2.501570   -1.596081    0.228693
     15          6           0       -3.887037   -1.466994   -0.102003
     16          1           0       -5.553452   -0.138103    0.231563
     17          1           0       -4.352005   -0.157029    1.531109
     18          1           0       -4.089007    1.131922   -1.235955
     19          1           0       -4.008084    1.948983    0.317188
     20          1           0        0.017053   -1.690322    0.319801
     21          1           0        0.693939    2.506280   -0.396489
     22          1           0       -1.746325    2.859059   -0.465189
     23          1           0        2.178109   -1.892837   -0.774589
     24          1           0        5.142282    1.232699    0.730339
     25          1           0        2.669421    2.117772    0.844384
     26          1           0       -4.366010   -2.351034    0.325720
     27          1           0       -3.999498   -1.506422   -1.196073
 ---------------------------------------------------------------------

 SCF Done:  E(UB3LYP) =  -976.239307110     A.U. after   33 cycles
 SCF Done:  E(UB3LYP) =  -976.239307110     a.u. after    1 cycles

 The electronic state is 2-A.
 Alpha  occ. eigenvalues --  -88.75823 -19.03358 -10.11403 -10.11002 -10.08407
 Alpha  occ. eigenvalues --  -10.06651 -10.06537 -10.06336 -10.06312 -10.06127
 Alpha  occ. eigenvalues --  -10.05773 -10.05299 -10.05133 -10.04835 -10.04250
 Alpha  occ. eigenvalues --   -7.84463  -5.80751  -5.80388  -5.80085  -0.95104
 Alpha  occ. eigenvalues --   -0.76769  -0.73591  -0.69576  -0.65837  -0.62801
 Alpha  occ. eigenvalues --   -0.61680  -0.59869  -0.55208  -0.52151  -0.49484
 Alpha  occ. eigenvalues --   -0.45784  -0.44915  -0.42883  -0.41231  -0.38504
 Alpha  occ. eigenvalues --   -0.37925  -0.35790  -0.33098  -0.32398  -0.31783
 Alpha  occ. eigenvalues --   -0.31201  -0.29538  -0.28563  -0.28036  -0.27767
 Alpha  occ. eigenvalues --   -0.27208  -0.26599  -0.24406  -0.23679  -0.23181
 Alpha  occ. eigenvalues --   -0.22040  -0.20907  -0.19599  -0.15696  -0.13703
 Alpha  occ. eigenvalues --   -0.11297  -0.09883   0.04810
 Alpha virt. eigenvalues --    0.06646   0.07597   0.08524   0.09077   0.09094
 Alpha virt. eigenvalues --    0.09837   0.10293   0.10472   0.10943   0.11304
 Alpha virt. eigenvalues --    0.12233   0.12259   0.12558   0.12859   0.13399

  Beta  occ. eigenvalues --  -88.75790 -19.03365 -10.11382 -10.11033 -10.08333
  Beta  occ. eigenvalues --  -10.06557 -10.06378 -10.06330 -10.06284 -10.06105
  Beta  occ. eigenvalues --  -10.05660 -10.05270 -10.04985 -10.04840 -10.04172
  Beta  occ. eigenvalues --   -7.84433  -5.80738  -5.80376  -5.79971  -0.95109
  Beta  occ. eigenvalues --   -0.76578  -0.73430  -0.69471  -0.65655  -0.62675
  Beta  occ. eigenvalues --   -0.61499  -0.59636  -0.55115  -0.52013  -0.49319
  Beta  occ. eigenvalues --   -0.45671  -0.44617  -0.42794  -0.41147  -0.38425
  Beta  occ. eigenvalues --   -0.37861  -0.35714  -0.33015  -0.32319  -0.31702
  Beta  occ. eigenvalues --   -0.31119  -0.29408  -0.28322  -0.27987  -0.27653
  Beta  occ. eigenvalues --   -0.27002  -0.26253  -0.24331  -0.23527  -0.23016
  Beta  occ. eigenvalues --   -0.21916  -0.20767  -0.19510  -0.15113  -0.13058
  Beta  occ. eigenvalues --   -0.10803  -0.09154
  Beta virt. eigenvalues --    0.07458   0.07728   0.08475   0.08672   0.09214
  Beta virt. eigenvalues --    0.09717   0.09962   0.10715   0.10919   0.11118
  Beta virt. eigenvalues --    0.11503   0.12336   0.12403   0.12606   0.13088

 Mulliken charges and spin densities:
               1          2
     1  C    0.276798  -0.586567
     2  C   -0.115254  -0.441522
     3  C    0.794182   1.085173
     4  C   -0.195791  -1.205267
     5  C   -0.451579  -0.376840
     6  C    0.967918  -0.374364
     7  C   -0.795752   0.343487
     8  C   -0.537922   0.344440
     9  C   -0.185202  -0.054325
    10  C    0.809730   0.229195
    11  S   -0.617796   0.034193
    12  C   -0.178910   0.024737
    13  C   -0.451203   0.046900
    14  O   -0.153876   0.054233
    15  C    0.095881  -0.287091
    16  H   -0.975230   1.161769
    17  H    0.222602  -0.090695
    18  H   -0.228156   0.414306
    19  H    0.124112   0.005127
    20  H    0.143339  -0.006463
    21  H    0.062377   0.011016
    22  H    0.083584   0.046140
    23  H    0.226485   0.016623
    24  H    0.213275   0.009894
    25  H    0.127931   0.004472
    26  H   -0.246974   0.427258
    27  H   -0.014566   0.164170
 Sum of Mulliken charges =  -1.00000   1.00000

 Dipole moment (field-independent basis, Debye):
    X=              6.8872    Y=              1.6664    Z=              1.9692  Tot=              7.3545
 Quadrupole moment (field-independent basis, Debye-Ang):
   XX=           -196.6240   YY=           -111.9112   ZZ=           -115.4990
   XY=             -1.0572   XZ=             -7.3957   YZ=              3.2212

 Summary of Natural Population Analysis:

                                       Natural Population
                Natural  -----------------------------------------------
    Atom  No    Charge         Core      Valence    Rydberg      Total
 -----------------------------------------------------------------------
      C    1   -0.20271      0.99964     2.19446    0.00861     3.20271
      C    2   -0.19548      0.99961     2.18655    0.00932     3.19548
      C    3   -0.03132      0.99947     2.02295    0.00890     3.03132
      C    4    0.15539      0.99933     1.83134    0.01394     2.84461
      C    5   -0.10188      0.99950     2.09274    0.00964     3.10188
      C    6    0.00061      0.99941     1.99059    0.00939     2.99939
      C    7   -0.11141      0.99955     2.10422    0.00764     3.11141
      C    8   -0.09026      0.99954     2.08093    0.00979     3.09026
      C    9   -0.05252      0.99948     2.04267    0.01037     3.05252
      C   10   -0.13540      0.99949     2.12692    0.00900     3.13540
      S   11    0.19286      4.99947     2.78334    0.02434     7.80714
      C   12   -0.19399      0.99955     2.18323    0.01122     3.19399
      C   13   -0.12415      0.99950     2.11624    0.00841     3.12415
      O   14   -0.28245      0.99986     3.27378    0.00882     4.28245
      C   15   -0.00669      0.99957     1.99406    0.01306     3.00669
      H   16    0.10655      0.00000     0.38936    0.00409     0.39345
      H   17    0.09515      0.00000     0.40369    0.00116     0.40485
      H   18    0.10549      0.00000     0.39196    0.00255     0.39451
      H   19    0.09951      0.00000     0.39951    0.00098     0.40049
      H   20    0.10181      0.00000     0.39647    0.00172     0.39819
      H   21    0.09476      0.00000     0.40373    0.00151     0.40524
      H   22    0.09363      0.00000     0.40549    0.00088     0.40637
      H   23    0.10508      0.00000     0.39344    0.00148     0.39492
      H   24    0.10169      0.00000     0.39741    0.00090     0.39831
      H   25    0.10336      0.00000     0.39558    0.00106     0.39664
      H   26    0.09006      0.00000     0.40866    0.00128     0.40994
      H   27    0.08232      0.00000     0.41585    0.00183     0.41768
 =======================================================================
   * Total *    0.00000     18.99296    37.82516    0.18188    57.00000

 Normal termination of Gaussian 16 at Thu Dec 10 17:16:56 2020.
