 Gaussian 16, Revision A.03,

 -----------------------------------------------------------
 # opt freq B3LYP/6-31G(d) empiricaldispersion=gd3bj scf=xqc
 -----------------------------------------------------------

 ------------------------------
 CID_65155800_JID_4165_neutraal
 ------------------------------
 Symbolic Z-matrix:
 Charge =  0 Multiplicity = 1

 SCF Done:  E(RB3LYP) =  -630.832951891     A.U. after   14 cycles
 SCF Done:  E(RB3LYP) =  -630.835893531     A.U. after   12 cycles
 SCF Done:  E(RB3LYP) =  -630.836238050     A.U. after   11 cycles
 SCF Done:  E(RB3LYP) =  -630.836398802     A.U. after   11 cycles
 SCF Done:  E(RB3LYP) =  -630.836451104     A.U. after   11 cycles
 SCF Done:  E(RB3LYP) =  -630.836477417     A.U. after   10 cycles
 SCF Done:  E(RB3LYP) =  -630.836493908     A.U. after   10 cycles
 SCF Done:  E(RB3LYP) =  -630.836513574     A.U. after   11 cycles
 SCF Done:  E(RB3LYP) =  -630.836538721     A.U. after   12 cycles
 SCF Done:  E(RB3LYP) =  -630.836564770     A.U. after   11 cycles
 SCF Done:  E(RB3LYP) =  -630.836574296     A.U. after   11 cycles
 SCF Done:  E(RB3LYP) =  -630.836578039     A.U. after    9 cycles
 SCF Done:  E(RB3LYP) =  -630.836580207     A.U. after   10 cycles
 SCF Done:  E(RB3LYP) =  -630.836580946     A.U. after    8 cycles
 SCF Done:  E(RB3LYP) =  -630.836581072     A.U. after    7 cycles
 Optimization completed.
    -- Stationary point found.
 Normal termination of Gaussian 16 at Thu Dec 10 09:20:17 2020.

 --------------------------------------------------------------------
 #N Geom=AllCheck Guess=TCheck SCRF=Check GenChk RB3LYP/6-31G(d) Freq
 --------------------------------------------------------------------

 Structure from the checkpoint file:  "JID_4165.chk"
 ------------------------------
 CID_65155800_JID_4165_neutraal
 ------------------------------
 Charge =  0 Multiplicity = 1

 SCF Done:  E(RB3LYP) =  -630.836581072     A.U. after    1 cycles

  Exact polarizability: 151.755   1.823 106.975   1.373  -5.326 105.447
 Approx polarizability: 191.537  -0.338 146.179   1.066 -13.876 181.616

                      1                      2                      3
                      A                      A                      A
 Frequencies --     20.5496                24.3992                65.6297
 Red. masses --      2.3410                 1.2771                 3.5666
 Frc consts  --      0.0006                 0.0004                 0.0091
 IR Inten    --      0.0914                 0.0777                 3.4978

                      4                      5                      6
                      A                      A                      A
 Frequencies --     73.6633                99.3286               158.4363
 Red. masses --      3.3106                 4.2835                 3.7592
 Frc consts  --      0.0106                 0.0249                 0.0556
 IR Inten    --      0.3292                 2.6059                 1.1506

                      7                      8                      9
                      A                      A                      A
 Frequencies --    207.5948               211.6616               230.5812
 Red. masses --      2.3184                 2.2132                 1.4051
 Frc consts  --      0.0589                 0.0584                 0.0440
 IR Inten    --      2.3196                 3.1989                 0.9809

                     10                     11                     12
                      A                      A                      A
 Frequencies --    236.2223               246.9595               257.9521
 Red. masses --      1.1807                 1.2578                 1.8901
 Frc consts  --      0.0388                 0.0452                 0.0741
 IR Inten    --      0.2043                 0.2400                 0.1595

                     13                     14                     15
                      A                      A                      A
 Frequencies --    288.4954               344.4932               358.6092
 Red. masses --      2.3199                 2.7430                 4.2127
 Frc consts  --      0.1138                 0.1918                 0.3192
 IR Inten    --      0.8020                 0.3198                 2.3812

                     16                     17                     18
                      A                      A                      A
 Frequencies --    398.9155               453.1261               465.4087
 Red. masses --      3.6305                 3.1421                 3.3572
 Frc consts  --      0.3404                 0.3801                 0.4284
 IR Inten    --      2.5997                 1.3062                 3.6168

                     19                     20                     21
                      A                      A                      A
 Frequencies --    517.5205               562.4170               590.9764
 Red. masses --      1.5005                 3.6664                 3.0651
 Frc consts  --      0.2368                 0.6833                 0.6307
 IR Inten    --     67.5639                 1.9373                 2.4318

                     22                     23                     24
                      A                      A                      A
 Frequencies --    633.9965               694.1428               716.8164
 Red. masses --      4.4220                 2.5881                 4.2553
 Frc consts  --      1.0472                 0.7347                 1.2882
 IR Inten    --      9.4798                12.3656                 3.4616

                     25                     26                     27
                      A                      A                      A
 Frequencies --    779.3787               801.1424               836.8265
 Red. masses --      5.9053                 2.9661                 2.2523
 Frc consts  --      2.1134                 1.1217                 0.9293
 IR Inten    --      4.1748                 1.8107                 9.8038

                     28                     29                     30
                      A                      A                      A
 Frequencies --    860.0507               913.9565               951.2927
 Red. masses --      3.3543                 2.2876                 2.1654
 Frc consts  --      1.4619                 1.1258                 1.1545
 IR Inten    --      8.4060                10.5924                11.3307

                     31                     32                     33
                      A                      A                      A
 Frequencies --    965.8973               997.9035              1003.8397
 Red. masses --      1.9930                 1.2593                 1.5216
 Frc consts  --      1.0955                 0.7388                 0.9034
 IR Inten    --     16.8718                 3.8075                 1.0116

                     34                     35                     36
                      A                      A                      A
 Frequencies --   1025.9948              1057.3756              1075.9175
 Red. masses --      4.5909                 1.7025                 1.5912
 Frc consts  --      2.8474                 1.1215                 1.0852
 IR Inten    --      2.0529                28.7115                 6.5540

                     37                     38                     39
                      A                      A                      A
 Frequencies --   1081.3492              1090.7895              1109.2771
 Red. masses --      3.3962                 2.1497                 2.3243
 Frc consts  --      2.3398                 1.5070                 1.6851
 IR Inten    --      8.8492                 5.7071                26.3294

                     40                     41                     42
                      A                      A                      A
 Frequencies --   1125.8604              1142.3320              1167.5567
 Red. masses --      2.4184                 2.3040                 3.0286
 Frc consts  --      1.8061                 1.7714                 2.4325
 IR Inten    --     28.1824                21.4601                69.5635

                     43                     44                     45
                      A                      A                      A
 Frequencies --   1175.2436              1192.7383              1205.3345
 Red. masses --      2.5194                 2.4574                 2.3535
 Frc consts  --      2.0503                 2.0597                 2.0146
 IR Inten    --      5.3594                13.1872                 1.9850

                     46                     47                     48
                      A                      A                      A
 Frequencies --   1256.4886              1267.3259              1317.6288
 Red. masses --      2.2894                 1.6363                 1.4096
 Frc consts  --      2.1295                 1.5484                 1.4419
 IR Inten    --     21.6471                14.2791                 7.1629

                     49                     50                     51
                      A                      A                      A
 Frequencies --   1333.5272              1359.8537              1366.9988
 Red. masses --      1.5367                 1.3968                 1.3451
 Frc consts  --      1.6101                 1.5218                 1.4810
 IR Inten    --      4.5057                44.8461                13.0841

                     52                     53                     54
                      A                      A                      A
 Frequencies --   1391.7681              1408.8240              1422.3315
 Red. masses --      1.4068                 1.3058                 1.5521
 Frc consts  --      1.6055                 1.5270                 1.8500
 IR Inten    --     20.6380                 3.7845                 4.8031

                     55                     56                     57
                      A                      A                      A
 Frequencies --   1424.9678              1434.3142              1439.2035
 Red. masses --      1.6759                 1.3306                 1.2844
 Frc consts  --      2.0050                 1.6128                 1.5674
 IR Inten    --      8.0835                10.7381                 9.6574

                     58                     59                     60
                      A                      A                      A
 Frequencies --   1441.1794              1446.3113              1467.8390
 Red. masses --      1.4388                 1.4665                 2.2659
 Frc consts  --      1.7607                 1.8074                 2.8764
 IR Inten    --      6.0496                 2.7816                31.6906

                     61                     62                     63
                      A                      A                      A
 Frequencies --   1510.2670              1512.1485              1515.7424
 Red. masses --      1.0605                 1.0781                 1.0558
 Frc consts  --      1.4252                 1.4525                 1.4292
 IR Inten    --      7.2675                 0.6396                 2.7888

                     64                     65                     66
                      A                      A                      A
 Frequencies --   1520.2658              1525.8647              1530.1800
 Red. masses --      1.8633                 1.0481                 1.0436
 Frc consts  --      2.5373                 1.4377                 1.4396
 IR Inten    --     18.8280                 5.4996                 1.2850

                     67                     68                     69
                      A                      A                      A
 Frequencies --   1532.5872              1536.2445              1539.6298
 Red. masses --      1.0996                 1.2604                 1.5326
 Frc consts  --      1.5217                 1.7526                 2.1404
 IR Inten    --      4.8480                 4.7073                 4.1652

                     70                     71                     72
                      A                      A                      A
 Frequencies --   1601.1416              2971.8801              3017.1077
 Red. masses --      4.5352                 1.0841                 1.0824
 Frc consts  --      6.8503                 5.6415                 5.8050
 IR Inten    --     55.4382                67.5306                16.0568

                     73                     74                     75
                      A                      A                      A
 Frequencies --   3039.1137              3047.4771              3052.8345
 Red. masses --      1.0851                 1.0364                 1.0369
 Frc consts  --      5.9047                 5.6709                 5.6935
 IR Inten    --     34.3822                25.0481                37.5773

                     76                     77                     78
                      A                      A                      A
 Frequencies --   3056.5518              3059.9660              3104.9146
 Red. masses --      1.0402                 1.0357                 1.0856
 Frc consts  --      5.7255                 5.7135                 6.1664
 IR Inten    --     19.5234                17.4791                11.3704

                     79                     80                     81
                      A                      A                      A
 Frequencies --   3110.5116              3113.4549              3116.1241
 Red. masses --      1.1020                 1.0999                 1.1019
 Frc consts  --      6.2820                 6.2818                 6.3044
 IR Inten    --     29.0120                13.2838                39.0610

                     82                     83                     84
                      A                      A                      A
 Frequencies --   3127.5981              3128.7849              3137.7054
 Red. masses --      1.1022                 1.1024                 1.1008
 Frc consts  --      6.3523                 6.3582                 6.3851
 IR Inten    --     21.6602                26.9440                24.2140

                     85                     86                     87
                      A                      A                      A
 Frequencies --   3145.0350              3161.9493              3651.5583
 Red. masses --      1.1023                 1.0998                 1.0816
 Frc consts  --      6.4239                 6.4785                 8.4970
 IR Inten    --     26.5366                 4.2303                52.8382

 - Thermochemistry -
 -------------------
 Temperature   298.150 Kelvin.  Pressure   1.00000 Atm.
 Atom     1 has atomic number  6 and mass  12.00000

 Molecular mass:   195.13716 amu.
 Principal axes and moments of inertia in atomic units:
                           1         2         3
     Eigenvalues --  1381.688203919.601014490.28579
           X            0.99989   0.01466   0.00204
           Y           -0.01466   0.99989  -0.00222
           Z           -0.00207   0.00219   1.00000
 This molecule is an asymmetric top.
 Rotational symmetry number  1.
 Warning -- assumption of classical behavior for rotation
           may cause significant error
 Rotational temperatures (Kelvin)      0.06269     0.02210     0.01929
 Rotational constants (GHZ):           1.30619     0.46044     0.40192
 Zero-point vibrational energy     709165.1 (Joules/Mol)
                                  169.49454 (Kcal/Mol)
 Warning -- explicit consideration of  21 degrees of freedom as
           vibrations may cause significant error
 Vibrational temperatures:     29.57    35.10    94.43   105.99   142.91
          (Kelvin)            227.95   298.68   304.53   331.75   339.87
                              355.32   371.14   415.08   495.65   515.96
                              573.95   651.95   669.62   744.60   809.19
                              850.28   912.18   998.72  1031.34  1121.35
                             1152.67  1204.01  1237.42  1314.98  1368.70
                             1389.71  1435.76  1444.30  1476.18  1521.33
                             1548.01  1555.82  1569.40  1596.00  1619.86
                             1643.56  1679.85  1690.91  1716.08  1734.21
                             1807.81  1823.40  1895.77  1918.65  1956.53
                             1966.81  2002.44  2026.98  2046.42  2050.21
                             2063.66  2070.69  2073.54  2080.92  2111.89
                             2172.94  2175.64  2180.82  2187.32  2195.38
                             2201.59  2205.05  2210.31  2215.18  2303.69
                             4275.87  4340.95  4372.61  4384.64  4392.35
                             4397.70  4402.61  4467.28  4475.33  4479.57
                             4483.41  4499.92  4501.62  4514.46  4525.00
                             4549.34  5253.78

 Zero-point correction=                           0.270107 (Hartree/Particle)
 Thermal correction to Energy=                    0.284610
 Thermal correction to Enthalpy=                  0.285554
 Thermal correction to Gibbs Free Energy=         0.227108
 Sum of electronic and zero-point Energies=           -630.566474
 Sum of electronic and thermal Energies=              -630.551971
 Sum of electronic and thermal Enthalpies=            -630.551027
 Sum of electronic and thermal Free Energies=         -630.609473

                     E (Thermal)             CV                S
                      KCal/Mol        Cal/Mol-Kelvin    Cal/Mol-Kelvin
 Total                  178.595             53.562            123.010
 Electronic               0.000              0.000              0.000
 Translational            0.889              2.981             41.711
 Rotational               0.889              2.981             31.564
 Vibrational            176.818             47.601             49.735
 Vibration     1          0.593              1.986              6.580
 Vibration     2          0.593              1.985              6.239
 Vibration     3          0.597              1.971              4.280
 Vibration     4          0.599              1.966              4.053
 Vibration     5          0.604              1.950              3.467
 Vibration     6          0.621              1.893              2.568
 Vibration     7          0.641              1.829              2.065
 Vibration     8          0.643              1.823              2.029
 Vibration     9          0.652              1.794              1.874
 Vibration    10          0.655              1.785              1.831
 Vibration    11          0.661              1.768              1.752
 Vibration    12          0.667              1.749              1.676
 Vibration    13          0.685              1.695              1.483
 Vibration    14          0.723              1.586              1.191
 Vibration    15          0.733              1.558              1.128
 Vibration    16          0.765              1.472              0.967
 Vibration    17          0.812              1.354              0.786
 Vibration    18          0.823              1.327              0.751
 Vibration    19          0.873              1.211              0.616
 Vibration    20          0.918              1.113              0.519
 Vibration    21          0.948              1.051              0.465

                           ! Non-Optimized Parameters !
 Normal termination of Gaussian 16 at Thu Dec 10 09:29:17 2020.

 ----------------------------------------------------------------------
 # B3LYP/6-311++G(d,p) empiricaldispersion=gd3bj scf=xqc pop=npa geom=c
 heck
 ----------------------------------------------------------------------

 --------------------------------------
 CID_65155800_JID_4165_Energie_neutraal
 --------------------------------------
 Structure from the checkpoint file:  "JID_4165.chk"
 Charge =  0 Multiplicity = 1

 SCF Done:  E(RB3LYP) =  -631.010840461     A.U. after   14 cycles
 Normal termination of Gaussian 16 at Thu Dec 10 09:32:32 2020.

 ----------------------------------------------------------------------
 # B3LYP/6-311++G(d,p) empiricaldispersion=gd3bj scf=xqc pop=npa geom=c
 heck
 ----------------------------------------------------------------------

 ------------------------------------
 CID_65155800_JID_4165_Energie_kation
 ------------------------------------
 Structure from the checkpoint file:  "JID_4165.chk"
 Charge =  1 Multiplicity = 2

 SCF Done:  E(UB3LYP) =  -630.701221505     A.U. after   25 cycles
 Normal termination of Gaussian 16 at Thu Dec 10 09:40:33 2020.
 Gaussian 16:  ES64L-G16RevA.03 25-Dec-2016

 ----------------------------------------------------------------------
 # B3LYP/6-311++G(d,p) empiricaldispersion=gd3bj scf=xqc pop=npa geom=c
 heck
 ----------------------------------------------------------------------

 -----------------------------------
 CID_65155800_JID_4165_Energie_anion
 -----------------------------------
 Structure from the checkpoint file:  "JID_4165.chk"
 Charge = -1 Multiplicity = 2

                         Standard orientation:
 ---------------------------------------------------------------------
 Center     Atomic      Atomic             Coordinates (Angstroms)
 Number     Number       Type             X           Y           Z
 ---------------------------------------------------------------------
      1          6           0       -1.165994   -2.298540   -0.709728
      2          6           0       -1.585971   -0.832183   -0.743874
      3          6           0       -2.232183   -0.318298    0.555302
      4          8           0       -2.027764    1.104746    0.561075
      5          6           0       -1.184794    1.497553   -0.525382
      6          6           0       -0.465278    0.205564   -0.988924
      7          6           0        0.818562   -0.060118   -0.265438
      8          7           0        0.893633   -0.393974    1.019657
      9          7           0        2.238087   -0.487995    1.212101
     10          6           0        2.911350   -0.213418    0.069590
     11          7           0        2.035563    0.060884   -0.886608
     12          6           0        4.398179   -0.202475   -0.051233
     13          6           0       -0.299775    2.648701   -0.079601
     14          6           0       -3.717955   -0.618397    0.682314
     15          1           0       -0.459955   -2.484910    0.104450
     16          1           0       -0.687732   -2.592511   -1.650842
     17          1           0       -2.036864   -2.947467   -0.562075
     18          1           0       -2.315061   -0.694579   -1.555480
     19          1           0       -1.691773   -0.737368    1.415087
     20          1           0       -1.817419    1.833829   -1.364086
     21          1           0       -0.209909    0.276003   -2.049717
     22          1           0        2.595049   -0.739907    2.122494
     23          1           0        4.816678    0.755482    0.280494
     24          1           0        4.858252   -0.996912    0.545949
     25          1           0        4.672215   -0.345449   -1.098346
     26          1           0        0.362512    2.963808   -0.893639
     27          1           0       -0.917418    3.501295    0.219627
     28          1           0        0.309458    2.347002    0.776674
     29          1           0       -3.894303   -1.700178    0.716256
     30          1           0       -4.121854   -0.177980    1.599406
     31          1           0       -4.267587   -0.200865   -0.169051
 ---------------------------------------------------------------------

 SCF Done:  E(UB3LYP) =  -631.000262333     A.U. after   32 cycles

 The electronic state is 2-A.
 Alpha  occ. eigenvalues --  -19.01981 -14.28147 -14.22919 -14.19572 -10.14047
 Alpha  occ. eigenvalues --  -10.12797 -10.12004 -10.11717 -10.08688 -10.08622
 Alpha  occ. eigenvalues --  -10.07226 -10.07190 -10.06692 -10.06279  -0.96751
 Alpha  occ. eigenvalues --   -0.93901  -0.78881  -0.74691  -0.70813  -0.69026
 Alpha  occ. eigenvalues --   -0.62915  -0.62445  -0.60674  -0.54372  -0.53158
 Alpha  occ. eigenvalues --   -0.51147  -0.46334  -0.45323  -0.43918  -0.40166
 Alpha  occ. eigenvalues --   -0.38547  -0.37153  -0.35460  -0.34617  -0.32867
 Alpha  occ. eigenvalues --   -0.32251  -0.31850  -0.30558  -0.30432  -0.30145
 Alpha  occ. eigenvalues --   -0.29768  -0.29216  -0.27456  -0.26836  -0.24771
 Alpha  occ. eigenvalues --   -0.24385  -0.23933  -0.21943  -0.21589  -0.18878
 Alpha  occ. eigenvalues --   -0.17591  -0.15745  -0.14889   0.04438
 Alpha virt. eigenvalues --    0.06006   0.07403   0.07896   0.08532   0.08781
 Alpha virt. eigenvalues --    0.09508   0.10218   0.10374   0.10639   0.11452
 Alpha virt. eigenvalues --    0.11781   0.11868   0.12659   0.13149   0.14128

  Beta  occ. eigenvalues --  -19.01980 -14.28079 -14.22913 -14.19563 -10.14049
  Beta  occ. eigenvalues --  -10.12794 -10.12003 -10.11717 -10.08686 -10.08618
  Beta  occ. eigenvalues --  -10.07180 -10.07153 -10.06677 -10.06271  -0.96717
  Beta  occ. eigenvalues --   -0.93898  -0.78835  -0.74657  -0.70792  -0.69007
  Beta  occ. eigenvalues --   -0.62898  -0.62349  -0.60647  -0.54339  -0.53123
  Beta  occ. eigenvalues --   -0.51078  -0.46317  -0.45295  -0.43848  -0.40128
  Beta  occ. eigenvalues --   -0.38530  -0.37127  -0.35428  -0.34589  -0.32847
  Beta  occ. eigenvalues --   -0.32209  -0.31830  -0.30510  -0.30399  -0.30106
  Beta  occ. eigenvalues --   -0.29746  -0.29173  -0.27444  -0.26820  -0.24751
  Beta  occ. eigenvalues --   -0.24371  -0.23923  -0.21922  -0.21574  -0.18854
  Beta  occ. eigenvalues --   -0.17581  -0.15737  -0.14870
  Beta virt. eigenvalues --    0.06113   0.07456   0.07712   0.07936   0.08968
  Beta virt. eigenvalues --    0.09769   0.10031   0.10239   0.10544   0.10654
  Beta virt. eigenvalues --    0.11533   0.12123   0.12363   0.12984   0.13365

 Mulliken charges and spin densities:
               1          2
     1  C    0.186562  -0.928908
     2  C   -0.340502   0.507125
     3  C   -0.676236   0.267688
     4  O   -0.057604   0.002568
     5  C   -0.342605   0.238250
     6  C    0.496256  -0.439314
     7  C   -1.141961   0.133823
     8  N   -0.137239   0.085315
     9  N    0.104815  -0.126718
    10  C   -0.723896   1.458249
    11  N   -0.064093   0.086875
    12  C    3.155786  -3.596779
    13  C   -0.297683  -0.289293
    14  C    0.118469  -0.713390
    15  H   -0.033777   0.197664
    16  H    0.036494   0.100601
    17  H   -0.047967   0.187076
    18  H    0.036779   0.127869
    19  H    0.219235   0.015596
    20  H    0.048501   0.102146
    21  H    0.159961   0.109226
    22  H   -0.610083   0.966916
    23  H   -0.537769   0.719913
    24  H   -0.749412   0.918023
    25  H   -0.162680   0.329726
    26  H    0.108995   0.018077
    27  H    0.072531   0.090953
    28  H    0.037534   0.151441
    29  H    0.019998   0.107925
    30  H    0.095623   0.054406
    31  H    0.025967   0.116950
 Sum of Mulliken charges =  -1.00000   1.00000

 Dipole moment (field-independent basis, Debye):
    X=             -9.5167    Y=              1.9637    Z=             -4.2774  Tot=             10.6170
 Quadrupole moment (field-independent basis, Debye-Ang):
   XX=           -174.4861   YY=           -120.2160   ZZ=           -121.9843
   XY=              6.8920   XZ=            -12.5451   YZ=              2.4647

 Summary of Natural Population Analysis:

                                       Natural Population
                Natural  -----------------------------------------------
    Atom  No    Charge         Core      Valence    Rydberg      Total
 -----------------------------------------------------------------------
      C    1   -0.28700      0.99964     2.28246    0.00490     3.28700
      C    2   -0.11203      0.99958     2.10080    0.01165     3.11203
      C    3    0.06396      0.99953     1.92359    0.01292     2.93604
      O    4   -0.31103      0.99988     3.30234    0.00881     4.31103
      C    5    0.07825      0.99956     1.90821    0.01399     2.92175
      C    6   -0.13529      0.99952     2.12387    0.01191     3.13529
      C    7    0.17155      0.99961     1.80563    0.02321     2.82845
      N    8   -0.17231      0.99969     2.65971    0.01291     3.67231
      N    9   -0.17461      0.99964     2.66159    0.01337     3.67461
      C   10    0.20044      0.99962     1.78384    0.01610     2.79956
      N   11   -0.27367      0.99968     2.76462    0.00937     3.77367
      C   12   -0.30768      0.99963     2.30181    0.00625     3.30768
      C   13   -0.29397      0.99964     2.28913    0.00520     3.29397
      C   14   -0.28983      0.99964     2.28503    0.00516     3.28983
      H   15    0.10947      0.00000     0.38919    0.00134     0.39053
      H   16    0.10067      0.00000     0.39843    0.00090     0.39933
      H   17    0.09762      0.00000     0.40140    0.00098     0.40238
      H   18    0.09418      0.00000     0.40417    0.00165     0.40582
      H   19    0.09220      0.00000     0.40554    0.00226     0.40780
      H   20    0.07624      0.00000     0.42250    0.00126     0.42376
      H   21    0.11422      0.00000     0.38425    0.00153     0.38578
      H   22    0.21242      0.00000     0.26890    0.01868     0.28758
      H   23    0.11299      0.00000     0.38470    0.00231     0.38701
      H   24    0.11512      0.00000     0.37948    0.00540     0.38488
      H   25    0.11279      0.00000     0.38581    0.00140     0.38721
      H   26    0.10153      0.00000     0.39750    0.00097     0.39847
      H   27    0.09963      0.00000     0.39937    0.00099     0.40037
      H   28    0.10852      0.00000     0.39009    0.00139     0.39148
      H   29    0.09830      0.00000     0.40066    0.00104     0.40170
      H   30    0.10162      0.00000     0.39731    0.00107     0.39838
      H   31    0.09570      0.00000     0.40297    0.00133     0.40430
 =======================================================================
   * Total *    0.00000     13.99486    38.80490    0.20024    53.00000

 Normal termination of Gaussian 16 at Thu Dec 10 09:50:38 2020.
