 Gaussian 16, Revision A.03,

 -----------------------------------------------------------
 # opt freq B3LYP/6-31G(d) empiricaldispersion=gd3bj scf=xqc
 -----------------------------------------------------------

 -------------------------------
 CID_103268139_JID_7236_neutraal
 -------------------------------
 Symbolic Z-matrix:
 Charge =  0 Multiplicity = 1

 SCF Done:  E(RB3LYP) =  -789.689298962     A.U. after   15 cycles
 SCF Done:  E(RB3LYP) =  -789.693994248     A.U. after   12 cycles
 SCF Done:  E(RB3LYP) =  -789.693509339     A.U. after   13 cycles
 SCF Done:  E(RB3LYP) =  -789.695429460     A.U. after   12 cycles
 SCF Done:  E(RB3LYP) =  -789.695960832     A.U. after   12 cycles
 SCF Done:  E(RB3LYP) =  -789.696231398     A.U. after   12 cycles
 SCF Done:  E(RB3LYP) =  -789.696383813     A.U. after   11 cycles
 SCF Done:  E(RB3LYP) =  -789.696580909     A.U. after   12 cycles
 SCF Done:  E(RB3LYP) =  -789.696919927     A.U. after   12 cycles
 SCF Done:  E(RB3LYP) =  -789.697682209     A.U. after   13 cycles
 SCF Done:  E(RB3LYP) =  -789.698655576     A.U. after    9 cycles
 SCF Done:  E(RB3LYP) =  -789.698660405     A.U. after   10 cycles
 SCF Done:  E(RB3LYP) =  -789.698660101     A.U. after    8 cycles
 SCF Done:  E(RB3LYP) =  -789.698660642     A.U. after    8 cycles
 SCF Done:  E(RB3LYP) =  -789.698660663     A.U. after    7 cycles
 Optimization completed.
    -- Stationary point found.
 Normal termination of Gaussian 16 at Fri Dec 11 12:17:36 2020.

 --------------------------------------------------------------------
 #N Geom=AllCheck Guess=TCheck SCRF=Check GenChk RB3LYP/6-31G(d) Freq
 --------------------------------------------------------------------

 Structure from the checkpoint file:  "JID_7236.chk"
 -------------------------------
 CID_103268139_JID_7236_neutraal
 -------------------------------
 Charge =  0 Multiplicity = 1

 SCF Done:  E(RB3LYP) =  -789.698660663     A.U. after    1 cycles

  Exact polarizability: 173.042   7.526 143.271  -9.217   4.776 135.844
 Approx polarizability: 235.172   1.187 194.719 -25.787  14.129 204.143

                      1                      2                      3
                      A                      A                      A
 Frequencies --     17.0112                28.8769                36.6028
 Red. masses --      4.3491                 4.3169                 3.8041
 Frc consts  --      0.0007                 0.0021                 0.0030
 IR Inten    --      0.1206                 0.9761                 0.1506

                      4                      5                      6
                      A                      A                      A
 Frequencies --     51.5971                77.3381                80.1111
 Red. masses --      4.2891                 3.2446                 2.7092
 Frc consts  --      0.0067                 0.0114                 0.0102
 IR Inten    --      2.4164                 1.3048                 0.3688

                      7                      8                      9
                      A                      A                      A
 Frequencies --    107.1880               120.7218               138.1152
 Red. masses --      2.3699                 2.1616                 2.1705
 Frc consts  --      0.0160                 0.0186                 0.0244
 IR Inten    --      2.1693                 0.3682                 1.2563

                     10                     11                     12
                      A                      A                      A
 Frequencies --    142.7728               162.5976               192.4181
 Red. masses --      1.5377                 2.7963                 3.4325
 Frc consts  --      0.0185                 0.0436                 0.0749
 IR Inten    --      1.8737                 4.4522                 8.9263

                     13                     14                     15
                      A                      A                      A
 Frequencies --    211.6438               226.0074               245.9333
 Red. masses --      2.0228                 1.5901                 1.8405
 Frc consts  --      0.0534                 0.0479                 0.0656
 IR Inten    --      0.3193                 0.1083                 2.3624

                     16                     17                     18
                      A                      A                      A
 Frequencies --    255.9515               259.9870               305.7166
 Red. masses --      2.3315                 2.0688                 2.5080
 Frc consts  --      0.0900                 0.0824                 0.1381
 IR Inten    --      1.8497                 0.4838                 2.0902

                     19                     20                     21
                      A                      A                      A
 Frequencies --    311.5253               357.7720               360.2236
 Red. masses --      2.3668                 2.9291                 3.3494
 Frc consts  --      0.1353                 0.2209                 0.2561
 IR Inten    --      3.1567                 3.8520                10.6327

                     22                     23                     24
                      A                      A                      A
 Frequencies --    394.2951               446.1447               474.4188
 Red. masses --      2.6049                 3.1414                 3.1780
 Frc consts  --      0.2386                 0.3684                 0.4214
 IR Inten    --      1.2413                 3.2929                 0.6167

                     25                     26                     27
                      A                      A                      A
 Frequencies --    489.4286               536.5843               587.1920
 Red. masses --      3.7340                 2.4979                 4.2427
 Frc consts  --      0.5270                 0.4237                 0.8619
 IR Inten    --      0.2614                 0.5973                 1.2764

                     28                     29                     30
                      A                      A                      A
 Frequencies --    610.4076               711.5082               756.8862
 Red. masses --      2.9709                 5.5298                 2.0892
 Frc consts  --      0.6522                 1.6494                 0.7052
 IR Inten    --      0.9302                 6.6538                17.4498

                     31                     32                     33
                      A                      A                      A
 Frequencies --    794.7581               800.2857               806.3836
 Red. masses --      3.9041                 1.4664                 3.1350
 Frc consts  --      1.4529                 0.5533                 1.2011
 IR Inten    --     24.8074                 4.7389                 4.1272

                     34                     35                     36
                      A                      A                      A
 Frequencies --    821.3766               833.4462               849.4817
 Red. masses --      1.4454                 2.9175                 1.8792
 Frc consts  --      0.5746                 1.1940                 0.7990
 IR Inten    --     12.7754                20.3763                31.8226

                     37                     38                     39
                      A                      A                      A
 Frequencies --    900.1934               925.7455               929.0393
 Red. masses --      1.5064                 2.0211                 2.6821
 Frc consts  --      0.7192                 1.0205                 1.3639
 IR Inten    --     29.0896                 5.9978                 7.5961

                     40                     41                     42
                      A                      A                      A
 Frequencies --    937.3807               940.2890               975.3449
 Red. masses --      2.3923                 2.3496                 1.9545
 Frc consts  --      1.2385                 1.2239                 1.0955
 IR Inten    --     27.4219                 7.0022                 2.0624

                     43                     44                     45
                      A                      A                      A
 Frequencies --    988.1624              1000.9708              1031.1539
 Red. masses --      2.1044                 1.9851                 3.1637
 Frc consts  --      1.2107                 1.1719                 1.9820
 IR Inten    --      1.4270                 7.0844                21.4666

                     46                     47                     48
                      A                      A                      A
 Frequencies --   1046.4720              1068.1827              1085.5352
 Red. masses --      1.9168                 2.1422                 2.5250
 Frc consts  --      1.2367                 1.4401                 1.7531
 IR Inten    --      2.9399                 9.0248                13.1643

                     49                     50                     51
                      A                      A                      A
 Frequencies --   1095.3091              1105.6299              1115.0121
 Red. masses --      2.1489                 1.7370                 2.8048
 Frc consts  --      1.5189                 1.2511                 2.0545
 IR Inten    --     50.8926                 5.3355                45.5546

                     52                     53                     54
                      A                      A                      A
 Frequencies --   1131.0227              1142.5333              1144.8906
 Red. masses --      2.2530                 3.2076                 1.9799
 Frc consts  --      1.6981                 2.4670                 1.5291
 IR Inten    --     26.8267                 5.4133                34.4383

                     55                     56                     57
                      A                      A                      A
 Frequencies --   1180.4152              1185.4608              1202.5163
 Red. masses --      2.1882                 1.2784                 2.0324
 Frc consts  --      1.7964                 1.0585                 1.7316
 IR Inten    --     65.9393                 1.7099                64.7483

                     58                     59                     60
                      A                      A                      A
 Frequencies --   1223.3694              1232.8121              1240.6958
 Red. masses --      1.5707                 1.3607                 1.2212
 Frc consts  --      1.3850                 1.2185                 1.1075
 IR Inten    --     25.3841                 2.4467                25.4285

                     61                     62                     63
                      A                      A                      A
 Frequencies --   1260.9734              1273.3770              1287.4277
 Red. masses --      1.2694                 1.7079                 1.4072
 Frc consts  --      1.1892                 1.6316                 1.3742
 IR Inten    --     14.9057                61.1928                28.1778

                     64                     65                     66
                      A                      A                      A
 Frequencies --   1304.8530              1305.5326              1330.7289
 Red. masses --      1.3755                 1.2652                 1.3762
 Frc consts  --      1.3798                 1.2705                 1.4359
 IR Inten    --     15.7975                20.8982                 7.9636

                     67                     68                     69
                      A                      A                      A
 Frequencies --   1348.7182              1368.4479              1375.9063
 Red. masses --      1.3421                 1.2296                 1.5294
 Frc consts  --      1.4384                 1.3567                 1.7059
 IR Inten    --      9.4289                16.2890                10.3946

                     70                     71                     72
                      A                      A                      A
 Frequencies --   1384.4190              1398.3599              1407.2757
 Red. masses --      1.3804                 1.5510                 1.3762
 Frc consts  --      1.5588                 1.7869                 1.6057
 IR Inten    --      5.0423                19.4191                11.2550

                     73                     74                     75
                      A                      A                      A
 Frequencies --   1418.1009              1426.4422              1432.7340
 Red. masses --      1.3804                 1.3794                 1.2436
 Frc consts  --      1.6356                 1.6537                 1.5040
 IR Inten    --     10.2955                15.1239                 4.3254

                     76                     77                     78
                      A                      A                      A
 Frequencies --   1436.1866              1491.0855              1507.1977
 Red. masses --      1.2958                 1.2160                 1.0788
 Frc consts  --      1.5747                 1.5929                 1.4439
 IR Inten    --      7.7862                11.7144                 6.1592

                     79                     80                     81
                      A                      A                      A
 Frequencies --   1509.3524              1511.9378              1516.8778
 Red. masses --      1.0488                 1.0938                 1.0594
 Frc consts  --      1.4078                 1.4732                 1.4362
 IR Inten    --      3.4822                 6.4651                10.8347

                     82                     83                     84
                      A                      A                      A
 Frequencies --   1524.3170              1528.1034              1528.5994
 Red. masses --      1.0484                 1.0458                 1.0598
 Frc consts  --      1.4352                 1.4388                 1.4590
 IR Inten    --      5.0435                 8.0838                 0.5630

                     85                     86                     87
                      A                      A                      A
 Frequencies --   1537.9044              1539.7924              1544.8782
 Red. masses --      1.1206                 1.0551                 1.0837
 Frc consts  --      1.5615                 1.4739                 1.5239
 IR Inten    --     17.1661                 4.1785                10.1851

                     88                     89                     90
                      A                      A                      A
 Frequencies --   1546.9989              1556.4962              1720.2992
 Red. masses --      1.1261                 1.1038                 7.5704
 Frc consts  --      1.5879                 1.5755                13.2001
 IR Inten    --     36.2871                 7.4659                 3.3565

                     91                     92                     93
                      A                      A                      A
 Frequencies --   1792.8462              2983.4828              3001.0548
 Red. masses --     11.2637                 1.0738                 1.0832
 Frc consts  --     21.3313                 5.6314                 5.7478
 IR Inten    --    286.7368                87.5202                35.0512

                     94                     95                     96
                      A                      A                      A
 Frequencies --   3015.9683              3026.3446              3046.7312
 Red. masses --      1.0616                 1.0710                 1.0385
 Frc consts  --      5.6896                 5.7793                 5.6797
 IR Inten    --     51.4721                80.6771                15.0739

                     97                     98                     99
                      A                      A                      A
 Frequencies --   3053.4377              3056.9358              3060.6528
 Red. masses --      1.0354                 1.0982                 1.0596
 Frc consts  --      5.6879                 6.0465                 5.8480
 IR Inten    --     28.0630                40.5203                21.9637

                    100                    101                    102
                      A                      A                      A
 Frequencies --   3065.7396              3077.0326              3080.6125
 Red. masses --      1.0767                 1.0291                 1.0739
 Frc consts  --      5.9621                 5.7405                 6.0048
 IR Inten    --     29.2256                28.7823                63.2501

                    103                    104                    105
                      A                      A                      A
 Frequencies --   3099.2416              3108.0474              3115.8927
 Red. masses --      1.1036                 1.0976                 1.0953
 Frc consts  --      6.2455                 6.2469                 6.2652
 IR Inten    --      4.3600                39.7505                 9.3322

                    106                    107                    108
                      A                      A                      A
 Frequencies --   3117.3575              3121.2383              3124.4091
 Red. masses --      1.0950                 1.1028                 1.0992
 Frc consts  --      6.2698                 6.3302                 6.3221
 IR Inten    --     56.3772                41.1605                28.3182

                    109                    110                    111
                      A                      A                      A
 Frequencies --   3135.1601              3137.8464              3153.5745
 Red. masses --      1.1028                 1.1017                 1.1076
 Frc consts  --      6.3868                 6.3911                 6.4898
 IR Inten    --     27.2700                36.2273                17.1377

                    112                    113                    114
                      A                      A                      A
 Frequencies --   3159.8619              3180.7064              3517.2473
 Red. masses --      1.0888                 1.1074                 1.0739
 Frc consts  --      6.4053                 6.6009                 7.8272
 IR Inten    --     23.9822                17.5398                13.6103

 - Thermochemistry -
 -------------------
 Temperature   298.150 Kelvin.  Pressure   1.00000 Atm.
 Atom     1 has atomic number  6 and mass  12.00000

 Molecular mass:   241.16779 amu.
 Principal axes and moments of inertia in atomic units:
                           1         2         3
     Eigenvalues --  2667.610466404.050766879.05053
           X            0.99974   0.02233  -0.00472
           Y           -0.02233   0.99975  -0.00022
           Z            0.00471   0.00033   0.99999
 This molecule is an asymmetric top.
 Rotational symmetry number  1.
 Warning -- assumption of classical behavior for rotation
           may cause significant error
 Rotational temperatures (Kelvin)      0.03247     0.01352     0.01259
 Rotational constants (GHZ):           0.67654     0.28181     0.26235
 Zero-point vibrational energy     933001.0 (Joules/Mol)
                                  222.99260 (Kcal/Mol)
 Warning -- explicit consideration of  28 degrees of freedom as
           vibrations may cause significant error
 Vibrational temperatures:     24.48    41.55    52.66    74.24   111.27
          (Kelvin)            115.26   154.22   173.69   198.72   205.42
                              233.94   276.85   304.51   325.17   353.84
                              368.26   374.06   439.86   448.22   514.75
                              518.28   567.30   641.90   682.58   704.18
                              772.03   844.84   878.24  1023.70  1088.99
                             1143.48  1151.43  1160.21  1181.78  1199.14
                             1222.21  1295.18  1331.94  1336.68  1348.68
                             1352.87  1403.30  1421.75  1440.17  1483.60
                             1505.64  1536.88  1561.84  1575.91  1590.75
                             1604.25  1627.29  1643.85  1647.24  1698.35
                             1705.61  1730.15  1760.16  1773.74  1785.08
                             1814.26  1832.11  1852.32  1877.39  1878.37
                             1914.62  1940.50  1968.89  1979.62  1991.87
                             2011.93  2024.76  2040.33  2052.33  2061.38
                             2066.35  2145.34  2168.52  2171.62  2175.34
                             2182.45  2193.15  2198.60  2199.31  2212.70
                             2215.42  2222.74  2225.79  2239.45  2475.13
                             2579.51  4292.57  4317.85  4339.31  4354.23
                             4383.57  4393.22  4398.25  4403.60  4410.92
                             4427.16  4432.31  4459.12  4471.79  4483.07
                             4485.18  4490.77  4495.33  4510.80  4514.66
                             4537.29  4546.34  4576.33  5060.53

 Zero-point correction=                           0.355361 (Hartree/Particle)
 Thermal correction to Energy=                    0.374324
 Thermal correction to Enthalpy=                  0.375268
 Thermal correction to Gibbs Free Energy=         0.305986
 Sum of electronic and zero-point Energies=           -789.343299
 Sum of electronic and thermal Energies=              -789.324337
 Sum of electronic and thermal Enthalpies=            -789.323393
 Sum of electronic and thermal Free Energies=         -789.392675

                     E (Thermal)             CV                S
                      KCal/Mol        Cal/Mol-Kelvin    Cal/Mol-Kelvin
 Total                  234.892             68.973            145.816
 Electronic               0.000              0.000              0.000
 Translational            0.889              2.981             42.342
 Rotational               0.889              2.981             33.130
 Vibrational            233.114             63.011             70.345
 Vibration     1          0.593              1.986              6.956
 Vibration     2          0.593              1.984              5.905
 Vibration     3          0.594              1.982              5.435
 Vibration     4          0.596              1.977              4.755
 Vibration     5          0.599              1.964              3.957
 Vibration     6          0.600              1.963              3.888
 Vibration     7          0.606              1.943              3.319
 Vibration     8          0.609              1.932              3.089
 Vibration     9          0.614              1.915              2.830
 Vibration    10          0.616              1.910              2.766
 Vibration    11          0.623              1.888              2.519
 Vibration    12          0.634              1.850              2.204
 Vibration    13          0.643              1.823              2.029
 Vibration    14          0.650              1.801              1.910
 Vibration    15          0.660              1.770              1.760
 Vibration    16          0.666              1.753              1.689
 Vibration    17          0.668              1.746              1.662
 Vibration    18          0.696              1.663              1.385
 Vibration    19          0.700              1.652              1.354
 Vibration    20          0.733              1.559              1.132
 Vibration    21          0.735              1.554              1.121
 Vibration    22          0.761              1.482              0.984
 Vibration    23          0.805              1.369              0.808
 Vibration    24          0.831              1.307              0.725
 Vibration    25          0.845              1.273              0.685
 Vibration    26          0.892              1.169              0.573
 Vibration    27          0.944              1.059              0.472
 Vibration    28          0.969              1.010              0.432

                           ! Non-Optimized Parameters !
 Normal termination of Gaussian 16 at Fri Dec 11 12:34:16 2020.

 ----------------------------------------------------------------------
 # B3LYP/6-311++G(d,p) empiricaldispersion=gd3bj scf=xqc pop=npa geom=c
 heck
 ----------------------------------------------------------------------

 ---------------------------------------
 CID_103268139_JID_7236_Energie_neutraal
 ---------------------------------------
 Structure from the checkpoint file:  "JID_7236.chk"
 Charge =  0 Multiplicity = 1

 SCF Done:  E(RB3LYP) =  -789.926565315     A.U. after   15 cycles
 Normal termination of Gaussian 16 at Fri Dec 11 12:43:54 2020.

 ----------------------------------------------------------------------
 # B3LYP/6-311++G(d,p) empiricaldispersion=gd3bj scf=xqc pop=npa geom=c
 heck
 ----------------------------------------------------------------------

 -------------------------------------
 CID_103268139_JID_7236_Energie_kation
 -------------------------------------
 Structure from the checkpoint file:  "JID_7236.chk"
 Charge =  1 Multiplicity = 2

 SCF Done:  E(UB3LYP) =  -789.630424361     A.U. after   25 cycles
 Normal termination of Gaussian 16 at Fri Dec 11 13:05:40 2020.
 Gaussian 16:  ES64L-G16RevA.03 25-Dec-2016

 ----------------------------------------------------------------------
 # B3LYP/6-311++G(d,p) empiricaldispersion=gd3bj scf=xqc pop=npa geom=c
 heck
 ----------------------------------------------------------------------

 ------------------------------------
 CID_103268139_JID_7236_Energie_anion
 ------------------------------------
 Structure from the checkpoint file:  "JID_7236.chk"
 Charge = -1 Multiplicity = 2

                         Standard orientation:
 ---------------------------------------------------------------------
 Center     Atomic      Atomic             Coordinates (Angstroms)
 Number     Number       Type             X           Y           Z
 ---------------------------------------------------------------------
      1          6           0       -3.480637   -2.207824    0.610660
      2          6           0       -3.511690   -1.353538   -0.665942
      3          6           0       -2.364465   -0.370085   -0.736369
      4          6           0       -1.363814   -0.508469   -1.623184
      5          6           0       -0.153012    0.369330   -1.819439
      6          7           0        0.914706   -0.094413   -0.937225
      7          6           0        2.222450    0.531202   -1.140911
      8          6           0        2.220069    2.069937   -1.085002
      9          6           0        3.244796   -0.078872   -0.157099
     10          6           0        3.207766   -1.623548   -0.151698
     11          6           0        2.266187   -1.971395    1.025380
     12          8           0        1.964735   -0.741345    1.703610
     13          6           0        2.948858    0.213287    1.321315
     14          6           0       -2.467177    0.740923    0.254036
     15          8           0       -3.508328    1.086614    0.778554
     16          8           0       -1.276864    1.315499    0.559470
     17          6           0       -1.335982    2.371310    1.529099
     18          1           0       -2.549211   -2.781540    0.673518
     19          1           0       -4.319457   -2.912249    0.626302
     20          1           0       -3.555456   -1.576170    1.501238
     21          1           0       -3.478155   -2.001925   -1.548390
     22          1           0       -4.455475   -0.797926   -0.700533
     23          1           0       -1.409143   -1.382808   -2.271230
     24          1           0        0.195927    0.260211   -2.854651
     25          1           0       -0.420637    1.425721   -1.676730
     26          1           0        0.617787    0.029054    0.028686
     27          1           0        2.551604    0.239445   -2.150412
     28          1           0        1.804149    2.433904   -0.138432
     29          1           0        3.236056    2.469936   -1.186692
     30          1           0        1.615084    2.493710   -1.892585
     31          1           0        4.237683    0.296894   -0.429671
     32          1           0        4.210737   -2.027747    0.020885
     33          1           0        2.833261   -2.019702   -1.098239
     34          1           0        1.316773   -2.391694    0.685258
     35          1           0        2.737348   -2.671515    1.729400
     36          1           0        3.865412    0.096127    1.923938
     37          1           0        2.538285    1.206973    1.520321
     38          1           0       -1.963465    3.190472    1.168819
     39          1           0       -1.743004    1.999239    2.472438
     40          1           0       -0.305465    2.702787    1.659181
 ---------------------------------------------------------------------

 SCF Done:  E(UB3LYP) =  -789.922547587     A.U. after   33 cycles
 SCF Done:  E(UB3LYP) =  -789.922547587     a.u. after    1 cycles

 The electronic state is 2-A.
 Alpha  occ. eigenvalues --  -19.04103 -19.01643 -18.97086 -14.17038 -10.15535
 Alpha  occ. eigenvalues --  -10.11669 -10.10878 -10.10680 -10.08896 -10.07272
 Alpha  occ. eigenvalues --  -10.06972 -10.06306 -10.05709 -10.05302 -10.05269
 Alpha  occ. eigenvalues --  -10.04787 -10.03988  -0.97952  -0.93314  -0.88767
 Alpha  occ. eigenvalues --   -0.79140  -0.70086  -0.68422  -0.64436  -0.63272
 Alpha  occ. eigenvalues --   -0.61731  -0.60442  -0.56175  -0.51947  -0.49576
 Alpha  occ. eigenvalues --   -0.48879  -0.47982  -0.45718  -0.43011  -0.40209
 Alpha  occ. eigenvalues --   -0.39249  -0.37505  -0.36394  -0.35754  -0.35081
 Alpha  occ. eigenvalues --   -0.34333  -0.33596  -0.33198  -0.32161  -0.31786
 Alpha  occ. eigenvalues --   -0.31121  -0.29664  -0.29143  -0.29013  -0.27848
 Alpha  occ. eigenvalues --   -0.27350  -0.26158  -0.25705  -0.25441  -0.24118
 Alpha  occ. eigenvalues --   -0.23845  -0.23510  -0.22776  -0.22098  -0.21071
 Alpha  occ. eigenvalues --   -0.20779  -0.18803  -0.15225  -0.15127  -0.13798
 Alpha  occ. eigenvalues --   -0.10728   0.04331
 Alpha virt. eigenvalues --    0.06140   0.07523   0.07867   0.08028   0.08863
 Alpha virt. eigenvalues --    0.09510   0.09696   0.10205   0.10520   0.11129
 Alpha virt. eigenvalues --    0.11482   0.11922   0.12162   0.12741   0.13084

  Beta  occ. eigenvalues --  -19.04040 -19.01641 -18.96869 -14.16989 -10.15344
  Beta  occ. eigenvalues --  -10.11667 -10.10859 -10.10675 -10.08882 -10.07290
  Beta  occ. eigenvalues --  -10.06960 -10.06292 -10.05712 -10.05298 -10.05247
  Beta  occ. eigenvalues --  -10.04723 -10.03684  -0.97728  -0.93307  -0.88437
  Beta  occ. eigenvalues --   -0.79058  -0.69858  -0.68324  -0.64378  -0.63155
  Beta  occ. eigenvalues --   -0.61640  -0.60284  -0.56063  -0.51834  -0.49485
  Beta  occ. eigenvalues --   -0.48827  -0.47616  -0.45676  -0.42866  -0.40167
  Beta  occ. eigenvalues --   -0.39188  -0.37236  -0.36252  -0.35554  -0.35004
  Beta  occ. eigenvalues --   -0.34233  -0.33539  -0.33038  -0.32087  -0.31740
  Beta  occ. eigenvalues --   -0.31052  -0.29552  -0.28997  -0.28965  -0.27407
  Beta  occ. eigenvalues --   -0.27175  -0.26083  -0.25578  -0.25356  -0.24068
  Beta  occ. eigenvalues --   -0.23781  -0.23477  -0.22681  -0.22026  -0.21040
  Beta  occ. eigenvalues --   -0.20676  -0.18107  -0.15104  -0.14980  -0.12544
  Beta  occ. eigenvalues --   -0.10648
  Beta virt. eigenvalues --    0.06773   0.07713   0.07739   0.08234   0.08992
  Beta virt. eigenvalues --    0.09323   0.09741   0.09857   0.10358   0.10579
  Beta virt. eigenvalues --    0.11372   0.11577   0.11906   0.12220   0.12928

 Mulliken charges and spin densities:
               1          2
     1  C   -0.524362  -0.024046
     2  C   -0.362963   0.016777
     3  C    1.108330  -0.004266
     4  C    0.117742   0.121059
     5  C   -0.673833  -0.053288
     6  N    0.164057  -0.045990
     7  C    0.208031  -0.452230
     8  C    0.234536  -0.836655
     9  C   -0.683484   1.178185
    10  C    0.557930  -1.069880
    11  C   -0.260025   0.065948
    12  O   -0.072310  -0.016454
    13  C    0.097565  -0.748671
    14  C   -0.776510   0.107051
    15  O   -0.311313   0.069688
    16  O   -0.128735   0.010874
    17  C   -0.157858  -0.077600
    18  H    0.128468  -0.004290
    19  H    0.077407   0.033171
    20  H    0.164325  -0.002977
    21  H    0.109467   0.024419
    22  H    0.156128   0.012889
    23  H    0.122238  -0.011423
    24  H    0.090728   0.045395
    25  H    0.124494   0.000540
    26  H    0.069705  -0.085308
    27  H    0.043385   0.118552
    28  H    0.182185  -0.055835
    29  H   -0.295334   0.442799
    30  H    0.000516   0.144561
    31  H   -0.715505   0.953392
    32  H   -0.180287   0.349821
    33  H    0.006888   0.139085
    34  H    0.179118  -0.022162
    35  H    0.006121   0.126119
    36  H   -0.224713   0.364262
    37  H    0.065729   0.079424
    38  H    0.147921   0.027852
    39  H    0.153405   0.012149
    40  H    0.050816   0.067062
 Sum of Mulliken charges =  -1.00000   1.00000

 Dipole moment (field-independent basis, Debye):
    X=             -2.8105    Y=             -0.6636    Z=              0.1611  Tot=              2.8923
 Quadrupole moment (field-independent basis, Debye-Ang):
   XX=           -193.9490   YY=           -128.4621   ZZ=           -130.1817
   XY=              0.0647   XZ=              3.2218   YZ=              3.3263

 Summary of Natural Population Analysis:

                                       Natural Population
                Natural  -----------------------------------------------
    Atom  No    Charge         Core      Valence    Rydberg      Total
 -----------------------------------------------------------------------
      C    1   -0.28246      0.99967     2.27886    0.00393     3.28246
      C    2   -0.19287      0.99962     2.18584    0.00740     3.19287
      C    3   -0.06553      0.99942     2.05438    0.01172     3.06553
      C    4    0.00217      0.99949     1.98991    0.00843     2.99783
      C    5   -0.10828      0.99962     2.09626    0.01241     3.10828
      N    6   -0.34958      0.99973     2.83774    0.01212     3.84958
      C    7   -0.00293      0.99959     1.98957    0.01377     3.00293
      C    8   -0.29641      0.99964     2.29082    0.00595     3.29641
      C    9   -0.12333      0.99957     2.11022    0.01354     3.12333
      C   10   -0.20525      0.99963     2.19663    0.00900     3.20525
      C   11   -0.01289      0.99960     2.00146    0.01182     3.01289
      O   12   -0.30446      0.99990     3.29638    0.00818     4.30446
      C   13   -0.01351      0.99957     1.99970    0.01424     3.01351
      C   14    0.41952      0.99961     1.55783    0.02304     2.58048
      O   15   -0.30513      0.99987     3.29993    0.00533     4.30513
      O   16   -0.28132      0.99986     3.27276    0.00869     4.28132
      C   17   -0.10344      0.99960     2.09563    0.00821     3.10344
      H   18    0.09492      0.00000     0.40418    0.00090     0.40508
      H   19    0.08961      0.00000     0.40943    0.00096     0.41039
      H   20    0.10207      0.00000     0.39701    0.00092     0.39793
      H   21    0.09023      0.00000     0.40811    0.00166     0.40977
      H   22    0.10238      0.00000     0.39574    0.00188     0.39762
      H   23    0.08338      0.00000     0.41562    0.00100     0.41662
      H   24    0.08937      0.00000     0.40949    0.00113     0.41063
      H   25    0.08749      0.00000     0.41099    0.00153     0.41251
      H   26    0.18728      0.00000     0.30859    0.00413     0.31272
      H   27    0.08744      0.00000     0.41068    0.00187     0.41256
      H   28    0.09517      0.00000     0.40376    0.00106     0.40483
      H   29    0.09987      0.00000     0.39887    0.00126     0.40013
      H   30    0.10016      0.00000     0.39908    0.00076     0.39984
      H   31    0.10694      0.00000     0.39002    0.00304     0.39306
      H   32    0.09776      0.00000     0.40101    0.00123     0.40224
      H   33    0.10827      0.00000     0.39057    0.00116     0.39173
      H   34    0.09379      0.00000     0.40491    0.00130     0.40621
      H   35    0.07651      0.00000     0.42227    0.00122     0.42349
      H   36    0.07934      0.00000     0.41922    0.00144     0.42066
      H   37    0.09111      0.00000     0.40751    0.00138     0.40889
      H   38    0.08671      0.00000     0.41160    0.00169     0.41329
      H   39    0.08870      0.00000     0.40972    0.00158     0.41130
      H   40    0.08722      0.00000     0.41176    0.00102     0.41278
 =======================================================================
   * Total *    0.00000     16.99400    48.79408    0.21192    66.00000

 Normal termination of Gaussian 16 at Fri Dec 11 13:32:11 2020.
