 Gaussian 16, Revision A.03,

 -----------------------------------------------------------
 # opt freq B3LYP/6-31G(d) empiricaldispersion=gd3bj scf=xqc
 -----------------------------------------------------------

 ------------------------------
 CID_62255658_JID_6088_neutraal
 ------------------------------
 Symbolic Z-matrix:
 Charge =  0 Multiplicity = 1

 SCF Done:  E(RB3LYP) =  -668.734593533     A.U. after   14 cycles
 SCF Done:  E(RB3LYP) =  -668.739353942     A.U. after   12 cycles
 SCF Done:  E(RB3LYP) =  -668.741106305     A.U. after   12 cycles
 SCF Done:  E(RB3LYP) =  -668.742326466     A.U. after   12 cycles
 SCF Done:  E(RB3LYP) =  -668.742917291     A.U. after   12 cycles
 SCF Done:  E(RB3LYP) =  -668.743295309     A.U. after   12 cycles
 SCF Done:  E(RB3LYP) =  -668.743761037     A.U. after   12 cycles
 SCF Done:  E(RB3LYP) =  -668.744003322     A.U. after   12 cycles
 SCF Done:  E(RB3LYP) =  -668.744616876     A.U. after   12 cycles
 SCF Done:  E(RB3LYP) =  -668.745442856     A.U. after   12 cycles
 SCF Done:  E(RB3LYP) =  -668.745898563     A.U. after   11 cycles
 SCF Done:  E(RB3LYP) =  -668.745907710     A.U. after   11 cycles
 SCF Done:  E(RB3LYP) =  -668.745914555     A.U. after   12 cycles
 SCF Done:  E(RB3LYP) =  -668.745914675     A.U. after    9 cycles
 SCF Done:  E(RB3LYP) =  -668.745914781     A.U. after    9 cycles
 Optimization completed.
    -- Stationary point found.
 Normal termination of Gaussian 16 at Thu Dec 10 21:21:10 2020.

 --------------------------------------------------------------------
 #N Geom=AllCheck Guess=TCheck SCRF=Check GenChk RB3LYP/6-31G(d) Freq
 --------------------------------------------------------------------

 Structure from the checkpoint file:  "JID_6088.chk"
 ------------------------------
 CID_62255658_JID_6088_neutraal
 ------------------------------
 Charge =  0 Multiplicity = 1

 SCF Done:  E(RB3LYP) =  -668.745914781     A.U. after    1 cycles

  Exact polarizability: 159.196   0.350 157.363  40.739  -0.441 113.222
 Approx polarizability: 233.643  -2.893 268.689  84.683  -6.175 194.389

                      1                      2                      3
                      A                      A                      A
 Frequencies --     11.2763                32.2087                45.1341
 Red. masses --      5.0439                 4.3184                 4.0434
 Frc consts  --      0.0004                 0.0026                 0.0049
 IR Inten    --      0.5984                 2.8893                 0.4635

                      4                      5                      6
                      A                      A                      A
 Frequencies --     82.9201               114.5086               158.0648
 Red. masses --      4.6848                 4.2662                 4.1658
 Frc consts  --      0.0190                 0.0330                 0.0613
 IR Inten    --      2.1452                 0.1859                 0.3342

                      7                      8                      9
                      A                      A                      A
 Frequencies --    213.9394               225.4539               245.7954
 Red. masses --      1.1724                 2.3430                 2.9660
 Frc consts  --      0.0316                 0.0702                 0.1056
 IR Inten    --      2.5047                 1.5318                 1.4234

                     10                     11                     12
                      A                      A                      A
 Frequencies --    298.5140               316.4381               367.7621
 Red. masses --      3.5956                 2.5721                 2.1704
 Frc consts  --      0.1888                 0.1517                 0.1730
 IR Inten    --      5.3174                 1.3722                 1.6739

                     13                     14                     15
                      A                      A                      A
 Frequencies --    416.3256               427.6733               457.4734
 Red. masses --      3.4043                 3.1052                 3.6892
 Frc consts  --      0.3477                 0.3346                 0.4549
 IR Inten    --      5.3827                 0.8440                 0.2451

                     16                     17                     18
                      A                      A                      A
 Frequencies --    502.2841               508.8913               523.9689
 Red. masses --      3.0078                 4.4501                 3.7112
 Frc consts  --      0.4471                 0.6790                 0.6003
 IR Inten    --     15.5517                11.7965                17.2187

                     19                     20                     21
                      A                      A                      A
 Frequencies --    567.5025               585.0063               617.3004
 Red. masses --      3.0941                 3.1804                 2.2814
 Frc consts  --      0.5871                 0.6413                 0.5122
 IR Inten    --      6.2486                35.4912                52.8484

                     22                     23                     24
                      A                      A                      A
 Frequencies --    640.8769               658.1471               755.6807
 Red. masses --      5.6411                 2.9142                 2.8012
 Frc consts  --      1.3651                 0.7437                 0.9425
 IR Inten    --     11.2490                15.1251                 3.6378

                     25                     26                     27
                      A                      A                      A
 Frequencies --    768.2632               775.8914               790.5581
 Red. masses --      1.4588                 5.7370                 2.8192
 Frc consts  --      0.5073                 2.0349                 1.0381
 IR Inten    --     10.6071                31.8759                 6.3624

                     28                     29                     30
                      A                      A                      A
 Frequencies --    791.2467               815.8388               859.0153
 Red. masses --      1.2901                 3.6336                 3.3076
 Frc consts  --      0.4759                 1.4249                 1.4380
 IR Inten    --     27.2824                 6.4272                 8.5414

                     31                     32                     33
                      A                      A                      A
 Frequencies --    901.3975               923.8675               951.0590
 Red. masses --      1.5592                 2.0197                 1.3139
 Frc consts  --      0.7464                 1.0157                 0.7002
 IR Inten    --      0.9494                 1.2548                 0.6036

                     34                     35                     36
                      A                      A                      A
 Frequencies --    960.4357               965.3330               977.6848
 Red. masses --      2.4603                 1.3361                 1.4979
 Frc consts  --      1.3371                 0.7336                 0.8436
 IR Inten    --      7.1198                 0.8679                 0.8808

                     37                     38                     39
                      A                      A                      A
 Frequencies --   1004.9305              1011.9285              1020.1374
 Red. masses --      1.2880                 6.1413                 1.5945
 Frc consts  --      0.7663                 3.7052                 0.9777
 IR Inten    --      0.1183                 4.0983                10.4593

                     40                     41                     42
                      A                      A                      A
 Frequencies --   1052.1297              1078.1424              1080.8848
 Red. masses --      1.9899                 1.4765                 2.3046
 Frc consts  --      1.2978                 1.0112                 1.5864
 IR Inten    --      2.3270                 3.0941                 4.6358

                     43                     44                     45
                      A                      A                      A
 Frequencies --   1096.9990              1105.6063              1133.8821
 Red. masses --      3.1223                 2.4572                 1.5351
 Frc consts  --      2.2138                 1.7697                 1.1628
 IR Inten    --     10.4581                 1.8732                 8.4689

                     46                     47                     48
                      A                      A                      A
 Frequencies --   1153.6680              1187.0358              1210.9772
 Red. masses --      1.5707                 1.1384                 1.6485
 Frc consts  --      1.2317                 0.9451                 1.4243
 IR Inten    --     22.5609                 2.9678                 6.9571

                     49                     50                     51
                      A                      A                      A
 Frequencies --   1220.2293              1256.0012              1273.6747
 Red. masses --      1.5814                 2.2375                 1.5588
 Frc consts  --      1.3873                 2.0797                 1.4899
 IR Inten    --      3.4898                 5.0647                10.1202

                     52                     53                     54
                      A                      A                      A
 Frequencies --   1306.9763              1317.3394              1334.3359
 Red. masses --      2.8576                 2.6513                 2.3689
 Frc consts  --      2.8760                 2.7108                 2.4850
 IR Inten    --     16.0830                 7.7210                 3.6333

                     55                     56                     57
                      A                      A                      A
 Frequencies --   1342.4181              1370.4586              1382.6310
 Red. masses --      1.5247                 1.9035                 1.4626
 Frc consts  --      1.6188                 2.1064                 1.6473
 IR Inten    --     17.1694                42.5737                 3.2395

                     58                     59                     60
                      A                      A                      A
 Frequencies --   1410.6335              1440.8825              1469.6515
 Red. masses --      1.4004                 1.3594                 1.8694
 Frc consts  --      1.6419                 1.6628                 2.3790
 IR Inten    --     18.6915                 5.5843                62.3191

                     61                     62                     63
                      A                      A                      A
 Frequencies --   1479.5083              1495.5985              1508.5121
 Red. masses --      2.0189                 1.3559                 1.4288
 Frc consts  --      2.6038                 1.7870                 1.9157
 IR Inten    --     24.8836                 8.9323                 5.5695

                     64                     65                     66
                      A                      A                      A
 Frequencies --   1515.8108              1517.4965              1526.7897
 Red. masses --      1.0435                 1.2352                 2.1894
 Frc consts  --      1.4126                 1.6759                 3.0070
 IR Inten    --      4.7774                18.9388                19.7033

                     67                     68                     69
                      A                      A                      A
 Frequencies --   1540.4358              1559.0462              1630.9109
 Red. masses --      1.3247                 1.8100                 5.6384
 Frc consts  --      1.8520                 2.5921                 8.8362
 IR Inten    --     45.2742               143.2443                15.9548

                     70                     71                     72
                      A                      A                      A
 Frequencies --   1638.1930              1650.7131              1663.1866
 Red. masses --      4.2849                 5.3800                 5.6292
 Frc consts  --      6.7752                 8.6373                 9.1744
 IR Inten    --     59.7155                43.3894               106.0689

                     73                     74                     75
                      A                      A                      A
 Frequencies --   3021.7666              3070.9440              3071.3419
 Red. masses --      1.0418                 1.0650                 1.0976
 Frc consts  --      5.6048                 5.9174                 6.1003
 IR Inten    --     23.8144                21.7695                16.7314

                     76                     77                     78
                      A                      A                      A
 Frequencies --   3097.5188              3125.2745              3134.1767
 Red. masses --      1.0602                 1.0980                 1.0994
 Frc consts  --      5.9931                 6.3189                 6.3627
 IR Inten    --     36.2718                15.1701                10.8026

                     79                     80                     81
                      A                      A                      A
 Frequencies --   3152.5393              3166.0581              3167.0771
 Red. masses --      1.1071                 1.0890                 1.0891
 Frc consts  --      6.4825                 6.4314                 6.4363
 IR Inten    --     16.4396                31.6941                24.6893

                     82                     83                     84
                      A                      A                      A
 Frequencies --   3178.0717              3192.4037              3211.1723
 Red. masses --      1.0897                 1.0879                 1.0926
 Frc consts  --      6.4848                 6.5326                 6.6377
 IR Inten    --     21.2778                 7.0246                23.2583

                     85                     86                     87
                      A                      A                      A
 Frequencies --   3216.8903              3217.9673              3613.3081
 Red. masses --      1.0953                 1.0976                 1.0752
 Frc consts  --      6.6784                 6.6964                 8.2710
 IR Inten    --     22.3540                 8.3054                10.7288

 - Thermochemistry -
 -------------------
 Temperature   298.150 Kelvin.  Pressure   1.00000 Atm.
 Atom     1 has atomic number  6 and mass  12.00000

 Molecular mass:   213.12660 amu.
 Principal axes and moments of inertia in atomic units:
                           1         2         3
     Eigenvalues --  1991.003364421.970825100.18376
           X            0.99995  -0.00409   0.00857
           Y            0.00386   0.99964   0.02637
           Z           -0.00868  -0.02634   0.99962
 This molecule is an asymmetric top.
 Rotational symmetry number  1.
 Warning -- assumption of classical behavior for rotation
           may cause significant error
 Rotational temperatures (Kelvin)      0.04350     0.01959     0.01698
 Rotational constants (GHZ):           0.90645     0.40813     0.35386
 Zero-point vibrational energy     687123.0 (Joules/Mol)
                                  164.22635 (Kcal/Mol)
 Warning -- explicit consideration of  21 degrees of freedom as
           vibrations may cause significant error
 Vibrational temperatures:     16.22    46.34    64.94   119.30   164.75
          (Kelvin)            227.42   307.81   324.38   353.64   429.50
                              455.28   529.13   599.00   615.33   658.20
                              722.67   732.18   753.87   816.51   841.69
                              888.16   922.08   946.93  1087.26  1105.36
                             1116.33  1137.44  1138.43  1173.81  1235.93
                             1296.91  1329.24  1368.36  1381.85  1388.90
                             1406.67  1445.87  1455.94  1467.75  1513.78
                             1551.21  1555.15  1578.34  1590.72  1631.40
                             1659.87  1707.88  1742.33  1755.64  1807.11
                             1832.53  1880.45  1895.36  1919.81  1931.44
                             1971.78  1989.30  2029.59  2073.11  2114.50
                             2128.68  2151.83  2170.41  2180.91  2183.34
                             2196.71  2216.34  2243.12  2346.52  2356.99
                             2375.01  2392.95  4347.65  4418.40  4418.98
                             4456.64  4496.57  4509.38  4535.80  4555.25
                             4556.72  4572.54  4593.16  4620.16  4628.39
                             4629.94  5198.74

 Zero-point correction=                           0.261711 (Hartree/Particle)
 Thermal correction to Energy=                    0.275569
 Thermal correction to Enthalpy=                  0.276513
 Thermal correction to Gibbs Free Energy=         0.218684
 Sum of electronic and zero-point Energies=           -668.484203
 Sum of electronic and thermal Energies=              -668.470346
 Sum of electronic and thermal Enthalpies=            -668.469402
 Sum of electronic and thermal Free Energies=         -668.527230

                     E (Thermal)             CV                S
                      KCal/Mol        Cal/Mol-Kelvin    Cal/Mol-Kelvin
 Total                  172.922             53.902            121.710
 Electronic               0.000              0.000              0.000
 Translational            0.889              2.981             41.974
 Rotational               0.889              2.981             32.174
 Vibrational            171.144             47.940             47.563
 Vibration     1          0.593              1.987              7.772
 Vibration     2          0.594              1.983              5.689
 Vibration     3          0.595              1.979              5.020
 Vibration     4          0.600              1.961              3.821
 Vibration     5          0.607              1.937              3.191
 Vibration     6          0.621              1.894              2.573
 Vibration     7          0.644              1.820              2.010
 Vibration     8          0.650              1.802              1.915
 Vibration     9          0.660              1.770              1.761
 Vibration    10          0.692              1.676              1.425
 Vibration    11          0.703              1.642              1.328
 Vibration    12          0.740              1.539              1.089
 Vibration    13          0.780              1.435              0.905
 Vibration    14          0.789              1.410              0.866
 Vibration    15          0.816              1.344              0.773
 Vibration    16          0.858              1.245              0.652
 Vibration    17          0.864              1.230              0.636
 Vibration    18          0.879              1.197              0.601
 Vibration    19          0.923              1.102              0.509
 Vibration    20          0.942              1.064              0.476
 Vibration    21          0.977              0.995              0.421

 Optimization completed.
    -- Stationary point found.
 Normal termination of Gaussian 16 at Thu Dec 10 21:32:18 2020.

 ----------------------------------------------------------------------
 # B3LYP/6-311++G(d,p) empiricaldispersion=gd3bj scf=xqc pop=npa geom=c
 heck
 ----------------------------------------------------------------------

 --------------------------------------
 CID_62255658_JID_6088_Energie_neutraal
 --------------------------------------
 Structure from the checkpoint file:  "JID_6088.chk"
 Charge =  0 Multiplicity = 1

 SCF Done:  E(RB3LYP) =  -668.921848877     A.U. after   14 cycles
 Normal termination of Gaussian 16 at Thu Dec 10 21:36:17 2020.

 ----------------------------------------------------------------------
 # B3LYP/6-311++G(d,p) empiricaldispersion=gd3bj scf=xqc pop=npa geom=c
 heck
 ----------------------------------------------------------------------

 ------------------------------------
 CID_62255658_JID_6088_Energie_kation
 ------------------------------------
 Structure from the checkpoint file:  "JID_6088.chk"
 Charge =  1 Multiplicity = 2

 SCF Done:  E(UB3LYP) =  -668.644946802     A.U. after   23 cycles
 Normal termination of Gaussian 16 at Thu Dec 10 21:46:15 2020.
 Gaussian 16:  ES64L-G16RevA.03 25-Dec-2016

 ----------------------------------------------------------------------
 # B3LYP/6-311++G(d,p) empiricaldispersion=gd3bj scf=xqc pop=npa geom=c
 heck
 ----------------------------------------------------------------------

 -----------------------------------
 CID_62255658_JID_6088_Energie_anion
 -----------------------------------
 Structure from the checkpoint file:  "JID_6088.chk"
 Charge = -1 Multiplicity = 2

                         Standard orientation:
 ---------------------------------------------------------------------
 Center     Atomic      Atomic             Coordinates (Angstroms)
 Number     Number       Type             X           Y           Z
 ---------------------------------------------------------------------
      1          6           0       -0.911414    1.810803    1.680924
      2          6           0       -1.713343    0.966549    0.727791
      3          6           0       -1.410164   -0.410774    0.544218
      4          7           0       -2.063351   -1.194151   -0.325534
      5          6           0       -3.065001   -0.654165   -1.032323
      6          6           0       -3.458358    0.672902   -0.925155
      7          6           0       -2.755013    1.484945   -0.027189
      8          7           0       -0.411872   -1.002214    1.295875
      9          6           0        0.243834   -2.220024    0.829114
     10          6           0        0.969374   -2.042397   -0.525449
     11          6           0        1.753846   -0.755057   -0.536768
     12          6           0        1.341442    0.337309   -1.309983
     13          6           0        2.040553    1.538632   -1.217455
     14          6           0        3.134371    1.613592   -0.356339
     15          6           0        3.471332    0.474114    0.375118
     16          7           0        2.803791   -0.682574    0.301368
     17          1           0       -0.937944    1.408815    2.702447
     18          1           0        0.144543    1.865267    1.377891
     19          1           0       -1.296157    2.834258    1.715446
     20          1           0       -3.569170   -1.328331   -1.723030
     21          1           0       -4.274964    1.063864   -1.522795
     22          1           0       -3.016034    2.535288    0.082514
     23          1           0        0.229280   -0.345492    1.718955
     24          1           0        0.968125   -2.499731    1.598078
     25          1           0       -0.502522   -3.012478    0.745283
     26          1           0        1.641436   -2.894252   -0.680096
     27          1           0        0.227954   -2.035675   -1.327737
     28          1           0        0.473438    0.243095   -1.954514
     29          1           0        1.734268    2.400633   -1.803770
     30          1           0        3.711116    2.527044   -0.249628
     31          1           0        4.317909    0.491696    1.059957
 ---------------------------------------------------------------------

 SCF Done:  E(UB3LYP) =  -668.911016831     A.U. after   33 cycles
 SCF Done:  E(UB3LYP) =  -668.911326802     a.u. after    4 cycles

 The electronic state is 2-A.
 Alpha  occ. eigenvalues --  -14.21935 -14.19357 -14.17985 -10.13382 -10.09822
 Alpha  occ. eigenvalues --  -10.09760 -10.09130 -10.08462 -10.07895 -10.07595
 Alpha  occ. eigenvalues --  -10.06819 -10.06392 -10.06077 -10.06029 -10.05952
 Alpha  occ. eigenvalues --  -10.05688  -0.86477  -0.82376  -0.79835  -0.70864
 Alpha  occ. eigenvalues --   -0.68359  -0.67850  -0.65469  -0.61610  -0.59370
 Alpha  occ. eigenvalues --   -0.54782  -0.51257  -0.50836  -0.50258  -0.47325
 Alpha  occ. eigenvalues --   -0.43676  -0.40203  -0.39173  -0.37308  -0.37013
 Alpha  occ. eigenvalues --   -0.35227  -0.34493  -0.33837  -0.32252  -0.31800
 Alpha  occ. eigenvalues --   -0.31404  -0.29898  -0.29493  -0.28879  -0.28454
 Alpha  occ. eigenvalues --   -0.27201  -0.26630  -0.26139  -0.24831  -0.23582
 Alpha  occ. eigenvalues --   -0.20230  -0.17276  -0.17068  -0.15682  -0.14426
 Alpha  occ. eigenvalues --   -0.14050  -0.10793   0.04744
 Alpha virt. eigenvalues --    0.06670   0.07271   0.07786   0.08021   0.08458
 Alpha virt. eigenvalues --    0.08960   0.09447   0.09903   0.09992   0.10370
 Alpha virt. eigenvalues --    0.10525   0.11190   0.11860   0.12719   0.13093

  Beta  occ. eigenvalues --  -14.21929 -14.19323 -14.17747 -10.13372 -10.09820
  Beta  occ. eigenvalues --  -10.09753 -10.09108 -10.08396 -10.07900 -10.07553
  Beta  occ. eigenvalues --  -10.06795 -10.06375 -10.06077 -10.06023 -10.05752
  Beta  occ. eigenvalues --  -10.05665  -0.86441  -0.82064  -0.79787  -0.70819
  Beta  occ. eigenvalues --   -0.68169  -0.67625  -0.65392  -0.61524  -0.59326
  Beta  occ. eigenvalues --   -0.54698  -0.51082  -0.50739  -0.50144  -0.47165
  Beta  occ. eigenvalues --   -0.43647  -0.40127  -0.39109  -0.37243  -0.36926
  Beta  occ. eigenvalues --   -0.35143  -0.34382  -0.33767  -0.32220  -0.31742
  Beta  occ. eigenvalues --   -0.31350  -0.29841  -0.29414  -0.28749  -0.28338
  Beta  occ. eigenvalues --   -0.27084  -0.26159  -0.26083  -0.24783  -0.23514
  Beta  occ. eigenvalues --   -0.20150  -0.16958  -0.16157  -0.15639  -0.14016
  Beta  occ. eigenvalues --   -0.13761  -0.10724
  Beta virt. eigenvalues --    0.07134   0.07640   0.07890   0.08222   0.08664
  Beta virt. eigenvalues --    0.08864   0.09255   0.09730   0.10117   0.10231
  Beta virt. eigenvalues --    0.10613   0.10713   0.11431   0.12082   0.12975

 Mulliken charges and spin densities:
               1          2
     1  C    1.196517  -2.082567
     2  C   -2.010651   2.551344
     3  C   -0.524605   0.364574
     4  N   -0.181880   0.029535
     5  C    0.245993  -0.402336
     6  C    0.652495  -0.951961
     7  C    1.097710  -1.226232
     8  N    0.147161   0.005880
     9  C   -0.459865  -0.011643
    10  C    0.176541  -0.508209
    11  C   -0.574588   0.154369
    12  C    0.191077   0.088880
    13  C   -0.516469   0.196101
    14  C    0.681727  -0.895466
    15  C   -0.173152   0.143117
    16  N   -0.022445   0.136295
    17  H    0.094588   0.056805
    18  H    0.259609  -0.119750
    19  H   -0.524352   0.683189
    20  H    0.088889   0.068245
    21  H   -0.452528   0.615117
    22  H   -0.684388   0.859155
    23  H    0.223340   0.011829
    24  H    0.165275  -0.001370
    25  H    0.180681  -0.006866
    26  H    0.168202  -0.002117
    27  H    0.139276   0.031495
    28  H    0.139678   0.010261
    29  H   -0.410285   0.580724
    30  H   -0.334676   0.486018
    31  H    0.021128   0.135583
 Sum of Mulliken charges =  -1.00000   1.00000

 Dipole moment (field-independent basis, Debye):
    X=              0.6237    Y=             -6.0293    Z=              1.2924  Tot=              6.1977
 Quadrupole moment (field-independent basis, Debye-Ang):
   XX=           -159.9244   YY=           -143.8589   ZZ=           -116.9402
   XY=              6.4099   XZ=              0.5931   YZ=              2.9141

 Summary of Natural Population Analysis:

                                       Natural Population
                Natural  -----------------------------------------------
    Atom  No    Charge         Core      Valence    Rydberg      Total
 -----------------------------------------------------------------------
      C    1   -0.30005      0.99964     2.29403    0.00638     3.30005
      C    2   -0.04906      0.99948     2.03944    0.01014     3.04906
      C    3    0.20533      0.99949     1.77914    0.01604     2.79467
      N    4   -0.26426      0.99967     2.75452    0.01007     3.76426
      C    5    0.02716      0.99959     1.95864    0.01461     2.97284
      C    6   -0.14380      0.99956     2.13381    0.01043     3.14380
      C    7   -0.07244      0.99952     2.06205    0.01088     3.07244
      N    8   -0.31300      0.99968     2.80307    0.01025     3.81300
      C    9   -0.08137      0.99963     2.07227    0.00948     3.08137
      C   10   -0.21108      0.99959     2.20347    0.00802     3.21108
      C   11    0.10449      0.99953     1.87920    0.01677     2.89551
      C   12   -0.12300      0.99950     2.11435    0.00915     3.12300
      C   13   -0.04731      0.99956     2.03712    0.01063     3.04731
      C   14   -0.13359      0.99956     2.12427    0.00977     3.13359
      C   15    0.03310      0.99959     1.95193    0.01539     2.96690
      N   16   -0.22630      0.99968     2.71505    0.01158     3.72630
      H   17    0.09981      0.00000     0.39919    0.00100     0.40019
      H   18    0.10975      0.00000     0.38853    0.00172     0.39025
      H   19    0.10836      0.00000     0.39045    0.00120     0.39164
      H   20    0.08586      0.00000     0.41310    0.00104     0.41414
      H   21    0.10275      0.00000     0.39617    0.00108     0.39725
      H   22    0.10268      0.00000     0.39513    0.00219     0.39732
      H   23    0.19191      0.00000     0.30588    0.00221     0.30809
      H   24    0.09752      0.00000     0.40157    0.00091     0.40248
      H   25    0.09995      0.00000     0.39906    0.00098     0.40005
      H   26    0.10295      0.00000     0.39601    0.00104     0.39705
      H   27    0.10639      0.00000     0.39223    0.00138     0.39361
      H   28    0.10319      0.00000     0.39509    0.00172     0.39681
      H   29    0.09970      0.00000     0.39922    0.00108     0.40030
      H   30    0.10078      0.00000     0.39812    0.00110     0.39922
      H   31    0.08359      0.00000     0.41528    0.00112     0.41641
 =======================================================================
   * Total *   -0.00000     15.99325    40.80738    0.19937    57.00000

 Normal termination of Gaussian 16 at Thu Dec 10 22:48:29 2020.
