 Gaussian 16, Revision A.03,

 -----------------------------------------------------------
 # opt freq B3LYP/6-31G(d) empiricaldispersion=gd3bj scf=xqc
 -----------------------------------------------------------

 ------------------------------
 CID_62358415_JID_3400_neutraal
 ------------------------------
 Symbolic Z-matrix:
 Charge =  0 Multiplicity = 1

 SCF Done:  E(RB3LYP) =  -559.208190663     A.U. after   13 cycles
 SCF Done:  E(RB3LYP) =  -559.214975993     A.U. after   12 cycles
 SCF Done:  E(RB3LYP) =  -559.215279671     A.U. after   12 cycles
 SCF Done:  E(RB3LYP) =  -559.215797565     A.U. after   12 cycles
 SCF Done:  E(RB3LYP) =  -559.216369612     A.U. after   11 cycles
 SCF Done:  E(RB3LYP) =  -559.216653512     A.U. after   10 cycles
 SCF Done:  E(RB3LYP) =  -559.216730798     A.U. after   12 cycles
 SCF Done:  E(RB3LYP) =  -559.217075071     A.U. after   10 cycles
 SCF Done:  E(RB3LYP) =  -559.217345948     A.U. after   11 cycles
 SCF Done:  E(RB3LYP) =  -559.217444716     A.U. after   11 cycles
 SCF Done:  E(RB3LYP) =  -559.222224525     A.U. after    9 cycles
 SCF Done:  E(RB3LYP) =  -559.222230619     A.U. after    9 cycles
 SCF Done:  E(RB3LYP) =  -559.222232886     A.U. after    8 cycles
 SCF Done:  E(RB3LYP) =  -559.222233539     A.U. after    8 cycles
 SCF Done:  E(RB3LYP) =  -559.222233678     A.U. after    6 cycles
 SCF Done:  E(RB3LYP) =  -559.222233697     A.U. after    7 cycles
 Optimization completed.
    -- Stationary point found.
 Normal termination of Gaussian 16 at Sun Dec 13 20:20:44 2020.

 --------------------------------------------------------------------
 #N Geom=AllCheck Guess=TCheck SCRF=Check GenChk RB3LYP/6-31G(d) Freq
 --------------------------------------------------------------------

 Structure from the checkpoint file:  "JID_3400.chk"
 ------------------------------
 CID_62358415_JID_3400_neutraal
 ------------------------------
 Charge =  0 Multiplicity = 1

 SCF Done:  E(RB3LYP) =  -559.222233697     A.U. after    1 cycles

  Exact polarizability: 132.589  -9.712 133.205  -2.713   1.987 114.840
 Approx polarizability: 175.253 -21.166 183.663  -6.447  -0.736 173.564

                      1                      2                      3
                      A                      A                      A
 Frequencies --     34.7000                55.8532                66.2178
 Red. masses --      3.2169                 3.2444                 3.5172
 Frc consts  --      0.0023                 0.0060                 0.0091
 IR Inten    --      0.3853                 0.4633                 0.4091

                      4                      5                      6
                      A                      A                      A
 Frequencies --     84.1381               108.7714               134.5778
 Red. masses --      2.9355                 2.5713                 2.4125
 Frc consts  --      0.0122                 0.0179                 0.0257
 IR Inten    --      0.2638                 0.9885                 0.0460

                      7                      8                      9
                      A                      A                      A
 Frequencies --    170.3507               200.7483               209.2889
 Red. masses --      2.1606                 2.3932                 2.7755
 Frc consts  --      0.0369                 0.0568                 0.0716
 IR Inten    --      0.8365                 0.0800                 2.2093

                     10                     11                     12
                      A                      A                      A
 Frequencies --    217.3602               245.4193               248.9808
 Red. masses --      1.6958                 1.1982                 1.7183
 Frc consts  --      0.0472                 0.0425                 0.0628
 IR Inten    --      3.1452                 0.7115                 9.0805

                     13                     14                     15
                      A                      A                      A
 Frequencies --    255.4184               271.2561               276.2198
 Red. masses --      1.4420                 1.3455                 1.4530
 Frc consts  --      0.0554                 0.0583                 0.0653
 IR Inten    --      4.8163                 2.8104                 0.6826

                     16                     17                     18
                      A                      A                      A
 Frequencies --    293.3681               352.0052               386.7320
 Red. masses --      2.0896                 2.2164                 2.2314
 Frc consts  --      0.1060                 0.1618                 0.1966
 IR Inten    --      3.4217                 2.0616                 2.5427

                     19                     20                     21
                      A                      A                      A
 Frequencies --    407.9703               420.4049               482.3758
 Red. masses --      2.1001                 2.5979                 1.5970
 Frc consts  --      0.2059                 0.2705                 0.2189
 IR Inten    --     11.7053                 4.0808                12.2570

                     22                     23                     24
                      A                      A                      A
 Frequencies --    492.9733               502.4891               548.7166
 Red. masses --      1.5250                 2.7649                 2.4933
 Frc consts  --      0.2184                 0.4113                 0.4423
 IR Inten    --     16.5042                12.0762                 9.5187

                     25                     26                     27
                      A                      A                      A
 Frequencies --    620.6424               671.0559               680.9042
 Red. masses --      3.7830                 2.4028                 1.9723
 Frc consts  --      0.8586                 0.6375                 0.5388
 IR Inten    --     29.3513                43.5540                68.7984

                     28                     29                     30
                      A                      A                      A
 Frequencies --    753.2166               788.5382               811.2288
 Red. masses --      1.4230                 1.9009                 1.9406
 Frc consts  --      0.4757                 0.6964                 0.7524
 IR Inten    --     80.3840                46.0247                 5.6836

                     31                     32                     33
                      A                      A                      A
 Frequencies --    818.5752               854.4383               899.3521
 Red. masses --      1.4994                 1.9604                 1.5145
 Frc consts  --      0.5920                 0.8433                 0.7218
 IR Inten    --      3.3146                 2.3568                 1.5487

                     34                     35                     36
                      A                      A                      A
 Frequencies --    935.2455               958.8083               979.9366
 Red. masses --      1.9822                 1.8027                 1.5672
 Frc consts  --      1.0215                 0.9764                 0.8867
 IR Inten    --      5.0442                 6.0285                 0.5518

                     37                     38                     39
                      A                      A                      A
 Frequencies --   1004.8911              1010.2831              1040.7190
 Red. masses --      1.4785                 1.7010                 2.4362
 Frc consts  --      0.8797                 1.0229                 1.5547
 IR Inten    --      8.3140                 6.1455                 6.3811

                     40                     41                     42
                      A                      A                      A
 Frequencies --   1073.0015              1078.2744              1127.8590
 Red. masses --      2.3390                 1.6663                 2.1801
 Frc consts  --      1.5867                 1.1414                 1.6339
 IR Inten    --     28.1725                15.7126                 4.8182

                     43                     44                     45
                      A                      A                      A
 Frequencies --   1134.7325              1140.1163              1141.7680
 Red. masses --      1.9667                 1.4470                 1.6700
 Frc consts  --      1.4920                 1.1082                 1.2827
 IR Inten    --     10.7079                 5.7136                19.3424

                     46                     47                     48
                      A                      A                      A
 Frequencies --   1151.0911              1174.7356              1204.3270
 Red. masses --      1.5600                 2.4606                 2.2512
 Frc consts  --      1.2178                 2.0006                 1.9237
 IR Inten    --      4.4775                12.8016                43.2438

                     49                     50                     51
                      A                      A                      A
 Frequencies --   1228.2135              1245.3028              1279.7333
 Red. masses --      2.6086                 1.9031                 1.3675
 Frc consts  --      2.3185                 1.7389                 1.3195
 IR Inten    --      7.7674                 7.1426                 3.1309

                     52                     53                     54
                      A                      A                      A
 Frequencies --   1306.0206              1315.6373              1335.7502
 Red. masses --      1.3962                 1.4460                 1.2770
 Frc consts  --      1.4031                 1.4746                 1.3424
 IR Inten    --     13.3041                27.6624                 7.3808

                     55                     56                     57
                      A                      A                      A
 Frequencies --   1346.9266              1364.9605              1388.5400
 Red. masses --      1.3253                 1.5572                 1.3644
 Frc consts  --      1.4166                 1.7093                 1.5499
 IR Inten    --     29.4487                65.5819                 3.3151

                     58                     59                     60
                      A                      A                      A
 Frequencies --   1406.5190              1407.0770              1432.0148
 Red. masses --      1.4978                 1.4475                 1.2753
 Frc consts  --      1.7458                 1.6886                 1.5408
 IR Inten    --     15.6562                 4.7085                 7.1459

                     61                     62                     63
                      A                      A                      A
 Frequencies --   1435.3840              1438.8542              1446.4484
 Red. masses --      1.2471                 1.2608                 1.2494
 Frc consts  --      1.5139                 1.5379                 1.5402
 IR Inten    --      9.8370                 8.9045                 6.4477

                     64                     65                     66
                      A                      A                      A
 Frequencies --   1464.2445              1468.3746              1507.0163
 Red. masses --      1.4926                 1.2008                 1.0842
 Frc consts  --      1.8854                 1.5255                 1.4508
 IR Inten    --     61.1888                30.7920                 1.0783

                     67                     68                     69
                      A                      A                      A
 Frequencies --   1516.1355              1518.4692              1519.8791
 Red. masses --      1.0860                 1.0746                 1.0558
 Frc consts  --      1.4708                 1.4598                 1.4369
 IR Inten    --     11.6999                 3.6657                 1.8311

                     70                     71                     72
                      A                      A                      A
 Frequencies --   1523.8035              1525.8374              1527.4914
 Red. masses --      1.0638                 1.0430                 1.0500
 Frc consts  --      1.4554                 1.4307                 1.4434
 IR Inten    --      1.1024                 2.2210                 5.0663

                     73                     74                     75
                      A                      A                      A
 Frequencies --   1532.4641              1533.9815              1539.0440
 Red. masses --      1.0529                 1.0673                 1.0661
 Frc consts  --      1.4569                 1.4797                 1.4878
 IR Inten    --      4.9800                 3.5643                 8.8147

                     76                     77                     78
                      A                      A                      A
 Frequencies --   1539.9545              1550.2910              1642.7808
 Red. masses --      1.0646                 1.0551                 1.2506
 Frc consts  --      1.4875                 1.4941                 1.9885
 IR Inten    --      6.4963                 3.2550                95.5630

                     79                     80                     81
                      A                      A                      A
 Frequencies --   1731.8082              2993.4114              3024.3367
 Red. masses --      4.9921                 1.0373                 1.0673
 Frc consts  --      8.8213                 5.4762                 5.7518
 IR Inten    --    323.8122                60.6790                15.2277

                     82                     83                     84
                      A                      A                      A
 Frequencies --   3037.6494              3041.8397              3042.4321
 Red. masses --      1.0766                 1.0685                 1.0706
 Frc consts  --      5.8530                 5.8249                 5.8386
 IR Inten    --     21.2785                39.2248                24.5819

                     85                     86                     87
                      A                      A                      A
 Frequencies --   3043.5087              3044.4925              3048.4574
 Red. masses --      1.0868                 1.0419                 1.0413
 Frc consts  --      5.9311                 5.6901                 5.7016
 IR Inten    --     30.1317                22.5613                29.2963

                     88                     89                     90
                      A                      A                      A
 Frequencies --   3051.4553              3054.9657              3073.5779
 Red. masses --      1.0645                 1.0505                 1.0980
 Frc consts  --      5.8401                 5.7763                 6.1112
 IR Inten    --     41.9031                46.0763                42.2953

                     91                     92                     93
                      A                      A                      A
 Frequencies --   3076.8711              3081.0642              3099.4071
 Red. masses --      1.0965                 1.0964                 1.0955
 Frc consts  --      6.1163                 6.1321                 6.2003
 IR Inten    --     53.1216                51.7825                 4.4009

                     94                     95                     96
                      A                      A                      A
 Frequencies --   3108.2553              3116.5750              3121.3538
 Red. masses --      1.1007                 1.0982                 1.1022
 Frc consts  --      6.2654                 6.2845                 6.3272
 IR Inten    --     41.2219                37.6386                17.6575

                     97                     98                     99
                      A                      A                      A
 Frequencies --   3124.6117              3128.1151              3131.6049
 Red. masses --      1.1019                 1.1007                 1.1024
 Frc consts  --      6.3386                 6.3456                 6.3697
 IR Inten    --     37.6956                53.0357                35.2927

                    100                    101                    102
                      A                      A                      A
 Frequencies --   3165.2361              3531.7698              3643.1205
 Red. masses --      1.0892                 1.0469                 1.0985
 Frc consts  --      6.4292                 7.6935                 8.5897
 IR Inten    --     15.2258                 8.4719                10.7409

 - Thermochemistry -
 -------------------
 Temperature   298.150 Kelvin.  Pressure   1.00000 Atm.
 Atom     1 has atomic number  6 and mass  12.00000

 Molecular mass:   185.18920 amu.
 Principal axes and moments of inertia in atomic units:
                           1         2         3
     Eigenvalues --  2157.091022609.406173553.54024
           X            1.00000   0.00310  -0.00034
           Y           -0.00309   0.99939   0.03481
           Z            0.00045  -0.03481   0.99939
 This molecule is an asymmetric top.
 Rotational symmetry number  1.
 Warning -- assumption of classical behavior for rotation
           may cause significant error
 Rotational temperatures (Kelvin)      0.04015     0.03319     0.02437
 Rotational constants (GHZ):           0.83666     0.69163     0.50787
 Zero-point vibrational energy     875206.8 (Joules/Mol)
                                  209.17944 (Kcal/Mol)
 Warning -- explicit consideration of  25 degrees of freedom as
           vibrations may cause significant error
 Vibrational temperatures:     49.93    80.36    95.27   121.06   156.50
          (Kelvin)            193.63   245.10   288.83   301.12   312.73
                              353.10   358.23   367.49   390.28   397.42
                              422.09   506.46   556.42   586.98   604.87
                              694.03   709.28   722.97   789.48   892.97
                              965.50   979.67  1083.71  1134.53  1167.18
                             1177.75  1229.35  1293.97  1345.61  1379.51
                             1409.91  1445.81  1453.57  1497.36  1543.81
                             1551.40  1622.74  1632.63  1640.37  1642.75
                             1656.16  1690.18  1732.76  1767.13  1791.71
                             1841.25  1879.07  1892.91  1921.85  1937.93
                             1963.87  1997.80  2023.67  2024.47  2060.35
                             2065.20  2070.19  2081.12  2106.72  2112.66
                             2168.26  2181.38  2184.74  2186.77  2192.41
                             2195.34  2197.72  2204.87  2207.06  2214.34
                             2215.65  2230.52  2363.60  2491.69  4306.85
                             4351.35  4370.50  4376.53  4377.38  4378.93
                             4380.35  4386.05  4390.36  4395.41  4422.19
                             4426.93  4432.96  4459.36  4472.09  4484.06
                             4490.93  4495.62  4500.66  4505.68  4554.07
                             5081.43  5241.64

 Zero-point correction=                           0.333349 (Hartree/Particle)
 Thermal correction to Energy=                    0.349496
 Thermal correction to Enthalpy=                  0.350440
 Thermal correction to Gibbs Free Energy=         0.290537
 Sum of electronic and zero-point Energies=           -558.888885
 Sum of electronic and thermal Energies=              -558.872737
 Sum of electronic and thermal Enthalpies=            -558.871793
 Sum of electronic and thermal Free Energies=         -558.931697

                     E (Thermal)             CV                S
                      KCal/Mol        Cal/Mol-Kelvin    Cal/Mol-Kelvin
 Total                  219.312             60.396            126.078
 Electronic               0.000              0.000              0.000
 Translational            0.889              2.981             41.555
 Rotational               0.889              2.981             31.370
 Vibrational            217.535             54.434             53.153
 Vibration     1          0.594              1.983              5.541
 Vibration     2          0.596              1.975              4.599
 Vibration     3          0.598              1.970              4.263
 Vibration     4          0.601              1.960              3.792
 Vibration     5          0.606              1.942              3.291
 Vibration     6          0.613              1.919              2.880
 Vibration     7          0.625              1.879              2.432
 Vibration     8          0.638              1.839              2.126
 Vibration     9          0.642              1.827              2.050
 Vibration    10          0.646              1.815              1.981
 Vibration    11          0.660              1.770              1.763
 Vibration    12          0.662              1.764              1.738
 Vibration    13          0.666              1.754              1.693
 Vibration    14          0.675              1.726              1.588
 Vibration    15          0.678              1.717              1.557
 Vibration    16          0.688              1.686              1.454
 Vibration    17          0.729              1.571              1.157
 Vibration    18          0.755              1.499              1.013
 Vibration    19          0.773              1.453              0.934
 Vibration    20          0.783              1.426              0.891
 Vibration    21          0.839              1.289              0.704
 Vibration    22          0.849              1.266              0.676
 Vibration    23          0.858              1.244              0.652
 Vibration    24          0.904              1.142              0.547
 Vibration    25          0.981              0.988              0.415

                           ! Non-Optimized Parameters !
 Normal termination of Gaussian 16 at Sun Dec 13 20:32:13 2020.

 ----------------------------------------------------------------------
 # B3LYP/6-311++G(d,p) empiricaldispersion=gd3bj scf=xqc pop=npa geom=c
 heck
 ----------------------------------------------------------------------

 --------------------------------------
 CID_62358415_JID_3400_Energie_neutraal
 --------------------------------------
 Structure from the checkpoint file:  "JID_3400.chk"
 Charge =  0 Multiplicity = 1

 SCF Done:  E(RB3LYP) =  -559.385384990     A.U. after   13 cycles
 Normal termination of Gaussian 16 at Sun Dec 13 20:37:30 2020.

 ----------------------------------------------------------------------
 # B3LYP/6-311++G(d,p) empiricaldispersion=gd3bj scf=xqc pop=npa geom=c
 heck
 ----------------------------------------------------------------------

 ------------------------------------
 CID_62358415_JID_3400_Energie_kation
 ------------------------------------
 Structure from the checkpoint file:  "JID_3400.chk"
 Charge =  1 Multiplicity = 2

 SCF Done:  E(UB3LYP) =  -559.104396185     A.U. after   22 cycles
 Normal termination of Gaussian 16 at Sun Dec 13 20:49:52 2020.
 Gaussian 16:  ES64L-G16RevA.03 25-Dec-2016

 ----------------------------------------------------------------------
 # B3LYP/6-311++G(d,p) empiricaldispersion=gd3bj scf=xqc pop=npa geom=c
 heck
 ----------------------------------------------------------------------

 -----------------------------------
 CID_62358415_JID_3400_Energie_anion
 -----------------------------------
 Structure from the checkpoint file:  "JID_3400.chk"
 Charge = -1 Multiplicity = 2

                         Standard orientation:
 ---------------------------------------------------------------------
 Center     Atomic      Atomic             Coordinates (Angstroms)
 Number     Number       Type             X           Y           Z
 ---------------------------------------------------------------------
      1          6           0        3.209199    0.787431    0.445842
      2          6           0        2.043331    1.750523    0.194215
      3          6           0        1.323521    1.533421   -1.143725
      4          6           0        0.727782    0.128302   -1.309703
      5          7           0       -0.292826   -0.194604   -0.313186
      6          6           0       -1.708325    0.070424   -0.659457
      7          6           0       -2.479247   -1.245453   -0.824755
      8          6           0       -2.463349    1.027656    0.282451
      9          6           0       -1.804522    2.393300    0.469901
     10          6           0        0.037221   -1.050526    0.751816
     11          7           0        0.753318   -2.115944    0.746667
     12          6           0        1.067011   -2.802945   -0.486684
     13          7           0       -0.539377   -0.664849    1.966529
     14          1           0        2.860902   -0.241667    0.582667
     15          1           0        3.757981    1.068702    1.351507
     16          1           0        3.920045    0.799355   -0.390081
     17          1           0        1.318617    1.654538    1.012481
     18          1           0        2.407802    2.785271    0.229592
     19          1           0        0.532223    2.283828   -1.260107
     20          1           0        2.033464    1.695484   -1.968241
     21          1           0        0.299721    0.025024   -2.315322
     22          1           0        1.537103   -0.597787   -1.247472
     23          1           0       -1.658649    0.566450   -1.636512
     24          1           0       -2.514142   -1.786693    0.126564
     25          1           0       -3.509371   -1.057909   -1.147927
     26          1           0       -1.995380   -1.888415   -1.567174
     27          1           0       -3.465511    1.168955   -0.144326
     28          1           0       -2.605411    0.536317    1.249821
     29          1           0       -1.690852    2.915688   -0.487881
     30          1           0       -2.405046    3.032019    1.126915
     31          1           0       -0.806001    2.302517    0.908880
     32          1           0        0.983695   -3.882494   -0.311190
     33          1           0        0.408642   -2.547063   -1.330924
     34          1           0        2.105821   -2.618369   -0.800066
     35          1           0       -0.457126    0.323264    2.177106
     36          1           0       -0.222062   -1.262046    2.722217
 ---------------------------------------------------------------------

 SCF Done:  E(UB3LYP) =  -559.370054746     A.U. after   30 cycles

 The electronic state is 2-A.
 Alpha  occ. eigenvalues --  -14.21790 -14.21456 -14.17598 -10.16148 -10.10697
 Alpha  occ. eigenvalues --  -10.09650 -10.08789 -10.06240 -10.06092 -10.06032
 Alpha  occ. eigenvalues --  -10.05903 -10.05568 -10.05448  -0.87716  -0.79619
 Alpha  occ. eigenvalues --   -0.76354  -0.69996  -0.67785  -0.63008  -0.61579
 Alpha  occ. eigenvalues --   -0.58899  -0.54672  -0.53835  -0.50512  -0.47669
 Alpha  occ. eigenvalues --   -0.43909  -0.41113  -0.39344  -0.38946  -0.36904
 Alpha  occ. eigenvalues --   -0.35959  -0.34503  -0.33750  -0.32908  -0.32327
 Alpha  occ. eigenvalues --   -0.31497  -0.30791  -0.29446  -0.29212  -0.28202
 Alpha  occ. eigenvalues --   -0.27235  -0.26751  -0.25524  -0.24721  -0.24114
 Alpha  occ. eigenvalues --   -0.22869  -0.22797  -0.22598  -0.22032  -0.15557
 Alpha  occ. eigenvalues --   -0.14216  -0.11765   0.04512
 Alpha virt. eigenvalues --    0.06708   0.06819   0.07415   0.08570   0.08883
 Alpha virt. eigenvalues --    0.09194   0.09501   0.09912   0.11200   0.11524
 Alpha virt. eigenvalues --    0.11610   0.12165   0.12487   0.12545   0.13028

  Beta  occ. eigenvalues --  -14.21788 -14.21435 -14.17584 -10.16143 -10.10681
  Beta  occ. eigenvalues --  -10.09637 -10.08781 -10.06219 -10.06075 -10.06015
  Beta  occ. eigenvalues --  -10.05883 -10.05548 -10.05414  -0.87697  -0.79598
  Beta  occ. eigenvalues --   -0.76327  -0.69961  -0.67751  -0.62967  -0.61540
  Beta  occ. eigenvalues --   -0.58870  -0.54628  -0.53776  -0.50454  -0.47607
  Beta  occ. eigenvalues --   -0.43856  -0.41078  -0.39306  -0.38918  -0.36864
  Beta  occ. eigenvalues --   -0.35932  -0.34468  -0.33723  -0.32884  -0.32287
  Beta  occ. eigenvalues --   -0.31465  -0.30765  -0.29421  -0.29183  -0.28176
  Beta  occ. eigenvalues --   -0.27199  -0.26708  -0.25492  -0.24684  -0.24065
  Beta  occ. eigenvalues --   -0.22836  -0.22759  -0.22568  -0.21995  -0.15521
  Beta  occ. eigenvalues --   -0.14166  -0.11752
  Beta virt. eigenvalues --    0.06664   0.07350   0.07616   0.07938   0.08983
  Beta virt. eigenvalues --    0.09375   0.09551   0.09935   0.10357   0.11574
  Beta virt. eigenvalues --    0.11736   0.11833   0.12585   0.12847   0.12959

 Mulliken charges and spin densities:
               1          2
     1  C    0.556190  -1.184684
     2  C   -0.544441   0.619405
     3  C    0.625539  -0.998233
     4  C    0.132865  -0.299779
     5  N    0.185021   0.020629
     6  C    0.103719  -0.035685
     7  C    0.435356  -0.925448
     8  C   -1.214792   0.847027
     9  C    1.406127  -1.945011
    10  C   -0.035184  -0.655531
    11  N   -0.011561  -0.005407
    12  C   -0.038590  -0.371158
    13  N   -0.500885   0.277729
    14  H    0.164329   0.005980
    15  H   -0.184108   0.318439
    16  H   -0.064474   0.195898
    17  H   -0.057495   0.145437
    18  H   -0.503731   0.697452
    19  H    0.262538  -0.150889
    20  H   -0.361536   0.524583
    21  H   -0.107392   0.297970
    22  H    0.302072  -0.208295
    23  H   -0.599043   0.778327
    24  H    0.033082   0.142677
    25  H   -0.210771   0.363726
    26  H   -0.025492   0.149914
    27  H   -0.364268   0.514286
    28  H    0.135645   0.039521
    29  H   -0.119049   0.269629
    30  H   -0.360676   0.511245
    31  H   -0.367256   0.460700
    32  H    0.017356   0.125980
    33  H    0.043210   0.077510
    34  H    0.083271   0.056635
    35  H    0.033848   0.210000
    36  H    0.150575   0.129421
 Sum of Mulliken charges =  -1.00000   1.00000

 Dipole moment (field-independent basis, Debye):
    X=              0.9513    Y=             -4.4290    Z=              0.8948  Tot=              4.6175
 Quadrupole moment (field-independent basis, Debye-Ang):
   XX=           -145.4509   YY=           -138.6951   ZZ=           -125.6229
   XY=              0.1926   XZ=             -6.8634   YZ=              1.5590

 Summary of Natural Population Analysis:

                                       Natural Population
                Natural  -----------------------------------------------
    Atom  No    Charge         Core      Valence    Rydberg      Total
 -----------------------------------------------------------------------
      C    1   -0.28982      0.99966     2.28444    0.00573     3.28982
      C    2   -0.19153      0.99963     2.18390    0.00800     3.19153
      C    3   -0.19169      0.99961     2.18358    0.00850     3.19169
      C    4   -0.08126      0.99958     2.06935    0.01232     3.08126
      N    5   -0.29673      0.99964     2.78087    0.01622     3.79673
      C    6    0.00059      0.99957     1.98631    0.01353     2.99941
      C    7   -0.29009      0.99964     2.28463    0.00582     3.29009
      C    8   -0.19592      0.99961     2.18783    0.00849     3.19592
      C    9   -0.28571      0.99966     2.28058    0.00547     3.28571
      C   10    0.31679      0.99956     1.66480    0.01886     2.68321
      N   11   -0.29999      0.99963     2.78942    0.01094     3.79999
      C   12   -0.18948      0.99963     2.18256    0.00729     3.18948
      N   13   -0.40593      0.99971     2.89746    0.00877     3.90593
      H   14    0.10124      0.00000     0.39746    0.00129     0.39876
      H   15    0.09891      0.00000     0.40019    0.00090     0.40109
      H   16    0.09315      0.00000     0.40585    0.00099     0.40685
      H   17    0.09224      0.00000     0.40539    0.00237     0.40776
      H   18    0.09701      0.00000     0.40159    0.00140     0.40299
      H   19    0.09990      0.00000     0.39835    0.00175     0.40010
      H   20    0.09455      0.00000     0.40418    0.00127     0.40545
      H   21    0.09409      0.00000     0.40444    0.00148     0.40591
      H   22    0.09866      0.00000     0.39908    0.00226     0.40134
      H   23    0.09671      0.00000     0.40076    0.00253     0.40329
      H   24    0.10189      0.00000     0.39705    0.00106     0.39811
      H   25    0.10132      0.00000     0.39771    0.00097     0.39868
      H   26    0.09895      0.00000     0.39984    0.00121     0.40105
      H   27    0.09782      0.00000     0.40096    0.00122     0.40218
      H   28    0.10073      0.00000     0.39773    0.00154     0.39927
      H   29    0.09813      0.00000     0.40026    0.00161     0.40187
      H   30    0.09947      0.00000     0.39949    0.00104     0.40053
      H   31    0.09516      0.00000     0.40289    0.00195     0.40484
      H   32    0.09162      0.00000     0.40715    0.00123     0.40838
      H   33    0.08511      0.00000     0.41343    0.00146     0.41489
      H   34    0.08816      0.00000     0.41053    0.00131     0.41184
      H   35    0.18644      0.00000     0.31114    0.00243     0.31356
      H   36    0.18952      0.00000     0.30835    0.00213     0.31048
 =======================================================================
   * Total *    0.00000     12.99513    38.83954    0.16534    52.00000

 Normal termination of Gaussian 16 at Sun Dec 13 21:06:42 2020.
