 Gaussian 16, Revision A.03,

 -----------------------------------------------------------
 # opt freq B3LYP/6-31G(d) empiricaldispersion=gd3bj scf=xqc
 -----------------------------------------------------------

 ------------------------------
 CID_59634387_JID_6930_neutraal
 ------------------------------
 Symbolic Z-matrix:
 Charge =  0 Multiplicity = 1

 SCF Done:  E(RB3LYP) =  -692.237120553     A.U. after   14 cycles
 SCF Done:  E(RB3LYP) =  -692.240923919     A.U. after   12 cycles
 SCF Done:  E(RB3LYP) =  -692.241204763     A.U. after   11 cycles
 SCF Done:  E(RB3LYP) =  -692.241228651     A.U. after   11 cycles
 SCF Done:  E(RB3LYP) =  -692.241293074     A.U. after   10 cycles
 SCF Done:  E(RB3LYP) =  -692.241294859     A.U. after    8 cycles
 SCF Done:  E(RB3LYP) =  -692.241295558     A.U. after    7 cycles
 SCF Done:  E(RB3LYP) =  -692.241295721     A.U. after    7 cycles
 SCF Done:  E(RB3LYP) =  -692.241295910     A.U. after    7 cycles
 SCF Done:  E(RB3LYP) =  -692.241295990     A.U. after    7 cycles
 SCF Done:  E(RB3LYP) =  -692.241305041     A.U. after   10 cycles
 SCF Done:  E(RB3LYP) =  -692.241307931     A.U. after   10 cycles
 SCF Done:  E(RB3LYP) =  -692.241309526     A.U. after    9 cycles
 SCF Done:  E(RB3LYP) =  -692.241309873     A.U. after    9 cycles
 SCF Done:  E(RB3LYP) =  -692.241309911     A.U. after    7 cycles
 Optimization completed.
    -- Stationary point found.
 Normal termination of Gaussian 16 at Fri Dec 11 01:39:47 2020.

 --------------------------------------------------------------------
 #N Geom=AllCheck Guess=TCheck SCRF=Check GenChk RB3LYP/6-31G(d) Freq
 --------------------------------------------------------------------

 Structure from the checkpoint file:  "JID_6930.chk"
 ------------------------------
 CID_59634387_JID_6930_neutraal
 ------------------------------
 Charge =  0 Multiplicity = 1

 SCF Done:  E(RB3LYP) =  -692.241309911     A.U. after    1 cycles

  Exact polarizability: 176.358  -4.060 159.971   0.302   0.753 108.278
 Approx polarizability: 244.811  -6.357 244.527  -0.156  -0.382 158.798

                      1                      2                      3
                      A                      A                      A
 Frequencies --     16.1108                30.0501                42.5518
 Red. masses --      1.0266                 2.7903                 3.3703
 Frc consts  --      0.0002                 0.0015                 0.0036
 IR Inten    --      0.4152                 0.0370                 0.8373

                      4                      5                      6
                      A                      A                      A
 Frequencies --     99.9415               119.8934               150.3595
 Red. masses --      3.1047                 3.1532                 2.8107
 Frc consts  --      0.0183                 0.0267                 0.0374
 IR Inten    --      1.3735                 2.0632                 1.0944

                      7                      8                      9
                      A                      A                      A
 Frequencies --    167.8798               204.5164               214.3498
 Red. masses --      2.7619                 1.4831                 1.2988
 Frc consts  --      0.0459                 0.0365                 0.0352
 IR Inten    --      1.3201                 0.5826                 0.0774

                     10                     11                     12
                      A                      A                      A
 Frequencies --    229.1633               251.2396               261.9888
 Red. masses --      1.2095                 1.4525                 1.9079
 Frc consts  --      0.0374                 0.0540                 0.0772
 IR Inten    --      0.0454                 0.4945                 0.2860

                     13                     14                     15
                      A                      A                      A
 Frequencies --    264.4172               277.7527               279.0484
 Red. masses --      1.5645                 1.4158                 1.6437
 Frc consts  --      0.0644                 0.0644                 0.0754
 IR Inten    --      0.4545                 0.0109                 0.0984

                     16                     17                     18
                      A                      A                      A
 Frequencies --    298.2595               305.7217               339.9423
 Red. masses --      2.4626                 2.1065                 3.1934
 Frc consts  --      0.1291                 0.1160                 0.2174
 IR Inten    --      0.0441                 0.6000                 0.2996

                     19                     20                     21
                      A                      A                      A
 Frequencies --    354.9197               384.2779               397.3716
 Red. masses --      2.5219                 2.8141                 2.5060
 Frc consts  --      0.1872                 0.2448                 0.2331
 IR Inten    --      1.2077                 4.2517                 0.1799

                     22                     23                     24
                      A                      A                      A
 Frequencies --    409.0178               430.3705               498.6995
 Red. masses --      2.6822                 3.7150                 4.4670
 Frc consts  --      0.2644                 0.4054                 0.6545
 IR Inten    --      0.2357                 6.1844                 1.6986

                     25                     26                     27
                      A                      A                      A
 Frequencies --    546.7296               569.2783               625.3038
 Red. masses --      3.5078                 2.8726                 4.8055
 Frc consts  --      0.6178                 0.5485                 1.1071
 IR Inten    --      5.0450                 0.7291                 1.3821

                     28                     29                     30
                      A                      A                      A
 Frequencies --    643.8432               668.4171               701.5705
 Red. masses --      3.7020                 5.7051                 6.8631
 Frc consts  --      0.9042                 1.5018                 1.9903
 IR Inten    --      2.4205                 3.0353                 0.0042

                     31                     32                     33
                      A                      A                      A
 Frequencies --    801.0091               805.6263               820.8555
 Red. masses --      4.2688                 4.6433                 5.3325
 Frc consts  --      1.6137                 1.7756                 2.1170
 IR Inten    --      2.8093                 0.8848                 2.6158

                     34                     35                     36
                      A                      A                      A
 Frequencies --    862.3396               903.7822               945.9857
 Red. masses --      3.1674                 2.9617                 1.7229
 Frc consts  --      1.3877                 1.4253                 0.9084
 IR Inten    --     19.0797                23.8469                 0.5532

                     37                     38                     39
                      A                      A                      A
 Frequencies --    947.4338               954.1112               966.7309
 Red. masses --      1.5591                 1.7784                 3.9225
 Frc consts  --      0.8246                 0.9538                 2.1598
 IR Inten    --      0.5413                 2.5106                12.9755

                     40                     41                     42
                      A                      A                      A
 Frequencies --    976.7777               983.4585              1026.8028
 Red. masses --      1.2091                 2.2058                 1.3196
 Frc consts  --      0.6797                 1.2570                 0.8197
 IR Inten    --      0.1807                20.8643                 0.3683

                     43                     44                     45
                      A                      A                      A
 Frequencies --   1037.0315              1044.0580              1059.4386
 Red. masses --      1.6401                 1.6001                 1.5169
 Frc consts  --      1.0392                 1.0277                 1.0031
 IR Inten    --      0.9634                 5.8114                 2.1646

                     46                     47                     48
                      A                      A                      A
 Frequencies --   1062.9807              1075.9455              1077.1147
 Red. masses --      1.5233                 3.7824                 1.7926
 Frc consts  --      1.0141                 2.5799                 1.2254
 IR Inten    --      3.3971                75.8089                12.9824

                     49                     50                     51
                      A                      A                      A
 Frequencies --   1163.3994              1195.5463              1213.4472
 Red. masses --      3.8409                 2.2972                 2.2854
 Frc consts  --      3.0630                 1.9346                 1.9826
 IR Inten    --      5.3678                17.2913                10.4932

                     52                     53                     54
                      A                      A                      A
 Frequencies --   1232.5435              1242.8395              1244.5573
 Red. masses --      1.6232                 3.4608                 2.0365
 Frc consts  --      1.4528                 3.1496                 1.8585
 IR Inten    --      8.5896                 4.1538                 0.6598

                     55                     56                     57
                      A                      A                      A
 Frequencies --   1254.6921              1271.8905              1291.4787
 Red. masses --      3.1166                 3.2846                 3.9034
 Frc consts  --      2.8907                 3.1306                 3.8359
 IR Inten    --      3.4053                18.5934                34.6391

                     58                     59                     60
                      A                      A                      A
 Frequencies --   1381.3739              1390.6751              1416.3376
 Red. masses --      1.8849                 2.1434                 1.5591
 Frc consts  --      2.1192                 2.4423                 1.8427
 IR Inten    --      6.3647                22.5781                11.1050

                     61                     62                     63
                      A                      A                      A
 Frequencies --   1418.6093              1422.0001              1425.9642
 Red. masses --      1.7788                 2.2284                 1.2593
 Frc consts  --      2.1091                 2.6549                 1.5087
 IR Inten    --     11.8041                 9.9366                 5.3710

                     64                     65                     66
                      A                      A                      A
 Frequencies --   1429.8256              1438.6584              1459.7765
 Red. masses --      1.2978                 1.4617                 2.2682
 Frc consts  --      1.5633                 1.7825                 2.8477
 IR Inten    --      7.9639                 3.5639                77.5171

                     67                     68                     69
                      A                      A                      A
 Frequencies --   1461.5787              1507.5403              1507.8232
 Red. masses --      1.5413                 1.0506                 1.0692
 Frc consts  --      1.9399                 1.4068                 1.4322
 IR Inten    --     29.2953                 1.3222                 9.0338

                     70                     71                     72
                      A                      A                      A
 Frequencies --   1508.1119              1510.1307              1510.7843
 Red. masses --      1.0590                 1.0726                 1.0452
 Frc consts  --      1.4191                 1.4412                 1.4055
 IR Inten    --      4.0895                11.0845                 0.7436

                     73                     74                     75
                      A                      A                      A
 Frequencies --   1513.3630              1516.3223              1526.3288
 Red. masses --      1.0557                 1.0458                 1.0768
 Frc consts  --      1.4245                 1.4167                 1.4781
 IR Inten    --      5.1931                 0.5108                 2.7616

                     76                     77                     78
                      A                      A                      A
 Frequencies --   1530.4058              1534.4235              1537.4116
 Red. masses --      1.0556                 1.0811                 1.0582
 Frc consts  --      1.4567                 1.4997                 1.4737
 IR Inten    --      3.9162                 0.8713                 2.0380

                     79                     80                     81
                      A                      A                      A
 Frequencies --   1546.3216              1548.8241              1611.4339
 Red. masses --      1.0864                 1.0792                 8.2986
 Frc consts  --      1.5306                 1.5254                12.6964
 IR Inten    --      6.6737                 7.9603               160.2761

                     82                     83                     84
                      A                      A                      A
 Frequencies --   1632.8641              3004.4503              3049.9749
 Red. masses --      9.2959                 1.0696                 1.0353
 Frc consts  --     14.6030                 5.6888                 5.6744
 IR Inten    --    146.6260                59.2653                19.6595

                     85                     86                     87
                      A                      A                      A
 Frequencies --   3054.5450              3056.5471              3061.2134
 Red. masses --      1.0373                 1.0337                 1.0389
 Frc consts  --      5.7020                 5.6900                 5.7363
 IR Inten    --     15.1211                18.7187                18.3177

                     88                     89                     90
                      A                      A                      A
 Frequencies --   3061.6308              3063.8264              3066.8028
 Red. masses --      1.0383                 1.0349                 1.0919
 Frc consts  --      5.7344                 5.7239                 6.0507
 IR Inten    --     31.2889                15.2068                44.8014

                     91                     92                     93
                      A                      A                      A
 Frequencies --   3117.1885              3117.9595              3118.8845
 Red. masses --      1.1026                 1.0989                 1.1018
 Frc consts  --      6.3123                 6.2944                 6.3144
 IR Inten    --      4.8149                10.9531                18.4011

                     94                     95                     96
                      A                      A                      A
 Frequencies --   3126.3780              3127.1337              3130.1867
 Red. masses --      1.1012                 1.1027                 1.1031
 Frc consts  --      6.3414                 6.3534                 6.3682
 IR Inten    --     63.8224                18.7987                24.2258

                     97                     98                     99
                      A                      A                      A
 Frequencies --   3135.8081              3139.7660              3140.5116
 Red. masses --      1.1039                 1.1034                 1.0991
 Frc consts  --      6.3956                 6.4087                 6.3871
 IR Inten    --      2.5871                28.6516                35.9457

                    100                    101                    102
                      A                      A                      A
 Frequencies --   3145.3016              3154.3467              3170.1194
 Red. masses --      1.1032                 1.1002                 1.1020
 Frc consts  --      6.4303                 6.4499                 6.5251
 IR Inten    --     19.9604                20.0028                 9.0165

 - Thermochemistry -
 -------------------
 Temperature   298.150 Kelvin.  Pressure   1.00000 Atm.
 Atom     1 has atomic number  6 and mass  12.00000

 Molecular mass:   220.15756 amu.
 Principal axes and moments of inertia in atomic units:
                           1         2         3
     Eigenvalues --  2351.381284133.970045672.15938
           X            0.99974  -0.02263   0.00160
           Y            0.02262   0.99974   0.00412
           Z           -0.00169  -0.00408   0.99999
 This molecule is an asymmetric top.
 Rotational symmetry number  1.
 Warning -- assumption of classical behavior for rotation
           may cause significant error
 Rotational temperatures (Kelvin)      0.03684     0.02095     0.01527
 Rotational constants (GHZ):           0.76752     0.43656     0.31818
 Zero-point vibrational energy     822877.2 (Joules/Mol)
                                  196.67237 (Kcal/Mol)
 Warning -- explicit consideration of  26 degrees of freedom as
           vibrations may cause significant error
 Vibrational temperatures:     23.18    43.24    61.22   143.79   172.50
          (Kelvin)            216.33   241.54   294.25   308.40   329.71
                              361.48   376.94   380.44   399.62   401.49
                              429.13   439.87   489.10   510.65   552.89
                              571.73   588.49   619.21   717.52   786.62
                              819.06   899.67   926.35   961.70  1009.40
                             1152.47  1159.12  1181.03  1240.71  1300.34
                             1361.06  1363.15  1372.75  1390.91  1405.37
                             1414.98  1477.34  1492.06  1502.17  1524.30
                             1529.39  1548.05  1549.73  1673.87  1720.12
                             1745.88  1773.36  1788.17  1790.64  1805.22
                             1829.97  1858.15  1987.49  2000.87  2037.79
                             2041.06  2045.94  2051.64  2057.20  2069.91
                             2100.29  2102.89  2169.01  2169.42  2169.84
                             2172.74  2173.68  2177.39  2181.65  2196.05
                             2201.91  2207.69  2211.99  2224.81  2228.41
                             2318.49  2349.33  4322.73  4388.23  4394.81
                             4397.69  4404.40  4405.00  4408.16  4412.45
                             4484.94  4486.05  4487.38  4498.16  4499.25
                             4503.64  4511.73  4517.42  4518.50  4525.39
                             4538.40  4561.09

 Zero-point correction=                           0.313417 (Hartree/Particle)
 Thermal correction to Energy=                    0.330470
 Thermal correction to Enthalpy=                  0.331414
 Thermal correction to Gibbs Free Energy=         0.268192
 Sum of electronic and zero-point Energies=           -691.927893
 Sum of electronic and thermal Energies=              -691.910840
 Sum of electronic and thermal Enthalpies=            -691.909896
 Sum of electronic and thermal Free Energies=         -691.973118

                     E (Thermal)             CV                S
                      KCal/Mol        Cal/Mol-Kelvin    Cal/Mol-Kelvin
 Total                  207.373             64.529            133.062
 Electronic               0.000              0.000              0.000
 Translational            0.889              2.981             42.070
 Rotational               0.889              2.981             32.378
 Vibrational            205.596             58.568             58.614
 Vibration     1          0.593              1.986              7.064
 Vibration     2          0.594              1.984              5.826
 Vibration     3          0.595              1.980              5.137
 Vibration     4          0.604              1.949              3.455
 Vibration     5          0.609              1.933              3.102
 Vibration     6          0.618              1.902              2.668
 Vibration     7          0.625              1.882              2.459
 Vibration     8          0.640              1.833              2.092
 Vibration     9          0.644              1.819              2.006
 Vibration    10          0.652              1.796              1.885
 Vibration    11          0.663              1.761              1.722
 Vibration    12          0.669              1.742              1.648
 Vibration    13          0.671              1.738              1.632
 Vibration    14          0.679              1.715              1.547
 Vibration    15          0.679              1.712              1.539
 Vibration    16          0.691              1.677              1.427
 Vibration    17          0.696              1.663              1.385
 Vibration    18          0.720              1.596              1.212
 Vibration    19          0.731              1.565              1.144
 Vibration    20          0.753              1.504              1.022
 Vibration    21          0.764              1.476              0.972
 Vibration    22          0.773              1.451              0.930
 Vibration    23          0.792              1.404              0.857
 Vibration    24          0.854              1.253              0.661
 Vibration    25          0.902              1.147              0.551
 Vibration    26          0.925              1.098              0.506

                           ! Non-Optimized Parameters !
 Normal termination of Gaussian 16 at Fri Dec 11 01:54:22 2020.

 ----------------------------------------------------------------------
 # B3LYP/6-311++G(d,p) empiricaldispersion=gd3bj scf=xqc pop=npa geom=c
 heck
 ----------------------------------------------------------------------

 --------------------------------------
 CID_59634387_JID_6930_Energie_neutraal
 --------------------------------------
 Structure from the checkpoint file:  "JID_6930.chk"
 Charge =  0 Multiplicity = 1

 SCF Done:  E(RB3LYP) =  -692.425091864     A.U. after   14 cycles
 Normal termination of Gaussian 16 at Fri Dec 11 02:01:10 2020.

 ----------------------------------------------------------------------
 # B3LYP/6-311++G(d,p) empiricaldispersion=gd3bj scf=xqc pop=npa geom=c
 heck
 ----------------------------------------------------------------------

 ------------------------------------
 CID_59634387_JID_6930_Energie_kation
 ------------------------------------
 Structure from the checkpoint file:  "JID_6930.chk"
 Charge =  1 Multiplicity = 2

 SCF Done:  E(UB3LYP) =  -692.106756700     A.U. after   32 cycles
 Normal termination of Gaussian 16 at Fri Dec 11 02:23:09 2020.
 Gaussian 16:  ES64L-G16RevA.03 25-Dec-2016

 ----------------------------------------------------------------------
 # B3LYP/6-311++G(d,p) empiricaldispersion=gd3bj scf=xqc pop=npa geom=c
 heck
 ----------------------------------------------------------------------

 -----------------------------------
 CID_59634387_JID_6930_Energie_anion
 -----------------------------------
 Structure from the checkpoint file:  "JID_6930.chk"
 Charge = -1 Multiplicity = 2

                         Standard orientation:
 ---------------------------------------------------------------------
 Center     Atomic      Atomic             Coordinates (Angstroms)
 Number     Number       Type             X           Y           Z
 ---------------------------------------------------------------------
      1          6           0        0.116637    3.659978   -0.021507
      2          6           0        0.026884    2.159060   -0.023266
      3          7           0       -1.209124    1.623352   -0.009518
      4          6           0       -1.229012    0.295456   -0.001076
      5          6           0       -0.099829   -0.518826   -0.019605
      6          6           0       -0.569135   -1.951622   -0.032292
      7          8           0       -1.977634   -1.887312    0.209815
      8          6           0       -2.483969   -0.546521    0.015894
      9          6           0       -3.219844   -0.454938   -1.326683
     10          6           0       -3.397482   -0.203411    1.189938
     11          6           0        1.142573    0.123787   -0.031141
     12          7           0        1.174776    1.470322   -0.027641
     13          6           0        2.486746   -0.605412    0.004611
     14          6           0        2.659687   -1.219073    1.412419
     15          6           0        2.527064   -1.722649   -1.057256
     16          6           0        3.645108    0.369033   -0.261095
     17          1           0        1.153806    3.977744   -0.138894
     18          1           0       -0.277754    4.061339    0.919441
     19          1           0       -0.494048    4.078435   -0.828286
     20          1           0       -0.371454   -2.435986   -1.000748
     21          1           0       -0.115461   -2.574064    0.748127
     22          1           0       -4.085610   -1.124526   -1.323842
     23          1           0       -3.559693    0.570613   -1.503438
     24          1           0       -2.557680   -0.746662   -2.148556
     25          1           0       -2.856034   -0.313387    2.134024
     26          1           0       -3.746847    0.829762    1.102487
     27          1           0       -4.261347   -0.875453    1.202456
     28          1           0        1.860477   -1.929185    1.648769
     29          1           0        3.614307   -1.754157    1.473586
     30          1           0        2.656587   -0.436742    2.178697
     31          1           0        2.328095   -1.323049   -2.057892
     32          1           0        3.521482   -2.182224   -1.069323
     33          1           0        1.804909   -2.518773   -0.857403
     34          1           0        3.554413    0.831816   -1.248668
     35          1           0        3.665865    1.174198    0.475999
     36          1           0        4.594934   -0.176082   -0.218598
 ---------------------------------------------------------------------

 SCF Done:  E(UB3LYP) =  -692.415839943     A.U. after   33 cycles
 SCF Done:  E(UB3LYP) =  -692.415839943     a.u. after    1 cycles

 The electronic state is 2-A.
 Alpha  occ. eigenvalues --  -19.00707 -14.16491 -14.16080 -10.11795 -10.10732
 Alpha  occ. eigenvalues --  -10.10387 -10.07229 -10.06837 -10.06672 -10.05402
 Alpha  occ. eigenvalues --  -10.05342 -10.04946 -10.04877 -10.04742 -10.04118
 Alpha  occ. eigenvalues --  -10.03689  -0.92571  -0.84288  -0.75351  -0.70245
 Alpha  occ. eigenvalues --   -0.67856  -0.66605  -0.61012  -0.58601  -0.57468
 Alpha  occ. eigenvalues --   -0.56773  -0.55456  -0.53491  -0.48288  -0.45251
 Alpha  occ. eigenvalues --   -0.42153  -0.40106  -0.36836  -0.35991  -0.35555
 Alpha  occ. eigenvalues --   -0.33110  -0.32816  -0.31676  -0.31459  -0.31330
 Alpha  occ. eigenvalues --   -0.30396  -0.29528  -0.28959  -0.28025  -0.27926
 Alpha  occ. eigenvalues --   -0.27768  -0.26473  -0.25571  -0.25237  -0.24808
 Alpha  occ. eigenvalues --   -0.24164  -0.22072  -0.21758  -0.21457  -0.21031
 Alpha  occ. eigenvalues --   -0.17193  -0.16168  -0.15085  -0.12510  -0.11261
 Alpha  occ. eigenvalues --    0.05214
 Alpha virt. eigenvalues --    0.07357   0.07729   0.08527   0.08934   0.09464
 Alpha virt. eigenvalues --    0.09989   0.10316   0.10865   0.11020   0.11614
 Alpha virt. eigenvalues --    0.11903   0.12167   0.12445   0.13087   0.13375

  Beta  occ. eigenvalues --  -19.00702 -14.16448 -14.15740 -10.11807 -10.10722
  Beta  occ. eigenvalues --  -10.10355 -10.07083 -10.06865 -10.06232 -10.05389
  Beta  occ. eigenvalues --  -10.05325 -10.04918 -10.04881 -10.04790 -10.04051
  Beta  occ. eigenvalues --  -10.03674  -0.92542  -0.83900  -0.74868  -0.70065
  Beta  occ. eigenvalues --   -0.67787  -0.66432  -0.60934  -0.58563  -0.57374
  Beta  occ. eigenvalues --   -0.56709  -0.55353  -0.52963  -0.48184  -0.45167
  Beta  occ. eigenvalues --   -0.42047  -0.39961  -0.36728  -0.35836  -0.35490
  Beta  occ. eigenvalues --   -0.33057  -0.32554  -0.31616  -0.31234  -0.31208
  Beta  occ. eigenvalues --   -0.30331  -0.29452  -0.28885  -0.27962  -0.27870
  Beta  occ. eigenvalues --   -0.27689  -0.26434  -0.25265  -0.25143  -0.24569
  Beta  occ. eigenvalues --   -0.24043  -0.21873  -0.21639  -0.21303  -0.20918
  Beta  occ. eigenvalues --   -0.16167  -0.15714  -0.14636  -0.11783  -0.11035
  Beta virt. eigenvalues --    0.07395   0.07914   0.08545   0.08987   0.09615
  Beta virt. eigenvalues --    0.09881   0.10469   0.10804   0.10967   0.11263
  Beta virt. eigenvalues --    0.11639   0.11957   0.12236   0.12640   0.12988

 Mulliken charges and spin densities:
               1          2
     1  C    0.223506  -0.405054
     2  C    0.183808  -0.125254
     3  N   -0.049864   0.214374
     4  C    0.205605  -0.578030
     5  C   -0.593316   0.675215
     6  C    0.879455  -1.364614
     7  O   -0.077302   0.013047
     8  C   -0.492944   0.892732
     9  C   -0.498578  -0.056773
    10  C   -0.409144  -0.175498
    11  C    0.814796  -1.205878
    12  N    0.066133   0.052575
    13  C   -2.168244   2.902500
    14  C   -0.605167  -0.040603
    15  C    1.001223  -1.685638
    16  C   -0.057198  -0.496493
    17  H    0.131589   0.005668
    18  H    0.143738  -0.002306
    19  H    0.051341   0.091157
    20  H   -0.104818   0.300903
    21  H    0.214327  -0.044875
    22  H    0.112180   0.036614
    23  H    0.122214   0.037393
    24  H    0.067819   0.065083
    25  H    0.088169   0.057759
    26  H    0.176022  -0.019699
    27  H    0.049960   0.097626
    28  H    0.033509   0.062678
    29  H    0.094929   0.051367
    30  H    0.113162   0.038591
    31  H   -0.123387   0.288549
    32  H   -0.570329   0.728201
    33  H   -0.111952   0.243151
    34  H    0.044988   0.107618
    35  H    0.090710   0.062959
    36  H   -0.046935   0.174952
 Sum of Mulliken charges =  -1.00000   1.00000

 Dipole moment (field-independent basis, Debye):
    X=             -3.1485    Y=              1.8207    Z=              2.5406  Tot=              4.4365
 Quadrupole moment (field-independent basis, Debye-Ang):
   XX=           -151.0572   YY=           -137.6908   ZZ=           -119.7790
   XY=              7.1326   XZ=              8.5376   YZ=             -6.0224

 Summary of Natural Population Analysis:

                                       Natural Population
                Natural  -----------------------------------------------
    Atom  No    Charge         Core      Valence    Rydberg      Total
 -----------------------------------------------------------------------
      C    1   -0.29913      0.99963     2.29434    0.00516     3.29913
      C    2    0.22101      0.99963     1.76272    0.01664     2.77899
      N    3   -0.22595      0.99963     2.71584    0.01048     3.72595
      C    4    0.14072      0.99942     1.84373    0.01613     2.85928
      C    5   -0.08312      0.99939     2.07549    0.00824     3.08312
      C    6   -0.00909      0.99956     1.99729    0.01224     3.00909
      O    7   -0.31085      0.99988     3.30237    0.00859     4.31085
      C    8    0.12184      0.99950     1.86325    0.01541     2.87816
      C    9   -0.28806      0.99961     2.28259    0.00585     3.28806
      C   10   -0.28564      0.99961     2.27996    0.00607     3.28564
      C   11    0.21139      0.99946     1.77390    0.01526     2.78861
      N   12   -0.26584      0.99965     2.75662    0.00957     3.76584
      C   13   -0.06365      0.99957     2.05324    0.01084     3.06365
      C   14   -0.27300      0.99963     2.26828    0.00510     3.27300
      C   15   -0.27933      0.99963     2.27226    0.00744     3.27933
      C   16   -0.28073      0.99964     2.27351    0.00759     3.28073
      H   17    0.10295      0.00000     0.39614    0.00091     0.39705
      H   18    0.10072      0.00000     0.39820    0.00108     0.39928
      H   19    0.10222      0.00000     0.39652    0.00126     0.39778
      H   20    0.08542      0.00000     0.41277    0.00181     0.41458
      H   21    0.08581      0.00000     0.41274    0.00145     0.41419
      H   22    0.09553      0.00000     0.40345    0.00102     0.40447
      H   23    0.10328      0.00000     0.39570    0.00101     0.39672
      H   24    0.10221      0.00000     0.39681    0.00098     0.39779
      H   25    0.10305      0.00000     0.39595    0.00100     0.39695
      H   26    0.10460      0.00000     0.39444    0.00097     0.39540
      H   27    0.09554      0.00000     0.40335    0.00110     0.40446
      H   28    0.09590      0.00000     0.40309    0.00100     0.40410
      H   29    0.09453      0.00000     0.40467    0.00080     0.40547
      H   30    0.09914      0.00000     0.40014    0.00071     0.40086
      H   31    0.10231      0.00000     0.39655    0.00113     0.39769
      H   32    0.09877      0.00000     0.39938    0.00185     0.40123
      H   33    0.09740      0.00000     0.40140    0.00119     0.40260
      H   34    0.10301      0.00000     0.39606    0.00092     0.39699
      H   35    0.10559      0.00000     0.39344    0.00097     0.39441
      H   36    0.09142      0.00000     0.40777    0.00081     0.40858
 =======================================================================
   * Total *    0.00000     15.99343    43.82396    0.18261    60.00000

 Normal termination of Gaussian 16 at Fri Dec 11 02:46:18 2020.
