 Gaussian 16, Revision A.03,

 -----------------------------------------------------------
 # opt freq B3LYP/6-31G(d) empiricaldispersion=gd3bj scf=xqc
 -----------------------------------------------------------

 ------------------------------
 CID_11788533_JID_2653_neutraal
 ------------------------------
 Symbolic Z-matrix:
 Charge =  0 Multiplicity = 1

 SCF Done:  E(RB3LYP) =  -542.402332753     A.U. after   15 cycles
 SCF Done:  E(RB3LYP) =  -542.404507762     A.U. after   12 cycles
 SCF Done:  E(RB3LYP) =  -542.403649483     A.U. after   12 cycles
 SCF Done:  E(RB3LYP) =  -542.405350405     A.U. after   12 cycles
 SCF Done:  E(RB3LYP) =  -542.405690037     A.U. after   12 cycles
 SCF Done:  E(RB3LYP) =  -542.405828268     A.U. after   10 cycles
 SCF Done:  E(RB3LYP) =  -542.405864104     A.U. after   10 cycles
 SCF Done:  E(RB3LYP) =  -542.405882848     A.U. after   10 cycles
 SCF Done:  E(RB3LYP) =  -542.405890323     A.U. after    9 cycles
 SCF Done:  E(RB3LYP) =  -542.405898427     A.U. after   10 cycles
 SCF Done:  E(RB3LYP) =  -542.405937590     A.U. after   10 cycles
 SCF Done:  E(RB3LYP) =  -542.405939258     A.U. after    9 cycles
 SCF Done:  E(RB3LYP) =  -542.405939403     A.U. after    9 cycles
 SCF Done:  E(RB3LYP) =  -542.405939502     A.U. after    7 cycles
 SCF Done:  E(RB3LYP) =  -542.405939512     A.U. after    6 cycles
 Optimization completed on the basis of negligible forces.
    -- Stationary point found.
 Normal termination of Gaussian 16 at Wed Dec  9 17:53:59 2020.

 --------------------------------------------------------------------
 #N Geom=AllCheck Guess=TCheck SCRF=Check GenChk RB3LYP/6-31G(d) Freq
 --------------------------------------------------------------------

 Structure from the checkpoint file:  "JID_2653.chk"
 ------------------------------
 CID_11788533_JID_2653_neutraal
 ------------------------------
 Charge =  0 Multiplicity = 1

 SCF Done:  E(RB3LYP) =  -542.405939512     A.U. after    1 cycles

  Exact polarizability: 149.537   7.416 103.150  -5.244  -8.562  93.264
 Approx polarizability: 182.613  21.584 154.671 -15.146 -25.067 139.495

                      1                      2                      3
                      A                      A                      A
 Frequencies --      7.0855                39.9661                71.0581
 Red. masses --      2.7177                 2.9405                 2.5186
 Frc consts  --      0.0001                 0.0028                 0.0075
 IR Inten    --      0.0200                 1.5284                 0.1126

                      4                      5                      6
                      A                      A                      A
 Frequencies --     82.0804                96.0693               120.5877
 Red. masses --      1.3822                 1.7510                 4.2861
 Frc consts  --      0.0055                 0.0095                 0.0367
 IR Inten    --      0.2625                 0.5077                 0.4631

                      7                      8                      9
                      A                      A                      A
 Frequencies --    132.5475               155.0452               201.0847
 Red. masses --      2.6167                 1.5651                 2.7427
 Frc consts  --      0.0271                 0.0222                 0.0653
 IR Inten    --      1.1763                 0.0809                 2.3991

                     10                     11                     12
                      A                      A                      A
 Frequencies --    219.8530               226.0361               250.6904
 Red. masses --      1.6068                 1.1709                 1.8078
 Frc consts  --      0.0458                 0.0352                 0.0669
 IR Inten    --      0.1737                 0.0724                 2.5601

                     13                     14                     15
                      A                      A                      A
 Frequencies --    274.1495               299.5588               309.7003
 Red. masses --      2.3319                 2.3583                 3.0370
 Frc consts  --      0.1033                 0.1247                 0.1716
 IR Inten    --      3.5161                 2.5375                 1.5987

                     16                     17                     18
                      A                      A                      A
 Frequencies --    374.3179               401.3969               466.0253
 Red. masses --      2.9020                 3.0675                 3.1714
 Frc consts  --      0.2396                 0.2912                 0.4058
 IR Inten    --      5.3881                 3.1524                 1.2050

                     19                     20                     21
                      A                      A                      A
 Frequencies --    469.1854               524.4625               583.1506
 Red. masses --      2.3492                 4.1586                 2.6749
 Frc consts  --      0.3047                 0.6739                 0.5359
 IR Inten    --      5.4637                 3.6012                 3.6646

                     22                     23                     24
                      A                      A                      A
 Frequencies --    715.5063               725.2946               769.8525
 Red. masses --      2.1033                 3.6505                 2.7436
 Frc consts  --      0.6344                 1.1314                 0.9581
 IR Inten    --      1.2021                 6.5264                 7.6659

                     25                     26                     27
                      A                      A                      A
 Frequencies --    812.4269               822.5316               857.8443
 Red. masses --      1.8911                 1.7129                 2.2307
 Frc consts  --      0.7354                 0.6828                 0.9672
 IR Inten    --      5.7588                 0.5277                 2.2899

                     28                     29                     30
                      A                      A                      A
 Frequencies --    890.5183               904.0008               936.6719
 Red. masses --      1.5364                 3.0218                 1.6916
 Frc consts  --      0.7179                 1.4550                 0.8744
 IR Inten    --     19.7488                 8.1819                14.8915

                     31                     32                     33
                      A                      A                      A
 Frequencies --    972.9549              1013.5439              1023.0063
 Red. masses --      1.4201                 3.4190                 1.2376
 Frc consts  --      0.7921                 2.0694                 0.7631
 IR Inten    --      2.6805                67.4550                 3.3636

                     34                     35                     36
                      A                      A                      A
 Frequencies --   1028.0200              1043.6748              1066.7206
 Red. masses --      2.0999                 1.3379                 2.1156
 Frc consts  --      1.3075                 0.8586                 1.4184
 IR Inten    --     13.3158                 6.6416                 0.3960

                     37                     38                     39
                      A                      A                      A
 Frequencies --   1109.3058              1120.9472              1153.6481
 Red. masses --      1.5717                 1.6978                 1.9442
 Frc consts  --      1.1395                 1.2569                 1.5246
 IR Inten    --     74.1703                 1.2529                36.7299

                     40                     41                     42
                      A                      A                      A
 Frequencies --   1169.3097              1200.9308              1219.8667
 Red. masses --      2.0106                 2.2654                 2.6909
 Frc consts  --      1.6197                 1.9250                 2.3593
 IR Inten    --     44.3428                 1.2522                13.4505

                     43                     44                     45
                      A                      A                      A
 Frequencies --   1290.7623              1309.4885              1332.2088
 Red. masses --      1.2759                 2.7002                 1.2144
 Frc consts  --      1.2524                 2.7280                 1.2698
 IR Inten    --      2.3924               407.5448                26.3747

                     46                     47                     48
                      A                      A                      A
 Frequencies --   1365.3449              1390.0808              1393.5640
 Red. masses --      1.3668                 1.4179                 1.5339
 Frc consts  --      1.5012                 1.6142                 1.7551
 IR Inten    --     32.4996                 5.8409                 5.5501

                     49                     50                     51
                      A                      A                      A
 Frequencies --   1421.4654              1434.5567              1440.3935
 Red. masses --      1.3247                 1.3936                 1.2922
 Frc consts  --      1.5771                 1.6898                 1.5796
 IR Inten    --     15.2945                14.5454                 3.2122

                     52                     53                     54
                      A                      A                      A
 Frequencies --   1443.4228              1447.5233              1453.0525
 Red. masses --      1.2239                 1.2715                 1.2644
 Frc consts  --      1.5024                 1.5697                 1.5729
 IR Inten    --      3.0271                26.3709                11.0711

                     55                     56                     57
                      A                      A                      A
 Frequencies --   1503.4956              1504.1510              1509.6391
 Red. masses --      1.0477                 1.0594                 1.0784
 Frc consts  --      1.3954                 1.4122                 1.4481
 IR Inten    --      2.3967                 0.8710                 4.4893

                     58                     59                     60
                      A                      A                      A
 Frequencies --   1518.1564              1521.6458              1529.9249
 Red. masses --      1.0865                 1.0440                 1.0440
 Frc consts  --      1.4754                 1.4243                 1.4397
 IR Inten    --      7.0453                 4.8862                15.1493

                     61                     62                     63
                      A                      A                      A
 Frequencies --   1531.8164              1533.4505              1535.9492
 Red. masses --      1.0434                 1.0655                 1.0414
 Frc consts  --      1.4425                 1.4761                 1.4475
 IR Inten    --      2.3887                12.6582                 2.8760

                     64                     65                     66
                      A                      A                      A
 Frequencies --   1548.1955              1716.2047              1777.3217
 Red. masses --      1.0772                 6.3482                10.0214
 Frc consts  --      1.5213                11.0165                18.6514
 IR Inten    --      2.3244                42.2315               317.0204

                     67                     68                     69
                      A                      A                      A
 Frequencies --   3032.7070              3037.3822              3039.6951
 Red. masses --      1.0408                 1.0650                 1.0429
 Frc consts  --      5.6401                 5.7888                 5.6774
 IR Inten    --      6.6866                 7.3782                54.7235

                     70                     71                     72
                      A                      A                      A
 Frequencies --   3045.7572              3057.0697              3059.1863
 Red. masses --      1.0395                 1.0760                 1.0476
 Frc consts  --      5.6818                 5.9250                 5.7766
 IR Inten    --     21.1310                39.6473                47.1564

                     73                     74                     75
                      A                      A                      A
 Frequencies --   3063.8934              3076.4669              3076.7064
 Red. masses --      1.0720                 1.0992                 1.0992
 Frc consts  --      5.9289                 6.1298                 6.1306
 IR Inten    --     19.2517                15.4244                16.9114

                     76                     77                     78
                      A                      A                      A
 Frequencies --   3083.4251              3106.0515              3115.9341
 Red. masses --      1.0989                 1.0983                 1.1009
 Frc consts  --      6.1558                 6.2430                 6.2975
 IR Inten    --     34.3240                26.2204                52.8187

                     79                     80                     81
                      A                      A                      A
 Frequencies --   3123.1415              3137.4598              3157.2339
 Red. masses --      1.1017                 1.1000                 1.0928
 Frc consts  --      6.3311                 6.3794                 6.4182
 IR Inten    --     28.9254                18.2222                12.8676

                     82                     83                     84
                      A                      A                      A
 Frequencies --   3173.8332              3193.3333              3217.3332
 Red. masses --      1.0977                 1.0887                 1.0931
 Frc consts  --      6.5146                 6.5408                 6.6667
 IR Inten    --     12.3671                 9.9255                 2.4508

 - Thermochemistry -
 -------------------
 Temperature   298.150 Kelvin.  Pressure   1.00000 Atm.
 Atom     1 has atomic number  6 and mass  12.00000

 Molecular mass:   170.13068 amu.
 Principal axes and moments of inertia in atomic units:
                           1         2         3
     Eigenvalues --  1058.017754034.307994260.72299
           X            1.00000   0.00205  -0.00195
           Y           -0.00195   0.99879   0.04921
           Z            0.00205  -0.04921   0.99879
 This molecule is an asymmetric top.
 Rotational symmetry number  1.
 Warning -- assumption of classical behavior for rotation
           may cause significant error
 Rotational temperatures (Kelvin)      0.08186     0.02147     0.02033
 Rotational constants (GHZ):           1.70578     0.44735     0.42358
 Zero-point vibrational energy     700467.7 (Joules/Mol)
                                  167.41579 (Kcal/Mol)
 Warning -- explicit consideration of  21 degrees of freedom as
           vibrations may cause significant error
 Vibrational temperatures:     10.19    57.50   102.24   118.10   138.22
          (Kelvin)            173.50   190.71   223.08   289.32   316.32
                              325.22   360.69   394.44   431.00   445.59
                              538.56   577.52   670.51   675.05   754.58
                              839.02  1029.45  1043.54  1107.65  1168.90
                             1183.44  1234.25  1281.26  1300.66  1347.66
                             1399.87  1458.26  1471.88  1479.09  1501.62
                             1534.77  1596.04  1612.79  1659.84  1682.38
                             1727.87  1755.12  1857.12  1884.06  1916.75
                             1964.43  2000.02  2005.03  2045.17  2064.01
                             2072.41  2076.76  2082.66  2090.62  2163.19
                             2164.14  2172.03  2184.29  2189.31  2201.22
                             2203.94  2206.29  2209.89  2227.51  2469.24
                             2557.17  4363.39  4370.12  4373.44  4382.17
                             4398.44  4401.49  4408.26  4426.35  4426.69
                             4436.36  4468.92  4483.13  4493.50  4514.10
                             4542.56  4566.44  4594.49  4629.02

 Zero-point correction=                           0.266794 (Hartree/Particle)
 Thermal correction to Energy=                    0.281741
 Thermal correction to Enthalpy=                  0.282685
 Thermal correction to Gibbs Free Energy=         0.222722
 Sum of electronic and zero-point Energies=           -542.139145
 Sum of electronic and thermal Energies=              -542.124199
 Sum of electronic and thermal Enthalpies=            -542.123255
 Sum of electronic and thermal Free Energies=         -542.183217

                     E (Thermal)             CV                S
                      KCal/Mol        Cal/Mol-Kelvin    Cal/Mol-Kelvin
 Total                  176.795             52.851            126.202
 Electronic               0.000              0.000              0.000
 Translational            0.889              2.981             41.302
 Rotational               0.889              2.981             31.276
 Vibrational            175.018             46.890             53.624
 Vibration     1          0.593              1.987              8.696
 Vibration     2          0.594              1.981              5.261
 Vibration     3          0.598              1.968              4.124
 Vibration     4          0.600              1.961              3.841
 Vibration     5          0.603              1.952              3.533
 Vibration     6          0.609              1.932              3.091
 Vibration     7          0.613              1.921              2.909
 Vibration     8          0.620              1.897              2.609
 Vibration     9          0.638              1.838              2.123
 Vibration    10          0.647              1.811              1.960
 Vibration    11          0.650              1.801              1.910
 Vibration    12          0.663              1.762              1.726
 Vibration    13          0.676              1.721              1.570
 Vibration    14          0.692              1.675              1.419
 Vibration    15          0.699              1.655              1.364
 Vibration    16          0.745              1.525              1.062
 Vibration    17          0.767              1.467              0.958
 Vibration    18          0.823              1.325              0.749
 Vibration    19          0.826              1.318              0.740
 Vibration    20          0.879              1.196              0.600
 Vibration    21          0.940              1.068              0.480

 Optimization completed on the basis of negligible forces.
    -- Stationary point found.
 Normal termination of Gaussian 16 at Wed Dec  9 18:01:27 2020.

 ----------------------------------------------------------------------
 # B3LYP/6-311++G(d,p) empiricaldispersion=gd3bj scf=xqc pop=npa geom=c
 heck
 ----------------------------------------------------------------------

 --------------------------------------
 CID_11788533_JID_2653_Energie_neutraal
 --------------------------------------
 Structure from the checkpoint file:  "JID_2653.chk"
 Charge =  0 Multiplicity = 1

 SCF Done:  E(RB3LYP) =  -542.562150586     A.U. after   14 cycles
 Normal termination of Gaussian 16 at Wed Dec  9 18:05:08 2020.

 ----------------------------------------------------------------------
 # B3LYP/6-311++G(d,p) empiricaldispersion=gd3bj scf=xqc pop=npa geom=c
 heck
 ----------------------------------------------------------------------

 ------------------------------------
 CID_11788533_JID_2653_Energie_kation
 ------------------------------------
 Structure from the checkpoint file:  "JID_2653.chk"
 Charge =  1 Multiplicity = 2

 SCF Done:  E(UB3LYP) =  -542.226105933     A.U. after   27 cycles
 Normal termination of Gaussian 16 at Wed Dec  9 18:14:59 2020.
 Gaussian 16:  ES64L-G16RevA.03 25-Dec-2016

 ----------------------------------------------------------------------
 # B3LYP/6-311++G(d,p) empiricaldispersion=gd3bj scf=xqc pop=npa geom=c
 heck
 ----------------------------------------------------------------------

 -----------------------------------
 CID_11788533_JID_2653_Energie_anion
 -----------------------------------
 Structure from the checkpoint file:  "JID_2653.chk"
 Charge = -1 Multiplicity = 2

                         Standard orientation:
 ---------------------------------------------------------------------
 Center     Atomic      Atomic             Coordinates (Angstroms)
 Number     Number       Type             X           Y           Z
 ---------------------------------------------------------------------
      1          6           0        3.514703   -1.396432   -0.785192
      2          6           0        2.109581   -0.804813   -0.937336
      3          6           0        1.427254   -0.608183    0.418526
      4          6           0        2.094064    0.387839    1.379876
      5          6           0        2.502759    1.755602    0.825761
      6          8           0       -0.011285   -0.370684    0.300887
      7          6           0       -0.519879    0.596138   -0.492821
      8          8           0        0.151113    1.384246   -1.137046
      9          6           0       -1.998201    0.651438   -0.527213
     10          6           0       -2.935810   -0.142661    0.026576
     11          6           0       -4.392031    0.178936   -0.199501
     12          6           0       -2.700834   -1.360665    0.877423
     13          1           0        4.190200   -0.706378   -0.267853
     14          1           0        3.950329   -1.609621   -1.766809
     15          1           0        3.497396   -2.335096   -0.217201
     16          1           0        2.147033    0.139809   -1.481027
     17          1           0        1.485097   -1.486512   -1.528226
     18          1           0        1.423064   -1.578126    0.928804
     19          1           0        1.416085    0.513763    2.233081
     20          1           0        2.985529   -0.115395    1.777750
     21          1           0        1.644483    2.317705    0.456355
     22          1           0        2.997316    2.339226    1.610607
     23          1           0        3.208252    1.655445   -0.005998
     24          1           0       -2.328188    1.493657   -1.129122
     25          1           0       -4.898463   -0.657782   -0.699172
     26          1           0       -4.907163    0.325521    0.759383
     27          1           0       -4.529126    1.077888   -0.806374
     28          1           0       -1.648526   -1.614891    0.969045
     29          1           0       -3.114631   -1.194914    1.881749
     30          1           0       -3.246951   -2.215985    0.457679
 ---------------------------------------------------------------------

 SCF Done:  E(UB3LYP) =  -542.551239390     A.U. after   33 cycles
 SCF Done:  E(UB3LYP) =  -542.551239390     a.u. after    1 cycles

 The electronic state is 2-A.
 Alpha  occ. eigenvalues --  -19.02694 -18.95856 -10.15171 -10.11622 -10.06025
 Alpha  occ. eigenvalues --  -10.05664 -10.05614 -10.05471 -10.05375 -10.04591
 Alpha  occ. eigenvalues --  -10.04344 -10.03437  -0.96289  -0.87668  -0.70272
 Alpha  occ. eigenvalues --   -0.68945  -0.64240  -0.60155  -0.57877  -0.56864
 Alpha  occ. eigenvalues --   -0.51779  -0.49270  -0.44309  -0.40084  -0.37555
 Alpha  occ. eigenvalues --   -0.35802  -0.34869  -0.34267  -0.32544  -0.31948
 Alpha  occ. eigenvalues --   -0.31223  -0.30241  -0.29987  -0.28263  -0.27430
 Alpha  occ. eigenvalues --   -0.26818  -0.26371  -0.26007  -0.25349  -0.23978
 Alpha  occ. eigenvalues --   -0.23445  -0.22331  -0.22200  -0.19956  -0.16969
 Alpha  occ. eigenvalues --   -0.13708  -0.13396   0.04923
 Alpha virt. eigenvalues --    0.06700   0.07408   0.08275   0.08675   0.09546
 Alpha virt. eigenvalues --    0.10126   0.10687   0.11145   0.11505   0.12084
 Alpha virt. eigenvalues --    0.12357   0.12652   0.13558   0.14089   0.14539

  Beta  occ. eigenvalues --  -19.02664 -18.95679 -10.15012 -10.11616 -10.06005
  Beta  occ. eigenvalues --  -10.05632 -10.05436 -10.05370 -10.05327 -10.04579
  Beta  occ. eigenvalues --  -10.04357 -10.03426  -0.96121  -0.87412  -0.70111
  Beta  occ. eigenvalues --   -0.68634  -0.64211  -0.59976  -0.57813  -0.56775
  Beta  occ. eigenvalues --   -0.51722  -0.49125  -0.43943  -0.39994  -0.37473
  Beta  occ. eigenvalues --   -0.35629  -0.34734  -0.34157  -0.32182  -0.31723
  Beta  occ. eigenvalues --   -0.31095  -0.30213  -0.29760  -0.28077  -0.27319
  Beta  occ. eigenvalues --   -0.26705  -0.26318  -0.25750  -0.25287  -0.23876
  Beta  occ. eigenvalues --   -0.23406  -0.22221  -0.22106  -0.19874  -0.16533
  Beta  occ. eigenvalues --   -0.13527  -0.12340
  Beta virt. eigenvalues --    0.07215   0.07608   0.08604   0.08974   0.09193
  Beta virt. eigenvalues --    0.09888   0.10404   0.11169   0.11293   0.11817
  Beta virt. eigenvalues --    0.12263   0.12540   0.12777   0.13761   0.14041

 Mulliken charges and spin densities:
               1          2
     1  C    0.997560  -1.616665
     2  C   -0.844991   0.785278
     3  C   -0.020022   0.110331
     4  C    0.415017  -0.674510
     5  C   -0.287638  -0.223295
     6  O    0.071819   0.006291
     7  C   -0.657504   0.440432
     8  O   -0.240523   0.051476
     9  C   -0.089219  -0.377102
    10  C    0.316098   0.472890
    11  C   -0.161580  -0.429429
    12  C   -0.170771  -0.519587
    13  H   -0.165668   0.306749
    14  H   -0.160344   0.292833
    15  H   -0.377198   0.519507
    16  H    0.229337  -0.026273
    17  H    0.043277   0.093170
    18  H   -0.087655   0.263815
    19  H    0.130120   0.008245
    20  H   -0.271265   0.433295
    21  H    0.133736   0.048353
    22  H   -0.005782   0.127483
    23  H    0.085979   0.035954
    24  H    0.137779   0.000974
    25  H   -0.171056   0.316019
    26  H    0.115148   0.003914
    27  H    0.080537   0.068220
    28  H   -0.024589   0.224133
    29  H    0.104979   0.004226
    30  H   -0.125579   0.253273
 Sum of Mulliken charges =  -1.00000   1.00000

 Dipole moment (field-independent basis, Debye):
    X=             -1.5621    Y=              2.6108    Z=              1.2157  Tot=              3.2763
 Quadrupole moment (field-independent basis, Debye-Ang):
   XX=           -143.4466   YY=           -109.6873   ZZ=            -98.5671
   XY=              0.7362   XZ=             -7.3832   YZ=              1.8696

 Summary of Natural Population Analysis:

                                       Natural Population
                Natural  -----------------------------------------------
    Atom  No    Charge         Core      Valence    Rydberg      Total
 -----------------------------------------------------------------------
      C    1   -0.28619      0.99966     2.28161    0.00492     3.28619
      C    2   -0.20982      0.99961     2.20091    0.00930     3.20982
      C    3    0.07113      0.99950     1.91412    0.01524     2.92887
      C    4   -0.20178      0.99961     2.19386    0.00831     3.20178
      C    5   -0.29148      0.99966     2.28543    0.00640     3.29148
      O    6   -0.29466      0.99986     3.28498    0.00981     4.29466
      C    7    0.41118      0.99964     1.56552    0.02366     2.58882
      O    8   -0.31119      0.99988     3.30627    0.00504     4.31119
      C    9   -0.16791      0.99942     2.15886    0.00963     3.16791
      C   10    0.08221      0.99954     1.90867    0.00958     2.91779
      C   11   -0.29874      0.99963     2.29400    0.00511     3.29874
      C   12   -0.30942      0.99962     2.30390    0.00591     3.30942
      H   13    0.09662      0.00000     0.40227    0.00111     0.40338
      H   14    0.09822      0.00000     0.40099    0.00079     0.40178
      H   15    0.09675      0.00000     0.40166    0.00159     0.40325
      H   16    0.11203      0.00000     0.38666    0.00130     0.38797
      H   17    0.09981      0.00000     0.39904    0.00115     0.40019
      H   18    0.09049      0.00000     0.40802    0.00149     0.40951
      H   19    0.09969      0.00000     0.39930    0.00101     0.40031
      H   20    0.09851      0.00000     0.40023    0.00126     0.40149
      H   21    0.11169      0.00000     0.38726    0.00104     0.38831
      H   22    0.09206      0.00000     0.40716    0.00078     0.40794
      H   23    0.09553      0.00000     0.40368    0.00079     0.40447
      H   24    0.09684      0.00000     0.40210    0.00106     0.40316
      H   25    0.10421      0.00000     0.39379    0.00200     0.39579
      H   26    0.09732      0.00000     0.40168    0.00101     0.40268
      H   27    0.09797      0.00000     0.40130    0.00073     0.40203
      H   28    0.11840      0.00000     0.38064    0.00096     0.38160
      H   29    0.09797      0.00000     0.40115    0.00088     0.40203
      H   30    0.10255      0.00000     0.39566    0.00179     0.39745
 =======================================================================
   * Total *    0.00000     11.99561    34.87071    0.13367    47.00000

 Normal termination of Gaussian 16 at Wed Dec  9 18:26:24 2020.
