 Gaussian 16, Revision A.03,

 -----------------------------------------------------------
 # opt freq B3LYP/6-31G(d) empiricaldispersion=gd3bj scf=xqc
 -----------------------------------------------------------

 ------------------------------
 CID_84015571_JID_5089_neutraal
 ------------------------------
 Symbolic Z-matrix:
 Charge =  0 Multiplicity = 1

 SCF Done:  E(RB3LYP) =  -670.163601077     A.U. after   14 cycles
 SCF Done:  E(RB3LYP) =  -670.167957881     A.U. after   12 cycles
 SCF Done:  E(RB3LYP) =  -670.168830381     A.U. after   12 cycles
 SCF Done:  E(RB3LYP) =  -670.168856439     A.U. after   12 cycles
 SCF Done:  E(RB3LYP) =  -670.169231674     A.U. after   11 cycles
 SCF Done:  E(RB3LYP) =  -670.169309432     A.U. after   11 cycles
 SCF Done:  E(RB3LYP) =  -670.169351416     A.U. after   11 cycles
 SCF Done:  E(RB3LYP) =  -670.169376721     A.U. after   10 cycles
 SCF Done:  E(RB3LYP) =  -670.169391568     A.U. after   11 cycles
 SCF Done:  E(RB3LYP) =  -670.169397765     A.U. after    9 cycles
 SCF Done:  E(RB3LYP) =  -670.169405284     A.U. after    8 cycles
 SCF Done:  E(RB3LYP) =  -670.169405428     A.U. after    7 cycles
 SCF Done:  E(RB3LYP) =  -670.169405515     A.U. after    7 cycles
 SCF Done:  E(RB3LYP) =  -670.169405573     A.U. after    7 cycles
 SCF Done:  E(RB3LYP) =  -670.169405612     A.U. after    7 cycles
 Optimization completed.
    -- Stationary point found.
 Normal termination of Gaussian 16 at Thu Dec 10 14:49:40 2020.

 --------------------------------------------------------------------
 #N Geom=AllCheck Guess=TCheck SCRF=Check GenChk RB3LYP/6-31G(d) Freq
 --------------------------------------------------------------------

 Structure from the checkpoint file:  "JID_5089.chk"
 ------------------------------
 CID_84015571_JID_5089_neutraal
 ------------------------------
 Charge =  0 Multiplicity = 1

 SCF Done:  E(RB3LYP) =  -670.169405612     A.U. after    1 cycles

  Exact polarizability: 146.357  -3.231 135.997 -14.178  -3.160 107.501
 Approx polarizability: 186.201  -4.712 209.891 -26.870  -7.600 170.550

                      1                      2                      3
                      A                      A                      A
 Frequencies --     21.5216                43.2824                62.5757
 Red. masses --      3.6581                 3.9997                 4.0354
 Frc consts  --      0.0010                 0.0044                 0.0093
 IR Inten    --      0.6309                 2.1495                 0.9448

                      4                      5                      6
                      A                      A                      A
 Frequencies --    105.1703               130.8608               157.7971
 Red. masses --      3.7305                 3.7168                 3.0420
 Frc consts  --      0.0243                 0.0375                 0.0446
 IR Inten    --      1.1419                 1.9429                 1.9071

                      7                      8                      9
                      A                      A                      A
 Frequencies --    184.0226               218.5472               246.8864
 Red. masses --      1.4099                 3.4656                 2.7879
 Frc consts  --      0.0281                 0.0975                 0.1001
 IR Inten    --      0.4052                13.2028                 0.4494

                     10                     11                     12
                      A                      A                      A
 Frequencies --    260.5008               293.7366               305.7820
 Red. masses --      2.4397                 2.5333                 2.5939
 Frc consts  --      0.0975                 0.1288                 0.1429
 IR Inten    --      7.6396                 0.1975                 0.8392

                     13                     14                     15
                      A                      A                      A
 Frequencies --    352.1959               366.6640               409.4986
 Red. masses --      2.3318                 1.9969                 2.0019
 Frc consts  --      0.1704                 0.1582                 0.1978
 IR Inten    --      6.7836                 8.0941                 9.7121

                     16                     17                     18
                      A                      A                      A
 Frequencies --    441.2413               454.0051               498.7506
 Red. masses --      1.5135                 2.3272                 2.5066
 Frc consts  --      0.1736                 0.2826                 0.3674
 IR Inten    --     72.3892                11.3002                10.7003

                     19                     20                     21
                      A                      A                      A
 Frequencies --    522.1189               571.9245               597.2911
 Red. masses --      2.6895                 3.8997                 3.5239
 Frc consts  --      0.4320                 0.7516                 0.7407
 IR Inten    --      3.3435                 1.8558                 5.2087

                     22                     23                     24
                      A                      A                      A
 Frequencies --    615.4938               628.3175               682.6607
 Red. masses --      2.3646                 2.3649                 1.3903
 Frc consts  --      0.5278                 0.5501                 0.3817
 IR Inten    --      6.3264                27.8186                45.7351

                     25                     26                     27
                      A                      A                      A
 Frequencies --    716.4112               744.4807               751.9828
 Red. masses --      2.7925                 4.7719                 3.3624
 Frc consts  --      0.8444                 1.5583                 1.1203
 IR Inten    --      0.0801                10.6294                 8.9601

                     28                     29                     30
                      A                      A                      A
 Frequencies --    798.1308               806.0399               832.7559
 Red. masses --      5.0738                 1.9707                 1.5242
 Frc consts  --      1.9043                 0.7544                 0.6228
 IR Inten    --      6.0461                75.1443                 1.3792

                     31                     32                     33
                      A                      A                      A
 Frequencies --    869.6872               887.7404               929.0908
 Red. masses --      2.2121                 2.3290                 2.2669
 Frc consts  --      0.9858                 1.0814                 1.1529
 IR Inten    --      3.5008                 0.8304                 4.5460

                     34                     35                     36
                      A                      A                      A
 Frequencies --    952.7240               980.7828              1019.6090
 Red. masses --      1.9348                 2.3442                 1.5808
 Frc consts  --      1.0347                 1.3286                 0.9683
 IR Inten    --      6.7154                 4.7290                 1.6446

                     37                     38                     39
                      A                      A                      A
 Frequencies --   1029.2621              1044.9212              1062.6349
 Red. masses --      1.7250                 1.7252                 2.0548
 Frc consts  --      1.0767                 1.1098                 1.3671
 IR Inten    --      2.0838                 1.8795                 1.3781

                     40                     41                     42
                      A                      A                      A
 Frequencies --   1073.8708              1081.6986              1083.2141
 Red. masses --      1.6955                 1.7064                 1.7195
 Frc consts  --      1.1520                 1.1764                 1.1887
 IR Inten    --      3.1669                 8.6708                 1.3787

                     43                     44                     45
                      A                      A                      A
 Frequencies --   1091.0656              1132.1145              1158.2219
 Red. masses --      1.4318                 1.7930                 2.7907
 Frc consts  --      1.0043                 1.3540                 2.2057
 IR Inten    --     32.7332                 5.0788                18.1354

                     46                     47                     48
                      A                      A                      A
 Frequencies --   1167.0636              1179.9756              1203.4296
 Red. masses --      2.4704                 3.4734                 1.2047
 Frc consts  --      1.9825                 2.8494                 1.0280
 IR Inten    --      7.2840                 3.3926                 3.9981

                     49                     50                     51
                      A                      A                      A
 Frequencies --   1217.8103              1249.4884              1263.9852
 Red. masses --      1.1886                 1.3692                 2.0587
 Frc consts  --      1.0386                 1.2595                 1.9379
 IR Inten    --      2.6883                 1.0057                27.6568

                     52                     53                     54
                      A                      A                      A
 Frequencies --   1298.7092              1313.1875              1333.1320
 Red. masses --      1.3946                 1.5586                 1.1989
 Frc consts  --      1.3858                 1.5836                 1.2554
 IR Inten    --      1.0637                 2.8507                 3.9864

                     55                     56                     57
                      A                      A                      A
 Frequencies --   1339.4722              1367.9498              1379.8166
 Red. masses --      1.6501                 1.3371                 1.7317
 Frc consts  --      1.7444                 1.4742                 1.9426
 IR Inten    --      2.1594                24.5233                13.7010

                     58                     59                     60
                      A                      A                      A
 Frequencies --   1384.1136              1395.9616              1406.4318
 Red. masses --      1.3536                 1.4642                 2.1072
 Frc consts  --      1.5279                 1.6811                 2.4559
 IR Inten    --     34.5062                 7.9064                21.5303

                     61                     62                     63
                      A                      A                      A
 Frequencies --   1409.8249              1422.8807              1429.7077
 Red. masses --      1.5456                 1.7683                 1.4565
 Frc consts  --      1.8100                 2.1093                 1.7541
 IR Inten    --      0.9364                55.2994                 8.8501

                     64                     65                     66
                      A                      A                      A
 Frequencies --   1447.2871              1454.0788              1457.7798
 Red. masses --      1.6433                 1.4895                 1.7309
 Frc consts  --      2.0280                 1.8555                 2.1672
 IR Inten    --     29.7587                 0.6746                54.7487

                     67                     68                     69
                      A                      A                      A
 Frequencies --   1500.1819              1502.7578              1508.2946
 Red. masses --      1.1531                 1.1062                 1.1477
 Frc consts  --      1.5290                 1.4718                 1.5383
 IR Inten    --      4.2880                 4.0855                 0.1032

                     70                     71                     72
                      A                      A                      A
 Frequencies --   1514.7939              1519.8682              1529.3713
 Red. masses --      1.0820                 1.0966                 1.1189
 Frc consts  --      1.4628                 1.4925                 1.5419
 IR Inten    --     26.9291                 2.0884                 9.7276

                     73                     74                     75
                      A                      A                      A
 Frequencies --   1534.3216              1537.3385              1544.9029
 Red. masses --      1.0968                 1.1038                 1.0987
 Frc consts  --      1.5212                 1.5370                 1.5451
 IR Inten    --      6.6566                 1.0285                 4.2222

                     76                     77                     78
                      A                      A                      A
 Frequencies --   1699.5225              1815.6396              2916.2941
 Red. masses --      6.0128                10.0350                 1.0743
 Frc consts  --     10.2324                19.4906                 5.3834
 IR Inten    --      2.7295               496.6647                31.2162

                     79                     80                     81
                      A                      A                      A
 Frequencies --   2922.7941              3032.1989              3039.8600
 Red. masses --      1.0728                 1.0738                 1.0588
 Frc consts  --      5.3998                 5.8169                 5.7649
 IR Inten    --    136.4068                10.9480                 7.8945

                     82                     83                     84
                      A                      A                      A
 Frequencies --   3043.0153              3046.2862              3057.6017
 Red. masses --      1.0548                 1.0601                 1.0691
 Frc consts  --      5.7550                 5.7960                 5.8890
 IR Inten    --     24.0430                43.2855                62.3865

                     85                     86                     87
                      A                      A                      A
 Frequencies --   3060.4167              3072.5294              3080.3530
 Red. masses --      1.0689                 1.0872                 1.0878
 Frc consts  --      5.8988                 6.0473                 6.0816
 IR Inten    --     25.1817                66.0071                46.7356

                     88                     89                     90
                      A                      A                      A
 Frequencies --   3084.6477              3085.1329              3091.7762
 Red. masses --      1.1006                 1.0986                 1.1007
 Frc consts  --      6.1703                 6.1607                 6.1992
 IR Inten    --     37.2650                52.8014                26.8598

                     91                     92                     93
                      A                      A                      A
 Frequencies --   3122.5412              3134.2354              3138.7961
 Red. masses --      1.0970                 1.0989                 1.0951
 Frc consts  --      6.3020                 6.3602                 6.3564
 IR Inten    --      5.3514                21.5055                 5.8426

                     94                     95                     96
                      A                      A                      A
 Frequencies --   3299.0951              3495.8402              3691.6031
 Red. masses --      1.0986                 1.0745                 1.0805
 Frc consts  --      7.0452                 7.7368                 8.6759
 IR Inten    --      1.6295                 3.8805                80.0921

 - Thermochemistry -
 -------------------
 Temperature   298.150 Kelvin.  Pressure   1.00000 Atm.
 Atom     1 has atomic number  6 and mass  12.00000

 Molecular mass:   209.15281 amu.
 Principal axes and moments of inertia in atomic units:
                           1         2         3
     Eigenvalues --  1591.988065003.016015811.21051
           X            0.99991  -0.01329  -0.00342
           Y            0.01326   0.99988  -0.00829
           Z            0.00353   0.00824   0.99996
 This molecule is an asymmetric top.
 Rotational symmetry number  1.
 Warning -- assumption of classical behavior for rotation
           may cause significant error
 Rotational temperatures (Kelvin)      0.05441     0.01731     0.01490
 Rotational constants (GHZ):           1.13364     0.36073     0.31056
 Zero-point vibrational energy     795285.7 (Joules/Mol)
                                  190.07784 (Kcal/Mol)
 Warning -- explicit consideration of  22 degrees of freedom as
           vibrations may cause significant error
 Vibrational temperatures:     30.96    62.27    90.03   151.32   188.28
          (Kelvin)            227.03   264.77   314.44   355.21   374.80
                              422.62   439.95   506.73   527.55   589.18
                              634.85   653.21   717.59   751.21   822.87
                              859.37   885.56   904.01   982.20  1030.76
                             1071.14  1081.94  1148.33  1159.71  1198.15
                             1251.29  1277.26  1336.75  1370.76  1411.13
                             1466.99  1480.88  1503.41  1528.89  1545.06
                             1556.32  1558.50  1569.80  1628.86  1666.42
                             1679.14  1697.72  1731.47  1752.16  1797.74
                             1818.59  1868.55  1889.38  1918.08  1927.20
                             1968.17  1985.25  1991.43  2008.48  2023.54
                             2028.42  2047.21  2057.03  2082.32  2092.10
                             2097.42  2158.43  2162.13  2170.10  2179.45
                             2186.75  2200.42  2207.55  2211.89  2222.77
                             2445.23  2612.30  4195.90  4205.25  4362.66
                             4373.68  4378.22  4382.93  4399.21  4403.26
                             4420.68  4431.94  4438.12  4438.82  4448.38
                             4492.64  4509.47  4516.03  4746.66  5029.73
                             5311.39

 Zero-point correction=                           0.302908 (Hartree/Particle)
 Thermal correction to Energy=                    0.317275
 Thermal correction to Enthalpy=                  0.318219
 Thermal correction to Gibbs Free Energy=         0.260741
 Sum of electronic and zero-point Energies=           -669.866497
 Sum of electronic and thermal Energies=              -669.852131
 Sum of electronic and thermal Enthalpies=            -669.851187
 Sum of electronic and thermal Free Energies=         -669.908665

                     E (Thermal)             CV                S
                      KCal/Mol        Cal/Mol-Kelvin    Cal/Mol-Kelvin
 Total                  199.093             55.985            120.973
 Electronic               0.000              0.000              0.000
 Translational            0.889              2.981             41.918
 Rotational               0.889              2.981             32.204
 Vibrational            197.315             50.024             46.852
 Vibration     1          0.593              1.985              6.489
 Vibration     2          0.595              1.980              5.103
 Vibration     3          0.597              1.972              4.374
 Vibration     4          0.605              1.945              3.356
 Vibration     5          0.612              1.922              2.933
 Vibration     6          0.621              1.894              2.576
 Vibration     7          0.631              1.862              2.287
 Vibration     8          0.646              1.813              1.971
 Vibration     9          0.661              1.768              1.753
 Vibration    10          0.669              1.745              1.658
 Vibration    11          0.689              1.685              1.452
 Vibration    12          0.696              1.663              1.385
 Vibration    13          0.729              1.571              1.156
 Vibration    14          0.740              1.541              1.094
 Vibration    15          0.774              1.450              0.928
 Vibration    16          0.801              1.380              0.823
 Vibration    17          0.812              1.352              0.784
 Vibration    18          0.854              1.253              0.661
 Vibration    19          0.877              1.201              0.605
 Vibration    20          0.928              1.092              0.501
 Vibration    21          0.955              1.038              0.454
 Vibration    22          0.975              0.999              0.424

                           ! Non-Optimized Parameters !
 Normal termination of Gaussian 16 at Thu Dec 10 15:00:43 2020.

 ----------------------------------------------------------------------
 # B3LYP/6-311++G(d,p) empiricaldispersion=gd3bj scf=xqc pop=npa geom=c
 heck
 ----------------------------------------------------------------------

 --------------------------------------
 CID_84015571_JID_5089_Energie_neutraal
 --------------------------------------
 Structure from the checkpoint file:  "JID_5089.chk"
 Charge =  0 Multiplicity = 1

 SCF Done:  E(RB3LYP) =  -670.361900688     A.U. after   14 cycles
 Normal termination of Gaussian 16 at Thu Dec 10 15:06:10 2020.

 ----------------------------------------------------------------------
 # B3LYP/6-311++G(d,p) empiricaldispersion=gd3bj scf=xqc pop=npa geom=c
 heck
 ----------------------------------------------------------------------

 ------------------------------------
 CID_84015571_JID_5089_Energie_kation
 ------------------------------------
 Structure from the checkpoint file:  "JID_5089.chk"
 Charge =  1 Multiplicity = 2

 SCF Done:  E(UB3LYP) =  -670.094163591     A.U. after   23 cycles
 Normal termination of Gaussian 16 at Thu Dec 10 15:20:41 2020.
 Gaussian 16:  ES64L-G16RevA.03 25-Dec-2016

 ----------------------------------------------------------------------
 # B3LYP/6-311++G(d,p) empiricaldispersion=gd3bj scf=xqc pop=npa geom=c
 heck
 ----------------------------------------------------------------------

 -----------------------------------
 CID_84015571_JID_5089_Energie_anion
 -----------------------------------
 Structure from the checkpoint file:  "JID_5089.chk"
 Charge = -1 Multiplicity = 2

                         Standard orientation:
 ---------------------------------------------------------------------
 Center     Atomic      Atomic             Coordinates (Angstroms)
 Number     Number       Type             X           Y           Z
 ---------------------------------------------------------------------
      1          6           0       -2.550320    2.348785   -0.273956
      2          6           0       -2.588431    0.896566    0.056882
      3          6           0       -3.421287    0.218979    0.881724
      4          7           0       -3.058893   -1.128359    0.834220
      5          6           0       -1.997130   -1.324773   -0.031572
      6          8           0       -1.437344   -2.378324   -0.322838
      7          7           0       -1.710498   -0.044615   -0.504281
      8          6           0       -0.622856    0.194807   -1.438413
      9          6           0        0.587256    0.918916   -0.830428
     10          6           0        1.133922    0.302998    0.470121
     11          6           0        2.264788    1.170244    1.060668
     12          6           0        3.568418    1.035565    0.266715
     13          7           0        3.966461   -0.371031    0.215841
     14          6           0        2.965119   -1.199372   -0.461068
     15          6           0        1.645929   -1.143671    0.311644
     16          1           0       -1.631483    2.832771    0.078451
     17          1           0       -3.397326    2.855245    0.197384
     18          1           0       -2.616410    2.521628   -1.355496
     19          1           0       -4.236076    0.578227    1.489885
     20          1           0       -3.492177   -1.893405    1.325008
     21          1           0       -0.339696   -0.794342   -1.804955
     22          1           0       -1.004187    0.766625   -2.292947
     23          1           0        1.362263    0.950047   -1.605554
     24          1           0        0.322725    1.965551   -0.631706
     25          1           0        0.304615    0.291580    1.189714
     26          1           0        1.961631    2.224980    1.099485
     27          1           0        2.460509    0.845749    2.089797
     28          1           0        3.436234    1.478014   -0.740906
     29          1           0        4.364631    1.604413    0.760949
     30          1           0        4.860979   -0.454924   -0.262014
     31          1           0        3.333417   -2.230916   -0.491910
     32          1           0        2.798503   -0.887330   -1.511795
     33          1           0        1.827847   -1.553098    1.313011
     34          1           0        0.890830   -1.780448   -0.158059
 ---------------------------------------------------------------------

 SCF Done:  E(UB3LYP) =  -670.350754014     A.U. after   33 cycles
 SCF Done:  E(UB3LYP) =  -670.350754014     a.u. after    1 cycles

 The electronic state is 2-A.
 Alpha  occ. eigenvalues --  -18.98242 -14.25759 -14.25639 -14.20293 -10.19123
 Alpha  occ. eigenvalues --  -10.11425 -10.11308 -10.10123 -10.09580 -10.09527
 Alpha  occ. eigenvalues --  -10.08012 -10.07577 -10.07360 -10.06829 -10.05965
 Alpha  occ. eigenvalues --   -0.95836  -0.88468  -0.81862  -0.81580  -0.71567
 Alpha  occ. eigenvalues --   -0.68475  -0.65614  -0.64974  -0.60127  -0.57322
 Alpha  occ. eigenvalues --   -0.52840  -0.52557  -0.51378  -0.47932  -0.43525
 Alpha  occ. eigenvalues --   -0.42547  -0.41922  -0.39632  -0.38447  -0.36373
 Alpha  occ. eigenvalues --   -0.35887  -0.35273  -0.33818  -0.33273  -0.32397
 Alpha  occ. eigenvalues --   -0.32281  -0.31897  -0.31658  -0.29864  -0.29557
 Alpha  occ. eigenvalues --   -0.28869  -0.28292  -0.25741  -0.25088  -0.23251
 Alpha  occ. eigenvalues --   -0.22523  -0.21480  -0.21267  -0.19130  -0.17419
 Alpha  occ. eigenvalues --   -0.13493  -0.10174   0.03991
 Alpha virt. eigenvalues --    0.05512   0.06445   0.07423   0.07970   0.08444
 Alpha virt. eigenvalues --    0.09045   0.09668   0.10480   0.10768   0.10913
 Alpha virt. eigenvalues --    0.11681   0.11747   0.12692   0.13125   0.13645

  Beta  occ. eigenvalues --  -18.98240 -14.25754 -14.25624 -14.20278 -10.19123
  Beta  occ. eigenvalues --  -10.11413 -10.11308 -10.10095 -10.09563 -10.09517
  Beta  occ. eigenvalues --  -10.07962 -10.07575 -10.07343 -10.06821 -10.05963
  Beta  occ. eigenvalues --   -0.95827  -0.88460  -0.81839  -0.81557  -0.71547
  Beta  occ. eigenvalues --   -0.68444  -0.65588  -0.64944  -0.60064  -0.57289
  Beta  occ. eigenvalues --   -0.52804  -0.52531  -0.51336  -0.47896  -0.43488
  Beta  occ. eigenvalues --   -0.42501  -0.41877  -0.39604  -0.38412  -0.36353
  Beta  occ. eigenvalues --   -0.35856  -0.35240  -0.33786  -0.33233  -0.32368
  Beta  occ. eigenvalues --   -0.32246  -0.31867  -0.31630  -0.29842  -0.29518
  Beta  occ. eigenvalues --   -0.28841  -0.28271  -0.25719  -0.25069  -0.23235
  Beta  occ. eigenvalues --   -0.22508  -0.21461  -0.21249  -0.19113  -0.17413
  Beta  occ. eigenvalues --   -0.13460  -0.10156
  Beta virt. eigenvalues --    0.06075   0.06805   0.07320   0.07745   0.08485
  Beta virt. eigenvalues --    0.08896   0.09540   0.10187   0.10646   0.10971
  Beta virt. eigenvalues --    0.11366   0.11773   0.11960   0.12887   0.13530

 Mulliken charges and spin densities:
               1          2
     1  C    3.260159  -3.945999
     2  C   -2.234464   2.413814
     3  C    0.617897  -0.872727
     4  N   -0.232057   0.003133
     5  C    0.249367  -0.099818
     6  O   -0.394833  -0.000244
     7  N    0.076653   0.045198
     8  C    0.057528  -0.726166
     9  C   -0.243785   0.107569
    10  C    0.410517  -0.025984
    11  C   -0.832439   0.425536
    12  C    0.460792  -0.842263
    13  N   -0.256704   0.138231
    14  C   -0.202363  -0.335392
    15  C   -0.013300  -0.370472
    16  H   -0.237266   0.389012
    17  H   -0.457905   0.633484
    18  H   -0.194257   0.361401
    19  H   -1.240538   1.422796
    20  H    0.050939   0.290733
    21  H    0.286756  -0.091980
    22  H   -0.286199   0.476987
    23  H    0.055929   0.061940
    24  H    0.172725  -0.021415
    25  H    0.141019   0.085186
    26  H   -0.093939   0.235272
    27  H    0.115250   0.038221
    28  H   -0.240403   0.364416
    29  H   -0.162101   0.341606
    30  H   -0.011133   0.249236
    31  H    0.131635   0.037341
    32  H   -0.105594   0.237416
    33  H    0.111749   0.045061
    34  H    0.240366  -0.071128
 Sum of Mulliken charges =  -1.00000   1.00000

 Dipole moment (field-independent basis, Debye):
    X=              3.6630    Y=             -2.9057    Z=             -1.0859  Tot=              4.8000
 Quadrupole moment (field-independent basis, Debye-Ang):
   XX=           -180.7717   YY=           -143.9363   ZZ=           -125.3970
   XY=              7.2483   XZ=              7.0562   YZ=             -0.4668

 Summary of Natural Population Analysis:

                                       Natural Population
                Natural  -----------------------------------------------
    Atom  No    Charge         Core      Valence    Rydberg      Total
 -----------------------------------------------------------------------
      C    1   -0.30015      0.99963     2.29499    0.00552     3.30015
      C    2    0.06972      0.99952     1.91824    0.01253     2.93028
      C    3   -0.03213      0.99947     2.02029    0.01237     3.03213
      N    4   -0.30310      0.99968     2.79386    0.00956     3.80310
      C    5    0.38992      0.99967     1.58673    0.02368     2.61008
      O    6   -0.34972      0.99988     3.34498    0.00486     4.34972
      N    7   -0.24331      0.99961     2.73297    0.01074     3.74331
      C    8   -0.08554      0.99961     2.07509    0.01083     3.08554
      C    9   -0.19652      0.99960     2.18726    0.00966     3.19652
      C   10   -0.11289      0.99959     2.10351    0.00979     3.11289
      C   11   -0.19061      0.99961     2.18154    0.00945     3.19061
      C   12   -0.08823      0.99962     2.07749    0.01111     3.08823
      N   13   -0.34257      0.99974     2.83102    0.01180     3.84257
      C   14   -0.08845      0.99962     2.07797    0.01086     3.08845
      C   15   -0.20198      0.99960     2.19438    0.00799     3.20198
      H   16    0.10612      0.00000     0.39205    0.00183     0.39388
      H   17    0.11314      0.00000     0.38519    0.00167     0.38686
      H   18    0.10548      0.00000     0.39293    0.00159     0.39452
      H   19    0.10890      0.00000     0.38745    0.00365     0.39110
      H   20    0.20497      0.00000     0.29313    0.00190     0.29503
      H   21    0.11170      0.00000     0.38702    0.00128     0.38830
      H   22    0.09874      0.00000     0.40034    0.00092     0.40126
      H   23    0.09992      0.00000     0.39847    0.00160     0.40008
      H   24    0.09920      0.00000     0.39912    0.00168     0.40080
      H   25    0.10115      0.00000     0.39690    0.00195     0.39885
      H   26    0.09967      0.00000     0.39935    0.00098     0.40033
      H   27    0.09842      0.00000     0.40036    0.00122     0.40158
      H   28    0.07724      0.00000     0.42108    0.00168     0.42276
      H   29    0.09423      0.00000     0.40465    0.00112     0.40577
      H   30    0.17296      0.00000     0.32433    0.00271     0.32704
      H   31    0.09375      0.00000     0.40540    0.00085     0.40625
      H   32    0.07581      0.00000     0.42279    0.00140     0.42419
      H   33    0.09825      0.00000     0.40062    0.00113     0.40175
      H   34    0.11588      0.00000     0.38294    0.00118     0.38412
 =======================================================================
   * Total *    0.00000     14.99446    41.81443    0.19111    57.00000

 Normal termination of Gaussian 16 at Thu Dec 10 15:43:16 2020.
