 Gaussian 16, Revision A.03,

 -----------------------------------------------------------
 # opt freq B3LYP/6-31G(d) empiricaldispersion=gd3bj scf=xqc
 -----------------------------------------------------------

 ------------------------------
 CID_43777460_JID_5764_neutraal
 ------------------------------
 Symbolic Z-matrix:
 Charge =  0 Multiplicity = 1

 SCF Done:  E(RB3LYP) =  -654.081338314     A.U. after   14 cycles
 SCF Done:  E(RB3LYP) =  -654.083451753     A.U. after   13 cycles
 SCF Done:  E(RB3LYP) =  -654.082147659     A.U. after   13 cycles
 SCF Done:  E(RB3LYP) =  -654.083603648     A.U. after   13 cycles
 SCF Done:  E(RB3LYP) =  -654.085588073     A.U. after   10 cycles
 SCF Done:  E(RB3LYP) =  -654.086257916     A.U. after   12 cycles
 SCF Done:  E(RB3LYP) =  -654.086505477     A.U. after   12 cycles
 SCF Done:  E(RB3LYP) =  -654.086692753     A.U. after   11 cycles
 SCF Done:  E(RB3LYP) =  -654.086736272     A.U. after   11 cycles
 SCF Done:  E(RB3LYP) =  -654.086755754     A.U. after   10 cycles
 SCF Done:  E(RB3LYP) =  -654.086794402     A.U. after   10 cycles
 SCF Done:  E(RB3LYP) =  -654.086798654     A.U. after   10 cycles
 SCF Done:  E(RB3LYP) =  -654.086801231     A.U. after   10 cycles
 SCF Done:  E(RB3LYP) =  -654.086801470     A.U. after    8 cycles
 SCF Done:  E(RB3LYP) =  -654.086801526     A.U. after    7 cycles
 Optimization completed.
    -- Stationary point found.
 Normal termination of Gaussian 16 at Thu Dec 10 17:26:27 2020.

 --------------------------------------------------------------------
 #N Geom=AllCheck Guess=TCheck SCRF=Check GenChk RB3LYP/6-31G(d) Freq
 --------------------------------------------------------------------

 Structure from the checkpoint file:  "JID_5764.chk"
 ------------------------------
 CID_43777460_JID_5764_neutraal
 ------------------------------
 Charge =  0 Multiplicity = 1

 SCF Done:  E(RB3LYP) =  -654.086801526     A.U. after    1 cycles

  Exact polarizability: 157.725  -0.276 137.557   1.271   1.276 105.322
 Approx polarizability: 209.300   6.372 202.006   6.499   5.892 167.841

                      1                      2                      3
                      A                      A                      A
 Frequencies --     21.2025                34.3798                65.9591
 Red. masses --      8.5640                 3.6858                 4.0843
 Frc consts  --      0.0023                 0.0026                 0.0105
 IR Inten    --      0.1955                 0.9641                 0.4066

                      4                      5                      6
                      A                      A                      A
 Frequencies --     74.7691               131.2254               154.5090
 Red. masses --      4.3166                 3.4823                 2.6998
 Frc consts  --      0.0142                 0.0353                 0.0380
 IR Inten    --      2.0693                 3.6620                 5.3703

                      7                      8                      9
                      A                      A                      A
 Frequencies --    197.6787               217.8348               227.9081
 Red. masses --      3.3940                 2.1261                 1.4717
 Frc consts  --      0.0781                 0.0594                 0.0450
 IR Inten    --      0.3324                 1.5956                 0.9412

                     10                     11                     12
                      A                      A                      A
 Frequencies --    263.6373               312.7720               343.8984
 Red. masses --      2.5818                 2.3747                 2.7526
 Frc consts  --      0.1057                 0.1369                 0.1918
 IR Inten    --      7.2118                 1.4728                 3.9958

                     13                     14                     15
                      A                      A                      A
 Frequencies --    373.6155               391.5350               399.2080
 Red. masses --      1.8406                 1.4428                 3.0077
 Frc consts  --      0.1514                 0.1303                 0.2824
 IR Inten    --     65.9493                89.7949                15.2457

                     16                     17                     18
                      A                      A                      A
 Frequencies --    465.9338               482.9677               499.5379
 Red. masses --      2.3991                 1.8688                 1.9061
 Frc consts  --      0.3069                 0.2568                 0.2802
 IR Inten    --      2.7084                13.3933                11.9523

                     19                     20                     21
                      A                      A                      A
 Frequencies --    522.9076               533.1584               627.4998
 Red. masses --      2.5323                 3.1809                 2.7630
 Frc consts  --      0.4080                 0.5327                 0.6410
 IR Inten    --      0.5583                 9.7986                 2.2989

                     22                     23                     24
                      A                      A                      A
 Frequencies --    649.3704               668.5179               718.0255
 Red. masses --      2.5363                 2.8188                 2.0278
 Frc consts  --      0.6301                 0.7422                 0.6160
 IR Inten    --     30.1421                 4.3107                30.3517

                     25                     26                     27
                      A                      A                      A
 Frequencies --    754.9305               784.7058               793.3099
 Red. masses --      2.4009                 2.0260                 1.8874
 Frc consts  --      0.8062                 0.7350                 0.6998
 IR Inten    --      6.3461                 6.2904                 4.3709

                     28                     29                     30
                      A                      A                      A
 Frequencies --    798.7670               824.0852               857.4430
 Red. masses --      3.0768                 2.2522                 2.1895
 Frc consts  --      1.1566                 0.9012                 0.9485
 IR Inten    --     15.1592                 8.2385                26.9648

                     31                     32                     33
                      A                      A                      A
 Frequencies --    873.5338               902.0922               908.4070
 Red. masses --      2.4036                 2.0467                 1.6759
 Frc consts  --      1.0806                 0.9813                 0.8148
 IR Inten    --      4.5163                 9.5759                10.8960

                     34                     35                     36
                      A                      A                      A
 Frequencies --    917.4334               924.7270               938.4423
 Red. masses --      2.2405                 1.7289                 2.2476
 Frc consts  --      1.1111                 0.8710                 1.1662
 IR Inten    --      0.7055                 4.8844                 2.8957

                     37                     38                     39
                      A                      A                      A
 Frequencies --    947.2749               960.1746               983.0785
 Red. masses --      1.5491                 2.7464                 2.0363
 Frc consts  --      0.8190                 1.4918                 1.1595
 IR Inten    --      0.9294                 2.3664                 4.4306

                     40                     41                     42
                      A                      A                      A
 Frequencies --    989.2503              1012.5318              1023.2920
 Red. masses --      1.8089                 2.0586                 1.7001
 Frc consts  --      1.0430                 1.2435                 1.0489
 IR Inten    --      1.1612                 2.3563                 1.3168

                     43                     44                     45
                      A                      A                      A
 Frequencies --   1038.9583              1060.7262              1092.7697
 Red. masses --      1.7386                 1.6707                 2.0318
 Frc consts  --      1.1057                 1.1075                 1.4295
 IR Inten    --      1.5789                 5.1615                 6.1463

                     46                     47                     48
                      A                      A                      A
 Frequencies --   1100.7281              1130.5749              1150.0628
 Red. masses --      2.2693                 1.3916                 1.8799
 Frc consts  --      1.6199                 1.0480                 1.4650
 IR Inten    --     16.1460                 9.3064                 8.4240

                     49                     50                     51
                      A                      A                      A
 Frequencies --   1154.9711              1158.7689              1174.6104
 Red. masses --      1.2938                 1.5076                 1.5432
 Frc consts  --      1.0168                 1.1927                 1.2545
 IR Inten    --      5.5942                 3.3765                12.2359

                     52                     53                     54
                      A                      A                      A
 Frequencies --   1195.5278              1221.8577              1235.7647
 Red. masses --      1.4887                 1.7953                 1.3769
 Frc consts  --      1.2536                 1.5792                 1.2388
 IR Inten    --      4.9316                 6.6484                 3.0156

                     55                     56                     57
                      A                      A                      A
 Frequencies --   1243.3760              1274.3885              1296.2890
 Red. masses --      1.3821                 1.3370                 1.2918
 Frc consts  --      1.2589                 1.2793                 1.2789
 IR Inten    --     25.8311                 3.1837                 9.6162

                     58                     59                     60
                      A                      A                      A
 Frequencies --   1300.6640              1316.9126              1320.4881
 Red. masses --      1.3592                 1.3577                 1.5455
 Frc consts  --      1.3547                 1.3873                 1.5877
 IR Inten    --      1.4281                 2.8987                 0.2704

                     61                     62                     63
                      A                      A                      A
 Frequencies --   1337.5789              1349.9375              1356.9000
 Red. masses --      1.4774                 1.4427                 1.5593
 Frc consts  --      1.5574                 1.5490                 1.6915
 IR Inten    --      1.5098                19.3215                11.3978

                     64                     65                     66
                      A                      A                      A
 Frequencies --   1369.8636              1380.6682              1398.3880
 Red. masses --      1.5500                 1.6713                 1.6256
 Frc consts  --      1.7137                 1.8770                 1.8729
 IR Inten    --     13.3441                14.9266                14.6078

                     67                     68                     69
                      A                      A                      A
 Frequencies --   1409.1813              1422.7169              1439.7144
 Red. masses --      1.4058                 1.3779                 1.2630
 Frc consts  --      1.6447                 1.6432                 1.5425
 IR Inten    --      4.8398                45.6063                19.5686

                     70                     71                     72
                      A                      A                      A
 Frequencies --   1494.4620              1509.1408              1517.0388
 Red. masses --      1.0830                 1.2003                 1.1055
 Frc consts  --      1.4251                 1.6107                 1.4990
 IR Inten    --     10.8161                10.6702                 3.5481

                     73                     74                     75
                      A                      A                      A
 Frequencies --   1521.3624              1528.3722              1535.7518
 Red. masses --      1.0792                 1.0532                 1.1016
 Frc consts  --      1.4717                 1.4495                 1.5307
 IR Inten    --      2.8109                 4.2652                 4.0146

                     76                     77                     78
                      A                      A                      A
 Frequencies --   1536.8264              1629.6603              1658.4323
 Red. masses --      1.0847                 1.2702                 5.5864
 Frc consts  --      1.5094                 1.9876                 9.0526
 IR Inten    --      4.0033               128.9927                 1.0596

                     79                     80                     81
                      A                      A                      A
 Frequencies --   1806.1501              2999.9225              3044.4867
 Red. masses --      9.4872                 1.0706                 1.0781
 Frc consts  --     18.2345                 5.6768                 5.8876
 IR Inten    --    420.8792                60.5460                 4.8369

                     82                     83                     84
                      A                      A                      A
 Frequencies --   3049.5167              3056.4515              3063.6981
 Red. masses --      1.0413                 1.0712                 1.0838
 Frc consts  --      5.7055                 5.8961                 5.9935
 IR Inten    --     18.4471                11.1325                24.7312

                     85                     86                     87
                      A                      A                      A
 Frequencies --   3080.9591              3087.5573              3087.9070
 Red. masses --      1.0599                 1.0649                 1.0859
 Frc consts  --      5.9275                 5.9812                 6.1003
 IR Inten    --     32.8984                 6.4335                48.6452

                     88                     89                     90
                      A                      A                      A
 Frequencies --   3110.4643              3118.0688              3122.2530
 Red. masses --      1.0916                 1.0950                 1.0920
 Frc consts  --      6.2223                 6.2726                 6.2722
 IR Inten    --     42.1389                51.8356                20.2574

                     91                     92                     93
                      A                      A                      A
 Frequencies --   3123.5951              3125.3358              3126.9701
 Red. masses --      1.1009                 1.1037                 1.0947
 Frc consts  --      6.3289                 6.3518                 6.3064
 IR Inten    --     26.0869                37.1398                14.7585

                     94                     95                     96
                      A                      A                      A
 Frequencies --   3142.9069              3204.0107              3228.5449
 Red. masses --      1.1066                 1.0859                 1.1055
 Frc consts  --      6.4405                 6.5681                 6.7896
 IR Inten    --     39.1405                 9.4618                25.8227

                     97                     98                     99
                      A                      A                      A
 Frequencies --   3468.6172              3495.7809              3675.6714
 Red. masses --      1.0557                 1.0740                 1.0965
 Frc consts  --      7.4835                 7.7332                 8.7286
 IR Inten    --    253.3868                 1.1302                85.9279

 - Thermochemistry -
 -------------------
 Temperature   298.150 Kelvin.  Pressure   1.00000 Atm.
 Atom     1 has atomic number  6 and mass  12.00000

 Molecular mass:   208.15756 amu.
 Principal axes and moments of inertia in atomic units:
                           1         2         3
     Eigenvalues --  1738.845184867.223645951.25591
           X            0.99989  -0.01485  -0.00266
           Y            0.01483   0.99988  -0.00489
           Z            0.00273   0.00485   0.99998
 This molecule is an asymmetric top.
 Rotational symmetry number  1.
 Warning -- assumption of classical behavior for rotation
           may cause significant error
 Rotational temperatures (Kelvin)      0.04981     0.01780     0.01455
 Rotational constants (GHZ):           1.03790     0.37079     0.30325
 Zero-point vibrational energy     823352.8 (Joules/Mol)
                                  196.78603 (Kcal/Mol)
 Warning -- explicit consideration of  20 degrees of freedom as
           vibrations may cause significant error
 Vibrational temperatures:     30.51    49.46    94.90   107.58   188.80
          (Kelvin)            222.30   284.42   313.42   327.91   379.32
                              450.01   494.79   537.55   563.33   574.37
                              670.37   694.88   718.72   752.35   767.10
                              902.83   934.30   961.85  1033.08  1086.18
                             1129.02  1141.40  1149.25  1185.67  1233.67
                             1256.82  1297.91  1307.00  1319.98  1330.48
                             1350.21  1362.92  1381.48  1414.43  1423.31
                             1456.81  1472.29  1494.83  1526.15  1572.25
                             1583.70  1626.65  1654.68  1661.75  1667.21
                             1690.00  1720.10  1757.98  1777.99  1788.94
                             1833.56  1865.07  1871.37  1894.74  1899.89
                             1924.48  1942.26  1952.28  1970.93  1986.47
                             2011.97  2027.50  2046.97  2071.43  2150.20
                             2171.32  2182.68  2188.90  2198.99  2209.60
                             2211.15  2344.72  2386.11  2598.65  4316.22
                             4380.34  4387.57  4397.55  4407.98  4432.81
                             4442.31  4442.81  4475.26  4486.21  4492.23
                             4494.16  4496.66  4499.01  4521.94  4609.86
                             4645.16  4990.57  5029.65  5288.47

 Zero-point correction=                           0.313599 (Hartree/Particle)
 Thermal correction to Energy=                    0.328001
 Thermal correction to Enthalpy=                  0.328945
 Thermal correction to Gibbs Free Energy=         0.271090
 Sum of electronic and zero-point Energies=           -653.773203
 Sum of electronic and thermal Energies=              -653.758800
 Sum of electronic and thermal Enthalpies=            -653.757856
 Sum of electronic and thermal Free Energies=         -653.815711

                     E (Thermal)             CV                S
                      KCal/Mol        Cal/Mol-Kelvin    Cal/Mol-Kelvin
 Total                  205.824             57.118            121.766
 Electronic               0.000              0.000              0.000
 Translational            0.889              2.981             41.903
 Rotational               0.889              2.981             32.288
 Vibrational            204.046             51.157             47.575
 Vibration     1          0.593              1.985              6.518
 Vibration     2          0.594              1.983              5.559
 Vibration     3          0.597              1.971              4.270
 Vibration     4          0.599              1.966              4.024
 Vibration     5          0.612              1.922              2.928
 Vibration     6          0.620              1.898              2.616
 Vibration     7          0.637              1.843              2.155
 Vibration     8          0.646              1.814              1.977
 Vibration     9          0.651              1.798              1.895
 Vibration    10          0.670              1.740              1.638
 Vibration    11          0.701              1.649              1.348
 Vibration    12          0.723              1.588              1.194
 Vibration    13          0.745              1.526              1.065
 Vibration    14          0.759              1.488              0.994
 Vibration    15          0.765              1.472              0.966
 Vibration    16          0.823              1.326              0.749
 Vibration    17          0.839              1.288              0.702
 Vibration    18          0.855              1.251              0.659
 Vibration    19          0.878              1.199              0.603
 Vibration    20          0.888              1.177              0.580

 Optimization completed.
    -- Stationary point found.
 Normal termination of Gaussian 16 at Thu Dec 10 17:40:55 2020.

 ----------------------------------------------------------------------
 # B3LYP/6-311++G(d,p) empiricaldispersion=gd3bj scf=xqc pop=npa geom=c
 heck
 ----------------------------------------------------------------------

 --------------------------------------
 CID_43777460_JID_5764_Energie_neutraal
 --------------------------------------
 Structure from the checkpoint file:  "JID_5764.chk"
 Charge =  0 Multiplicity = 1

 SCF Done:  E(RB3LYP) =  -654.278637949     A.U. after   14 cycles
 Normal termination of Gaussian 16 at Thu Dec 10 17:47:43 2020.

 ----------------------------------------------------------------------
 # B3LYP/6-311++G(d,p) empiricaldispersion=gd3bj scf=xqc pop=npa geom=c
 heck
 ----------------------------------------------------------------------

 ------------------------------------
 CID_43777460_JID_5764_Energie_kation
 ------------------------------------
 Structure from the checkpoint file:  "JID_5764.chk"
 Charge =  1 Multiplicity = 2

 SCF Done:  E(UB3LYP) =  -653.972174088     A.U. after   31 cycles
 Normal termination of Gaussian 16 at Thu Dec 10 18:08:01 2020.
 Gaussian 16:  ES64L-G16RevA.03 25-Dec-2016

 ----------------------------------------------------------------------
 # B3LYP/6-311++G(d,p) empiricaldispersion=gd3bj scf=xqc pop=npa geom=c
 heck
 ----------------------------------------------------------------------

 -----------------------------------
 CID_43777460_JID_5764_Energie_anion
 -----------------------------------
 Structure from the checkpoint file:  "JID_5764.chk"
 Charge = -1 Multiplicity = 2

                         Standard orientation:
 ---------------------------------------------------------------------
 Center     Atomic      Atomic             Coordinates (Angstroms)
 Number     Number       Type             X           Y           Z
 ---------------------------------------------------------------------
      1          6           0        0.474977    2.920462   -0.212196
      2          6           0        0.137173    1.436512   -0.426953
      3          6           0        1.417055    0.600308   -0.629574
      4          6           0        1.172080   -0.866064   -1.099284
      5          6           0        2.053978   -1.713078   -0.124601
      6          6           0        1.802963   -0.955964    1.198677
      7          6           0        2.329119    0.388336    0.640664
      8          6           0        3.669089   -0.072191    0.079333
      9          6           0        3.502185   -1.318118   -0.384204
     10          7           0       -0.727451    0.892051    0.637438
     11          6           0       -2.130906    1.338404    0.590775
     12          6           0       -2.973302    0.556607   -0.429217
     13          6           0       -3.246141   -0.912068   -0.092865
     14          8           0       -4.321567   -1.442442   -0.337719
     15          7           0       -2.191188   -1.569708    0.463976
     16          1           0        1.077016    3.057387    0.694237
     17          1           0       -0.428936    3.529509   -0.109608
     18          1           0        1.049469    3.318268   -1.055893
     19          1           0       -0.437245    1.351037   -1.358217
     20          1           0        2.001434    1.138011   -1.383918
     21          1           0        0.118573   -1.139992   -0.987320
     22          1           0        1.449673   -1.019046   -2.145973
     23          1           0        1.834426   -2.783032   -0.136014
     24          1           0        2.414240   -1.331745    2.024340
     25          1           0        0.750500   -0.931189    1.491349
     26          1           0        2.368327    1.236547    1.328572
     27          1           0        4.541746    0.563355   -0.031893
     28          1           0        4.216066   -1.913297   -0.944254
     29          1           0       -0.330015    1.148853    1.538903
     30          1           0       -2.553878    1.189882    1.590422
     31          1           0       -2.220582    2.412890    0.366594
     32          1           0       -3.951152    1.033162   -0.537876
     33          1           0       -2.495618    0.594802   -1.417278
     34          1           0       -1.340739   -1.053114    0.677524
     35          1           0       -2.309925   -2.538033    0.724825
 ---------------------------------------------------------------------

 SCF Done:  E(UB3LYP) =  -654.268571891     A.U. after   33 cycles
 SCF Done:  E(UB3LYP) =  -654.268571891     a.u. after    1 cycles

 The electronic state is 2-A.
 Alpha  occ. eigenvalues --  -18.99177 -14.22852 -14.21361 -10.17757 -10.10960
 Alpha  occ. eigenvalues --  -10.10902 -10.08581 -10.08302 -10.08142 -10.07929
 Alpha  occ. eigenvalues --  -10.07222 -10.07134 -10.07027 -10.06803 -10.06165
 Alpha  occ. eigenvalues --   -0.94034  -0.82781  -0.80325  -0.78631  -0.69172
 Alpha  occ. eigenvalues --   -0.65589  -0.63717  -0.61413  -0.60051  -0.55468
 Alpha  occ. eigenvalues --   -0.51787  -0.48712  -0.47677  -0.46164  -0.44373
 Alpha  occ. eigenvalues --   -0.42628  -0.42282  -0.39947  -0.38950  -0.36942
 Alpha  occ. eigenvalues --   -0.35910  -0.34915  -0.33974  -0.32864  -0.31763
 Alpha  occ. eigenvalues --   -0.30435  -0.29834  -0.29171  -0.28360  -0.28155
 Alpha  occ. eigenvalues --   -0.26758  -0.26124  -0.25504  -0.24736  -0.24428
 Alpha  occ. eigenvalues --   -0.23154  -0.22339  -0.21066  -0.17645  -0.16219
 Alpha  occ. eigenvalues --   -0.14948  -0.14796   0.04043
 Alpha virt. eigenvalues --    0.06278   0.06634   0.06980   0.08140   0.08531
 Alpha virt. eigenvalues --    0.08815   0.08963   0.09293   0.10052   0.10581
 Alpha virt. eigenvalues --    0.10668   0.11325   0.11950   0.12122   0.12708

  Beta  occ. eigenvalues --  -18.99173 -14.22834 -14.21339 -10.17756 -10.10930
  Beta  occ. eigenvalues --  -10.10894 -10.08573 -10.08295 -10.08125 -10.07924
  Beta  occ. eigenvalues --  -10.07212 -10.07124 -10.07020 -10.06788 -10.06117
  Beta  occ. eigenvalues --   -0.94026  -0.82749  -0.80299  -0.78608  -0.69140
  Beta  occ. eigenvalues --   -0.65559  -0.63684  -0.61373  -0.60012  -0.55404
  Beta  occ. eigenvalues --   -0.51727  -0.48684  -0.47640  -0.46126  -0.44349
  Beta  occ. eigenvalues --   -0.42576  -0.42243  -0.39895  -0.38921  -0.36915
  Beta  occ. eigenvalues --   -0.35881  -0.34882  -0.33948  -0.32819  -0.31744
  Beta  occ. eigenvalues --   -0.30409  -0.29802  -0.29136  -0.28328  -0.28121
  Beta  occ. eigenvalues --   -0.26721  -0.26090  -0.25476  -0.24709  -0.24399
  Beta  occ. eigenvalues --   -0.23131  -0.22311  -0.21043  -0.17622  -0.16207
  Beta  occ. eigenvalues --   -0.14927  -0.14768
  Beta virt. eigenvalues --    0.06184   0.07085   0.07338   0.07568   0.08638
  Beta virt. eigenvalues --    0.08886   0.09257   0.09337   0.09637   0.10426
  Beta virt. eigenvalues --    0.10753   0.10972   0.11775   0.12264   0.12320

 Mulliken charges and spin densities:
               1          2
     1  C    1.437239  -2.071364
     2  C   -1.852704   1.161120
     3  C    1.043650  -0.302062
     4  C   -0.455153  -0.276952
     5  C    0.225961   0.092130
     6  C    0.304295  -0.999848
     7  C   -0.517477   0.680129
     8  C    0.863048  -1.383782
     9  C   -0.415663   0.087396
    10  N   -0.101957   0.056509
    11  C    0.453254  -0.853343
    12  C    0.101323  -0.167611
    13  C   -0.092623   0.032291
    14  O   -0.377882   0.006196
    15  N   -0.448385   0.036740
    16  H   -0.261307   0.402180
    17  H   -0.365967   0.502617
    18  H   -0.283503   0.423998
    19  H    0.154204  -0.000076
    20  H    0.114198   0.150744
    21  H    0.323567  -0.186033
    22  H   -0.091974   0.236219
    23  H   -0.067861   0.300943
    24  H   -0.226206   0.398860
    25  H   -0.023278   0.096285
    26  H   -0.295825   0.559020
    27  H   -0.295794   0.436897
    28  H   -0.224516   0.368429
    29  H   -0.047569   0.315708
    30  H   -0.349157   0.518175
    31  H   -0.014729   0.148611
    32  H    0.079876   0.127367
    33  H    0.001489   0.146281
    34  H    0.629649  -0.266621
    35  H    0.077777   0.222847
 Sum of Mulliken charges =  -1.00000   1.00000

 Dipole moment (field-independent basis, Debye):
    X=              0.1104    Y=             -2.2676    Z=             -1.8089  Tot=              2.9028
 Quadrupole moment (field-independent basis, Debye-Ang):
   XX=           -175.1711   YY=           -147.2820   ZZ=           -128.8593
   XY=             -8.1444   XZ=             -2.2810   YZ=             -4.3698

 Summary of Natural Population Analysis:

                                       Natural Population
                Natural  -----------------------------------------------
    Atom  No    Charge         Core      Valence    Rydberg      Total
 -----------------------------------------------------------------------
      C    1   -0.29249      0.99964     2.28707    0.00578     3.29249
      C    2   -0.00537      0.99956     1.99285    0.01296     3.00537
      C    3   -0.10491      0.99957     2.09319    0.01215     3.10491
      C    4   -0.18788      0.99961     2.17987    0.00840     3.18788
      C    5   -0.12781      0.99960     2.11589    0.01232     3.12781
      C    6   -0.18169      0.99962     2.17259    0.00947     3.18169
      C    7   -0.12895      0.99959     2.11615    0.01322     3.12895
      C    8   -0.09143      0.99951     2.08024    0.01167     3.09143
      C    9   -0.09661      0.99951     2.08686    0.01024     3.09661
      N   10   -0.36059      0.99973     2.84720    0.01366     3.86059
      C   11   -0.08748      0.99961     2.07680    0.01107     3.08748
      C   12   -0.23830      0.99958     2.22991    0.00882     3.23830
      C   13    0.33901      0.99970     1.63901    0.02227     2.66099
      O   14   -0.32869      0.99988     3.32313    0.00568     4.32869
      N   15   -0.41302      0.99969     2.90633    0.00699     3.91302
      H   16    0.10030      0.00000     0.39772    0.00199     0.39970
      H   17    0.10109      0.00000     0.39752    0.00138     0.39891
      H   18    0.10199      0.00000     0.39678    0.00123     0.39801
      H   19    0.09164      0.00000     0.40642    0.00194     0.40836
      H   20    0.10215      0.00000     0.39653    0.00133     0.39785
      H   21    0.10342      0.00000     0.39477    0.00181     0.39658
      H   22    0.09925      0.00000     0.39988    0.00087     0.40075
      H   23    0.10206      0.00000     0.39680    0.00115     0.39794
      H   24    0.10146      0.00000     0.39725    0.00129     0.39854
      H   25    0.09994      0.00000     0.39782    0.00224     0.40006
      H   26    0.10782      0.00000     0.38997    0.00221     0.39218
      H   27    0.10213      0.00000     0.39683    0.00104     0.39787
      H   28    0.10010      0.00000     0.39893    0.00097     0.39990
      H   29    0.18313      0.00000     0.31293    0.00394     0.31687
      H   30    0.09798      0.00000     0.40055    0.00147     0.40202
      H   31    0.08996      0.00000     0.40844    0.00160     0.41004
      H   32    0.11181      0.00000     0.38726    0.00093     0.38819
      H   33    0.10728      0.00000     0.39144    0.00128     0.39272
      H   34    0.21015      0.00000     0.28693    0.00292     0.28985
      H   35    0.19256      0.00000     0.30569    0.00175     0.30744
 =======================================================================
   * Total *    0.00000     14.99441    41.80753    0.19806    57.00000

 Normal termination of Gaussian 16 at Thu Dec 10 18:29:05 2020.
