 Gaussian 16, Revision A.03,

 -----------------------------------------------------------
 # opt freq B3LYP/6-31G(d) empiricaldispersion=gd3bj scf=xqc
 -----------------------------------------------------------

 ------------------------------
 CID_82871450_JID_6998_neutraal
 ------------------------------
 Symbolic Z-matrix:
 Charge =  0 Multiplicity = 1

 SCF Done:  E(RB3LYP) =  -673.483898557     A.U. after   14 cycles
 SCF Done:  E(RB3LYP) =  -673.484594388     A.U. after   12 cycles
 SCF Done:  E(RB3LYP) =  -673.487612295     A.U. after   12 cycles
 SCF Done:  E(RB3LYP) =  -673.488206876     A.U. after   12 cycles
 SCF Done:  E(RB3LYP) =  -673.489157045     A.U. after   12 cycles
 SCF Done:  E(RB3LYP) =  -673.489235524     A.U. after   11 cycles
 SCF Done:  E(RB3LYP) =  -673.490536536     A.U. after   12 cycles
 SCF Done:  E(RB3LYP) =  -673.491599359     A.U. after   14 cycles
 SCF Done:  E(RB3LYP) =  -673.491920969     A.U. after   14 cycles
 SCF Done:  E(RB3LYP) =  -673.491016451     A.U. after   14 cycles
 SCF Done:  E(RB3LYP) =  -673.497893272     A.U. after    6 cycles
 SCF Done:  E(RB3LYP) =  -673.497893288     A.U. after    6 cycles
 SCF Done:  E(RB3LYP) =  -673.497893307     A.U. after    6 cycles
 SCF Done:  E(RB3LYP) =  -673.497893330     A.U. after    6 cycles
 SCF Done:  E(RB3LYP) =  -673.497893351     A.U. after    6 cycles
 Optimization completed.
    -- Stationary point found.
 Normal termination of Gaussian 16 at Fri Dec 11 02:01:23 2020.

 --------------------------------------------------------------------
 #N Geom=AllCheck Guess=TCheck SCRF=Check GenChk RB3LYP/6-31G(d) Freq
 --------------------------------------------------------------------

 Structure from the checkpoint file:  "JID_6998.chk"
 ------------------------------
 CID_82871450_JID_6998_neutraal
 ------------------------------
 Charge =  0 Multiplicity = 1

 SCF Done:  E(RB3LYP) =  -673.497893351     A.U. after    1 cycles

  Exact polarizability: 173.470  15.795 152.078  10.694  -5.559 124.972
 Approx polarizability: 215.680  20.878 220.102  21.228 -14.726 203.030

                      1                      2                      3
                      A                      A                      A
 Frequencies --      9.0117                30.5266                41.0248
 Red. masses --      3.8998                 2.7596                 3.6559
 Frc consts  --      0.0002                 0.0015                 0.0036
 IR Inten    --      0.2861                 0.4792                 0.6433

                      4                      5                      6
                      A                      A                      A
 Frequencies --     43.5358                51.4405                64.2867
 Red. masses --      2.4997                 1.3239                 2.5759
 Frc consts  --      0.0028                 0.0021                 0.0063
 IR Inten    --      0.0131                 0.6017                 0.1139

                      7                      8                      9
                      A                      A                      A
 Frequencies --    105.1126               135.5716               144.2112
 Red. masses --      2.8170                 2.2397                 2.8856
 Frc consts  --      0.0183                 0.0243                 0.0354
 IR Inten    --      1.0478                 1.3164                 2.2474

                     10                     11                     12
                      A                      A                      A
 Frequencies --    172.2465               187.4524               229.5083
 Red. masses --      3.1371                 2.5520                 2.0746
 Frc consts  --      0.0548                 0.0528                 0.0644
 IR Inten    --      7.1386                 3.6305                 0.2954

                     13                     14                     15
                      A                      A                      A
 Frequencies --    246.2907               269.5889               290.7455
 Red. masses --      3.2108                 1.3685                 2.9984
 Frc consts  --      0.1148                 0.0586                 0.1493
 IR Inten    --      0.2569                 1.4342                 0.6846

                     16                     17                     18
                      A                      A                      A
 Frequencies --    300.1425               309.3465               335.7291
 Red. masses --      2.1919                 2.6471                 3.0951
 Frc consts  --      0.1163                 0.1492                 0.2055
 IR Inten    --      1.2051                 3.1744                 0.0671

                     19                     20                     21
                      A                      A                      A
 Frequencies --    398.2624               422.5160               477.5155
 Red. masses --      2.8444                 2.7027                 3.4268
 Frc consts  --      0.2658                 0.2843                 0.4604
 IR Inten    --      3.3063                 1.2982                 2.7261

                     22                     23                     24
                      A                      A                      A
 Frequencies --    515.4358               618.9218               626.6134
 Red. masses --      2.3999                 3.8497                 4.2349
 Frc consts  --      0.3757                 0.8689                 0.9797
 IR Inten    --      0.9556                 2.1055                 0.7835

                     25                     26                     27
                      A                      A                      A
 Frequencies --    656.0571               701.7916               726.7519
 Red. masses --      2.1966                 3.1296                 2.1555
 Frc consts  --      0.5570                 0.9081                 0.6708
 IR Inten    --     20.0585                 2.0287                 1.1601

                     28                     29                     30
                      A                      A                      A
 Frequencies --    742.9882               754.7135               788.2147
 Red. masses --      2.4204                 1.2643                 1.6572
 Frc consts  --      0.7872                 0.4243                 0.6066
 IR Inten    --     18.0014                29.0603                77.8643

                     31                     32                     33
                      A                      A                      A
 Frequencies --    798.7623               815.6469               828.5077
 Red. masses --      1.1846                 1.6014                 1.3354
 Frc consts  --      0.4453                 0.6277                 0.5401
 IR Inten    --      8.1471                 2.0011                 1.0004

                     34                     35                     36
                      A                      A                      A
 Frequencies --    835.0905               843.8912               859.2296
 Red. masses --      1.2527                 1.3473                 1.9456
 Frc consts  --      0.5147                 0.5653                 0.8463
 IR Inten    --      1.3208                10.1829                14.1417

                     37                     38                     39
                      A                      A                      A
 Frequencies --    911.4320               950.7932               957.9703
 Red. masses --      2.4124                 2.2635                 1.8410
 Frc consts  --      1.1807                 1.2056                 0.9954
 IR Inten    --     11.0268                 3.6909                 7.8730

                     40                     41                     42
                      A                      A                      A
 Frequencies --    979.1986              1015.9585              1027.6469
 Red. masses --      2.3339                 2.4132                 2.6365
 Frc consts  --      1.3185                 1.4676                 1.6404
 IR Inten    --      7.0439                19.5680                 0.4756

                     43                     44                     45
                      A                      A                      A
 Frequencies --   1037.0113              1047.3020              1060.6778
 Red. masses --      3.9519                 2.2290                 1.8174
 Frc consts  --      2.5040                 1.4405                 1.2047
 IR Inten    --      1.0114                 3.7967                 6.1479

                     46                     47                     48
                      A                      A                      A
 Frequencies --   1063.9020              1075.6630              1084.2562
 Red. masses --      1.5516                 1.5702                 1.4114
 Frc consts  --      1.0347                 1.0704                 0.9776
 IR Inten    --      5.6604                 9.0778                 1.3047

                     49                     50                     51
                      A                      A                      A
 Frequencies --   1089.3809              1107.0900              1129.8071
 Red. masses --      1.6543                 1.9789                 1.9153
 Frc consts  --      1.1567                 1.4290                 1.4404
 IR Inten    --      7.9274                13.8106                 1.9496

                     52                     53                     54
                      A                      A                      A
 Frequencies --   1156.5381              1161.7134              1162.5207
 Red. masses --      1.6966                 1.1857                 1.3078
 Frc consts  --      1.3371                 0.9428                 1.0413
 IR Inten    --     13.6275                 9.4292                 0.6806

                     55                     56                     57
                      A                      A                      A
 Frequencies --   1167.1208              1198.5570              1213.6182
 Red. masses --      1.7169                 1.6476                 1.4805
 Frc consts  --      1.3779                 1.3945                 1.2848
 IR Inten    --     35.1718                12.8172                 0.4321

                     58                     59                     60
                      A                      A                      A
 Frequencies --   1222.9551              1237.6755              1252.8308
 Red. masses --      2.0419                 1.5438                 1.5930
 Frc consts  --      1.7993                 1.3933                 1.4732
 IR Inten    --      4.6305                 1.1861                 1.1732

                     61                     62                     63
                      A                      A                      A
 Frequencies --   1255.3964              1304.5351              1330.6568
 Red. masses --      1.3054                 1.2423                 1.4575
 Frc consts  --      1.2122                 1.2456                 1.5206
 IR Inten    --      4.2223                 0.7648                 6.5331

                     64                     65                     66
                      A                      A                      A
 Frequencies --   1333.4900              1345.0014              1371.1966
 Red. masses --      2.9656                 1.3608                 1.2355
 Frc consts  --      3.1070                 1.4504                 1.3686
 IR Inten    --     10.1629                 7.9798                15.0694

                     67                     68                     69
                      A                      A                      A
 Frequencies --   1374.2563              1381.0383              1406.1937
 Red. masses --      1.4746                 1.3854                 3.3612
 Frc consts  --      1.6408                 1.5568                 3.9159
 IR Inten    --     21.9894                 4.7737                 6.4258

                     70                     71                     72
                      A                      A                      A
 Frequencies --   1410.7852              1428.0595              1431.1215
 Red. masses --      1.4508                 1.3460                 1.4720
 Frc consts  --      1.7013                 1.6173                 1.7763
 IR Inten    --      8.0065                 3.1804                 2.0455

                     73                     74                     75
                      A                      A                      A
 Frequencies --   1448.5080              1463.9160              1478.8556
 Red. masses --      1.4199                 3.2077                 1.3307
 Frc consts  --      1.7553                 4.0503                 1.7147
 IR Inten    --      8.1345                19.7545                 7.6387

                     76                     77                     78
                      A                      A                      A
 Frequencies --   1495.5686              1501.5210              1504.0842
 Red. masses --      1.0911                 1.1430                 1.0663
 Frc consts  --      1.4378                 1.5183                 1.4212
 IR Inten    --      1.0630                14.2730                12.9779

                     79                     80                     81
                      A                      A                      A
 Frequencies --   1513.2902              1518.7931              1523.4104
 Red. masses --      1.2169                 1.1873                 1.5934
 Frc consts  --      1.6420                 1.6136                 2.1787
 IR Inten    --      5.1301                 1.8544                 1.1754

                     82                     83                     84
                      A                      A                      A
 Frequencies --   1523.9828              1528.9307              1533.7247
 Red. masses --      1.1265                 1.1466                 1.1189
 Frc consts  --      1.5415                 1.5792                 1.5507
 IR Inten    --     10.5486                 3.6477                 8.0580

                     85                     86                     87
                      A                      A                      A
 Frequencies --   1542.0744              1551.7500              1558.7694
 Red. masses --      1.3033                 1.3335                 1.0942
 Frc consts  --      1.8260                 1.8919                 1.5665
 IR Inten    --      3.5546                 9.2291                 1.9901

                     88                     89                     90
                      A                      A                      A
 Frequencies --   1573.1653              2996.4711              3002.6466
 Red. masses --      4.8095                 1.0665                 1.0821
 Frc consts  --      7.0129                 5.6419                 5.7479
 IR Inten    --     36.8642                25.7244                31.8967

                     91                     92                     93
                      A                      A                      A
 Frequencies --   3039.5537              3041.9164              3042.3259
 Red. masses --      1.0630                 1.0553                 1.0609
 Frc consts  --      5.7863                 5.7532                 5.7853
 IR Inten    --     31.0915                46.1147                 9.8922

                     94                     95                     96
                      A                      A                      A
 Frequencies --   3045.6731              3067.3924              3069.7678
 Red. masses --      1.0787                 1.0341                 1.0715
 Frc consts  --      5.8956                 5.7327                 5.9492
 IR Inten    --     34.6624                44.8771                 4.5414

                     97                     98                     99
                      A                      A                      A
 Frequencies --   3076.7250              3084.0020              3103.6977
 Red. masses --      1.0975                 1.0873                 1.1010
 Frc consts  --      6.1213                 6.0932                 6.2486
 IR Inten    --     15.0471                42.3735                46.5525

                    100                    101                    102
                      A                      A                      A
 Frequencies --   3113.9204              3126.9783              3135.3682
 Red. masses --      1.1032                 1.1024                 1.1038
 Frc consts  --      6.3029                 6.3510                 6.3933
 IR Inten    --     54.1268                39.2171                16.5889

                    103                    104                    105
                      A                      A                      A
 Frequencies --   3142.7264              3156.5515              3162.8617
 Red. masses --      1.0534                 1.0633                 1.0836
 Frc consts  --      6.1301                 6.2420                 6.3866
 IR Inten    --     21.3838                21.4600                11.4253

                    106                    107                    108
                      A                      A                      A
 Frequencies --   3164.7857              3217.6666              3244.3265
 Red. masses --      1.1049                 1.1173                 1.1128
 Frc consts  --      6.5203                 6.8158                 6.9010
 IR Inten    --     10.2680                10.7938                24.1924

                    109                    110                    111
                      A                      A                      A
 Frequencies --   3264.2839              3282.2416              3478.0279
 Red. masses --      1.0906                 1.1048                 1.0730
 Frc consts  --      6.8470                 7.0124                 7.6476
 IR Inten    --      2.1045                 3.0850                 1.3332

 - Thermochemistry -
 -------------------
 Temperature   298.150 Kelvin.  Pressure   1.00000 Atm.
 Atom     1 has atomic number  6 and mass  12.00000

 Molecular mass:   221.18920 amu.
 Principal axes and moments of inertia in atomic units:
                           1         2         3
     Eigenvalues --  2276.041115964.011237482.04187
           X            0.99978   0.02084   0.00275
           Y           -0.02083   0.99977  -0.00476
           Z           -0.00285   0.00470   0.99998
 This molecule is an asymmetric top.
 Rotational symmetry number  1.
 Warning -- assumption of classical behavior for rotation
           may cause significant error
 Rotational temperatures (Kelvin)      0.03805     0.01452     0.01158
 Rotational constants (GHZ):           0.79293     0.30261     0.24121
 Zero-point vibrational energy     923399.2 (Joules/Mol)
                                  220.69770 (Kcal/Mol)
 Warning -- explicit consideration of  23 degrees of freedom as
           vibrations may cause significant error
 Vibrational temperatures:     12.97    43.92    59.03    62.64    74.01
          (Kelvin)             92.49   151.23   195.06   207.49   247.82
                              269.70   330.21   354.36   387.88   418.32
                              431.84   445.08   483.04   573.01   607.91
                              687.04   741.60   890.49   901.56   943.92
                             1009.72  1045.63  1068.99  1085.86  1134.07
                             1149.24  1173.53  1192.04  1201.51  1214.17
                             1236.24  1311.35  1367.98  1378.31  1408.85
                             1461.74  1478.55  1492.03  1506.83  1526.08
                             1530.72  1547.64  1560.00  1567.38  1592.86
                             1625.54  1664.00  1671.45  1672.61  1679.23
                             1724.46  1746.13  1759.56  1780.74  1802.54
                             1806.24  1876.94  1914.52  1918.59  1935.16
                             1972.85  1977.25  1987.01  2023.20  2029.81
                             2054.66  2059.06  2084.08  2106.25  2127.74
                             2151.79  2160.35  2164.04  2177.29  2185.20
                             2191.85  2192.67  2199.79  2206.69  2218.70
                             2232.62  2242.72  2263.43  4311.25  4320.14
                             4373.24  4376.64  4377.23  4382.04  4413.29
                             4416.71  4426.72  4437.19  4465.53  4480.24
                             4499.02  4511.10  4521.68  4541.57  4550.65
                             4553.42  4629.50  4667.86  4696.58  4722.41
                             5004.11

 Zero-point correction=                           0.351704 (Hartree/Particle)
 Thermal correction to Energy=                    0.369230
 Thermal correction to Enthalpy=                  0.370174
 Thermal correction to Gibbs Free Energy=         0.302861
 Sum of electronic and zero-point Energies=           -673.146189
 Sum of electronic and thermal Energies=              -673.128663
 Sum of electronic and thermal Enthalpies=            -673.127719
 Sum of electronic and thermal Free Energies=         -673.195033

                     E (Thermal)             CV                S
                      KCal/Mol        Cal/Mol-Kelvin    Cal/Mol-Kelvin
 Total                  231.695             64.556            141.673
 Electronic               0.000              0.000              0.000
 Translational            0.889              2.981             42.084
 Rotational               0.889              2.981             32.985
 Vibrational            229.918             58.594             66.604
 Vibration     1          0.593              1.987              8.218
 Vibration     2          0.594              1.984              5.795
 Vibration     3          0.594              1.981              5.209
 Vibration     4          0.595              1.980              5.091
 Vibration     5          0.596              1.977              4.761
 Vibration     6          0.597              1.971              4.321
 Vibration     7          0.605              1.945              3.357
 Vibration     8          0.613              1.918              2.865
 Vibration     9          0.616              1.909              2.747
 Vibration    10          0.626              1.877              2.411
 Vibration    11          0.632              1.857              2.253
 Vibration    12          0.652              1.796              1.883
 Vibration    13          0.661              1.769              1.757
 Vibration    14          0.674              1.729              1.599
 Vibration    15          0.687              1.691              1.470
 Vibration    16          0.693              1.673              1.416
 Vibration    17          0.699              1.656              1.366
 Vibration    18          0.717              1.604              1.232
 Vibration    19          0.765              1.474              0.969
 Vibration    20          0.785              1.421              0.883
 Vibration    21          0.834              1.300              0.717
 Vibration    22          0.870              1.216              0.621
 Vibration    23          0.979              0.992              0.418

                           ! Non-Optimized Parameters !
 Normal termination of Gaussian 16 at Fri Dec 11 02:15:02 2020.

 ----------------------------------------------------------------------
 # B3LYP/6-311++G(d,p) empiricaldispersion=gd3bj scf=xqc pop=npa geom=c
 heck
 ----------------------------------------------------------------------

 --------------------------------------
 CID_82871450_JID_6998_Energie_neutraal
 --------------------------------------
 Structure from the checkpoint file:  "JID_6998.chk"
 Charge =  0 Multiplicity = 1

 SCF Done:  E(RB3LYP) =  -673.683344484     A.U. after   15 cycles
 Normal termination of Gaussian 16 at Fri Dec 11 02:22:29 2020.

 ----------------------------------------------------------------------
 # B3LYP/6-311++G(d,p) empiricaldispersion=gd3bj scf=xqc pop=npa geom=c
 heck
 ----------------------------------------------------------------------

 ------------------------------------
 CID_82871450_JID_6998_Energie_kation
 ------------------------------------
 Structure from the checkpoint file:  "JID_6998.chk"
 Charge =  1 Multiplicity = 2

 SCF Done:  E(UB3LYP) =  -673.399828950     A.U. after   28 cycles
 Normal termination of Gaussian 16 at Fri Dec 11 02:41:57 2020.
 Gaussian 16:  ES64L-G16RevA.03 25-Dec-2016

 ----------------------------------------------------------------------
 # B3LYP/6-311++G(d,p) empiricaldispersion=gd3bj scf=xqc pop=npa geom=c
 heck
 ----------------------------------------------------------------------

 -----------------------------------
 CID_82871450_JID_6998_Energie_anion
 -----------------------------------
 Structure from the checkpoint file:  "JID_6998.chk"
 Charge = -1 Multiplicity = 2

                         Standard orientation:
 ---------------------------------------------------------------------
 Center     Atomic      Atomic             Coordinates (Angstroms)
 Number     Number       Type             X           Y           Z
 ---------------------------------------------------------------------
      1          6           0        0.005546   -3.464459    0.373090
      2          6           0        0.312893   -2.149825   -0.338130
      3          7           0        1.630084   -1.651881    0.059887
      4          6           0        2.061505   -0.425408   -0.622538
      5          6           0        1.108694    0.787379   -0.445544
      6          6           0        0.605487    1.058677    0.978960
      7          6           0       -0.599753    2.017388    0.999169
      8          6           0       -1.810729    1.424573    0.334503
      9          7           0       -2.275407    0.230509    0.723389
     10          7           0       -3.334086   -0.018639   -0.080091
     11          6           0       -3.550641    0.982724   -0.971513
     12          6           0       -2.581785    1.940716   -0.733545
     13          6           0       -4.035863   -1.278471    0.043749
     14          6           0        3.525155   -0.180276   -0.270050
     15          6           0        4.307940    0.981223   -0.827028
     16          6           0        4.039573    0.899288    0.655120
     17          1           0        0.788686   -4.203896    0.177035
     18          1           0       -0.956612   -3.872870    0.042282
     19          1           0       -0.056219   -3.314432    1.458415
     20          1           0        0.344661   -2.314206   -1.424156
     21          1           0       -0.505754   -1.437109   -0.146483
     22          1           0        1.643900   -1.496819    1.067437
     23          1           0        2.046051   -0.673134   -1.694821
     24          1           0        1.585643    1.692542   -0.845965
     25          1           0        0.232791    0.614071   -1.081433
     26          1           0        0.288152    0.122152    1.448863
     27          1           0        1.400486    1.470433    1.608701
     28          1           0       -0.839001    2.271191    2.040034
     29          1           0       -0.344287    2.958642    0.497043
     30          1           0       -4.358224    0.934864   -1.688104
     31          1           0       -2.447728    2.879855   -1.250623
     32          1           0       -3.381009   -2.108731   -0.239771
     33          1           0       -4.360497   -1.420295    1.077734
     34          1           0       -4.908225   -1.263475   -0.612780
     35          1           0        4.069378   -1.120872   -0.222758
     36          1           0        5.314798    0.795841   -1.190895
     37          1           0        3.768865    1.738757   -1.390488
     38          1           0        3.340071    1.615912    1.070397
     39          1           0        4.861809    0.650473    1.320583
 ---------------------------------------------------------------------

 SCF Done:  E(UB3LYP) =  -673.669946578     A.U. after   33 cycles
 SCF Done:  E(UB3LYP) =  -673.669946578     a.u. after    1 cycles

 The electronic state is 2-A.
 Alpha  occ. eigenvalues --  -14.29261 -14.22551 -14.20183 -10.11024 -10.10985
 Alpha  occ. eigenvalues --  -10.10734 -10.09748 -10.09325 -10.08909 -10.08655
 Alpha  occ. eigenvalues --  -10.08564 -10.08270 -10.07573 -10.07201 -10.06768
 Alpha  occ. eigenvalues --  -10.06677  -0.95198  -0.81825  -0.76932  -0.75444
 Alpha  occ. eigenvalues --   -0.69919  -0.68742  -0.66171  -0.62527  -0.59408
 Alpha  occ. eigenvalues --   -0.56248  -0.52575  -0.51429  -0.50322  -0.50014
 Alpha  occ. eigenvalues --   -0.46579  -0.44919  -0.42559  -0.41949  -0.38936
 Alpha  occ. eigenvalues --   -0.38778  -0.38085  -0.36578  -0.35439  -0.34434
 Alpha  occ. eigenvalues --   -0.34276  -0.33468  -0.32093  -0.31384  -0.31057
 Alpha  occ. eigenvalues --   -0.29510  -0.28936  -0.28438  -0.28243  -0.27090
 Alpha  occ. eigenvalues --   -0.26549  -0.25546  -0.25010  -0.24390  -0.23296
 Alpha  occ. eigenvalues --   -0.20827  -0.19866  -0.19633  -0.15504  -0.14813
 Alpha  occ. eigenvalues --   -0.13204   0.04162
 Alpha virt. eigenvalues --    0.05462   0.06509   0.06887   0.07371   0.07875
 Alpha virt. eigenvalues --    0.08405   0.09039   0.09308   0.09390   0.09941
 Alpha virt. eigenvalues --    0.10291   0.11145   0.11486   0.11906   0.11989

  Beta  occ. eigenvalues --  -14.29260 -14.22540 -14.20182 -10.10983 -10.10967
  Beta  occ. eigenvalues --  -10.10707 -10.09748 -10.09318 -10.08906 -10.08643
  Beta  occ. eigenvalues --  -10.08551 -10.08263 -10.07569 -10.07193 -10.06754
  Beta  occ. eigenvalues --  -10.06669  -0.95186  -0.81818  -0.76922  -0.75426
  Beta  occ. eigenvalues --   -0.69903  -0.68715  -0.66153  -0.62498  -0.59367
  Beta  occ. eigenvalues --   -0.56221  -0.52547  -0.51394  -0.50296  -0.49971
  Beta  occ. eigenvalues --   -0.46559  -0.44875  -0.42503  -0.41931  -0.38911
  Beta  occ. eigenvalues --   -0.38763  -0.38060  -0.36559  -0.35418  -0.34402
  Beta  occ. eigenvalues --   -0.34250  -0.33429  -0.32079  -0.31352  -0.31022
  Beta  occ. eigenvalues --   -0.29480  -0.28911  -0.28419  -0.28223  -0.27070
  Beta  occ. eigenvalues --   -0.26532  -0.25531  -0.24999  -0.24377  -0.23285
  Beta  occ. eigenvalues --   -0.20811  -0.19854  -0.19619  -0.15487  -0.14801
  Beta  occ. eigenvalues --   -0.13198
  Beta virt. eigenvalues --    0.05821   0.06754   0.06880   0.07004   0.08089
  Beta virt. eigenvalues --    0.08333   0.08592   0.09099   0.09439   0.09891
  Beta virt. eigenvalues --    0.10184   0.10455   0.11443   0.11665   0.11976

 Mulliken charges and spin densities:
               1          2
     1  C   -0.131587  -0.474940
     2  C   -0.577941   0.378294
     3  N    0.063967  -0.014768
     4  C    0.364627  -0.609964
     5  C   -0.258898  -0.348926
     6  C   -0.113854   0.228444
     7  C    0.040021  -0.825193
     8  C    0.213814  -0.406595
     9  N   -0.391717   0.341827
    10  N    0.123828  -0.010454
    11  C    0.185523  -0.399303
    12  C    0.409783  -0.362734
    13  C    1.160787  -1.461444
    14  C   -1.022043   0.951541
    15  C    0.093438  -0.587835
    16  C    0.232967  -0.501772
    17  H    0.091242   0.056699
    18  H   -0.016965   0.156610
    19  H    0.017648   0.105826
    20  H   -0.106411   0.245134
    21  H    0.735715  -0.564945
    22  H    0.210089  -0.003006
    23  H    0.066632   0.099508
    24  H    0.021407   0.116130
    25  H    0.347186  -0.172525
    26  H    0.084538   0.084196
    27  H    0.094038   0.076580
    28  H    0.089129   0.092186
    29  H   -0.029992   0.173678
    30  H   -1.316531   1.502985
    31  H   -0.314518   0.477311
    32  H   -0.225855   0.408172
    33  H   -0.193807   0.370646
    34  H   -0.814429   0.972824
    35  H    0.048967   0.184278
    36  H   -0.050253   0.207842
    37  H   -0.072050   0.202361
    38  H    0.057820   0.036502
    39  H   -0.116319   0.274829
 Sum of Mulliken charges =  -1.00000   1.00000

 Dipole moment (field-independent basis, Debye):
    X=              7.8430    Y=              1.0437    Z=              2.9610  Tot=              8.4481
 Quadrupole moment (field-independent basis, Debye-Ang):
   XX=           -219.5253   YY=           -146.5773   ZZ=           -134.8326
   XY=             -7.4979   XZ=            -14.5273   YZ=              0.4787

 Summary of Natural Population Analysis:

                                       Natural Population
                Natural  -----------------------------------------------
    Atom  No    Charge         Core      Valence    Rydberg      Total
 -----------------------------------------------------------------------
      C    1   -0.28488      0.99967     2.28070    0.00451     3.28488
      C    2   -0.09690      0.99964     2.08730    0.00996     3.09690
      N    3   -0.34126      0.99974     2.83083    0.01070     3.84126
      C    4   -0.00449      0.99957     1.99283    0.01208     3.00449
      C    5   -0.20481      0.99961     2.19701    0.00819     3.20481
      C    6   -0.19033      0.99962     2.18287    0.00783     3.19033
      C    7   -0.19910      0.99959     2.19110    0.00840     3.19910
      C    8    0.07182      0.99959     1.91294    0.01566     2.92818
      N    9   -0.16756      0.99969     2.65671    0.01116     3.66756
      N   10   -0.10360      0.99967     2.59044    0.01349     3.60360
      C   11    0.00114      0.99955     1.98704    0.01227     2.99886
      C   12   -0.16403      0.99950     2.15543    0.00910     3.16403
      C   13   -0.17061      0.99963     2.16220    0.00878     3.17061
      C   14   -0.11369      0.99957     2.10210    0.01202     3.11369
      C   15   -0.19996      0.99962     2.19323    0.00711     3.19996
      C   16   -0.20119      0.99962     2.19426    0.00731     3.20119
      H   17    0.09694      0.00000     0.40186    0.00120     0.40306
      H   18    0.10044      0.00000     0.39858    0.00099     0.39956
      H   19    0.09409      0.00000     0.40499    0.00093     0.40591
      H   20    0.08700      0.00000     0.41177    0.00123     0.41300
      H   21    0.09182      0.00000     0.40548    0.00270     0.40818
      H   22    0.16908      0.00000     0.32840    0.00252     0.33092
      H   23    0.09157      0.00000     0.40679    0.00164     0.40843
      H   24    0.09742      0.00000     0.40127    0.00132     0.40258
      H   25    0.10517      0.00000     0.39313    0.00170     0.39483
      H   26    0.10054      0.00000     0.39779    0.00167     0.39946
      H   27    0.09334      0.00000     0.40549    0.00117     0.40666
      H   28    0.10434      0.00000     0.39467    0.00098     0.39566
      H   29    0.09938      0.00000     0.39952    0.00110     0.40062
      H   30    0.10882      0.00000     0.38776    0.00342     0.39118
      H   31    0.10832      0.00000     0.39074    0.00093     0.39168
      H   32    0.10027      0.00000     0.39801    0.00172     0.39973
      H   33    0.10196      0.00000     0.39654    0.00149     0.39804
      H   34    0.10648      0.00000     0.38899    0.00453     0.39352
      H   35    0.10808      0.00000     0.39068    0.00124     0.39192
      H   36    0.10071      0.00000     0.39846    0.00083     0.39929
      H   37    0.10080      0.00000     0.39819    0.00101     0.39920
      H   38    0.10184      0.00000     0.39702    0.00114     0.39816
      H   39    0.10104      0.00000     0.39810    0.00085     0.39896
 =======================================================================
   * Total *    0.00000     15.99388    44.81123    0.19489    61.00000

 Normal termination of Gaussian 16 at Fri Dec 11 03:04:27 2020.
