 Gaussian 16, Revision A.03,

 -----------------------------------------------------------
 # opt freq B3LYP/6-31G(d) empiricaldispersion=gd3bj scf=xqc
 -----------------------------------------------------------

 -------------------------------
 CID_120967869_JID_9565_neutraal
 -------------------------------
 Symbolic Z-matrix:
 Charge =  0 Multiplicity = 1

 SCF Done:  E(RB3LYP) =  -1185.01043858     A.U. after   14 cycles
 SCF Done:  E(RB3LYP) =  -1185.01730311     A.U. after   12 cycles
 SCF Done:  E(RB3LYP) =  -1185.01839354     A.U. after   12 cycles
 SCF Done:  E(RB3LYP) =  -1185.01944935     A.U. after   12 cycles
 SCF Done:  E(RB3LYP) =  -1185.01967260     A.U. after   12 cycles
 SCF Done:  E(RB3LYP) =  -1185.01996889     A.U. after   11 cycles
 SCF Done:  E(RB3LYP) =  -1185.02003425     A.U. after   12 cycles
 SCF Done:  E(RB3LYP) =  -1185.02018637     A.U. after   11 cycles
 SCF Done:  E(RB3LYP) =  -1185.02024168     A.U. after   11 cycles
 SCF Done:  E(RB3LYP) =  -1185.02030964     A.U. after   10 cycles
 SCF Done:  E(RB3LYP) =  -1185.02034516     A.U. after   10 cycles
 SCF Done:  E(RB3LYP) =  -1185.02034972     A.U. after    9 cycles
 SCF Done:  E(RB3LYP) =  -1185.02035187     A.U. after    9 cycles
 SCF Done:  E(RB3LYP) =  -1185.02035277     A.U. after    8 cycles
 SCF Done:  E(RB3LYP) =  -1185.02035299     A.U. after    8 cycles
 Optimization completed.
    -- Stationary point found.
 Normal termination of Gaussian 16 at Mon Dec 14 13:40:08 2020.

 --------------------------------------------------------------------
 #N Geom=AllCheck Guess=TCheck SCRF=Check GenChk RB3LYP/6-31G(d) Freq
 --------------------------------------------------------------------

 Structure from the checkpoint file:  "JID_9565.chk"
 -------------------------------
 CID_120967869_JID_9565_neutraal
 -------------------------------
 Charge =  0 Multiplicity = 1

 SCF Done:  E(RB3LYP) =  -1185.02035299     A.U. after    1 cycles

  Exact polarizability: 168.522  -0.986 188.768   7.713   4.057 166.409
 Approx polarizability: 221.507   1.576 302.698  14.198   8.870 276.927

                      1                      2                      3
                      A                      A                      A
 Frequencies --     25.4782                26.7068                56.8353
 Red. masses --      4.2112                 5.9936                 3.1894
 Frc consts  --      0.0016                 0.0025                 0.0061
 IR Inten    --      0.0383                 0.0217                 0.9407

                      4                      5                      6
                      A                      A                      A
 Frequencies --     83.3064                86.3994                96.0718
 Red. masses --      4.5845                 3.4539                 4.5909
 Frc consts  --      0.0187                 0.0152                 0.0250
 IR Inten    --      0.9356                 4.5110                 0.7579

                      7                      8                      9
                      A                      A                      A
 Frequencies --    125.4872               163.4767               183.2776
 Red. masses --      3.9347                 3.8556                 3.1651
 Frc consts  --      0.0365                 0.0607                 0.0626
 IR Inten    --      1.8025                 1.2954                 0.7710

                     10                     11                     12
                      A                      A                      A
 Frequencies --    209.2793               223.1400               238.2406
 Red. masses --      2.0330                 2.1815                 2.6865
 Frc consts  --      0.0525                 0.0640                 0.0898
 IR Inten    --      0.4393                 0.8965                 3.1246

                     13                     14                     15
                      A                      A                      A
 Frequencies --    247.9429               279.7064               294.2884
 Red. masses --      1.5919                 2.9001                 3.0001
 Frc consts  --      0.0577                 0.1337                 0.1531
 IR Inten    --      1.7172                 0.9174                 1.2861

                     16                     17                     18
                      A                      A                      A
 Frequencies --    318.2557               344.9044               381.6293
 Red. masses --      3.4108                 1.9336                 1.9993
 Frc consts  --      0.2035                 0.1355                 0.1716
 IR Inten    --      2.0936                 2.6056                 3.3267

                     19                     20                     21
                      A                      A                      A
 Frequencies --    407.9298               424.6351               454.1961
 Red. masses --      2.8530                 2.6372                 4.8095
 Frc consts  --      0.2797                 0.2802                 0.5846
 IR Inten    --      4.5895                 1.4261                 0.6732

                     22                     23                     24
                      A                      A                      A
 Frequencies --    469.1037               482.1434               490.2257
 Red. masses --      2.6745                 3.2292                 4.8749
 Frc consts  --      0.3468                 0.4423                 0.6902
 IR Inten    --      0.2117                 5.6305                 4.7497

                     25                     26                     27
                      A                      A                      A
 Frequencies --    511.9785               555.8638               600.1379
 Red. masses --      3.1747                 2.2930                 2.2507
 Frc consts  --      0.4903                 0.4174                 0.4776
 IR Inten    --      5.0487                 3.5582                14.2783

                     28                     29                     30
                      A                      A                      A
 Frequencies --    602.6519               623.0681               644.4135
 Red. masses --      3.5026                 2.8014                 2.5644
 Frc consts  --      0.7495                 0.6408                 0.6274
 IR Inten    --     11.2919                 7.0125                 9.1510

                     31                     32                     33
                      A                      A                      A
 Frequencies --    672.4888               705.8308               746.6420
 Red. masses --      3.2016                 2.6587                 3.7982
 Frc consts  --      0.8531                 0.7804                 1.2475
 IR Inten    --     12.6232                22.3928                24.7192

                     34                     35                     36
                      A                      A                      A
 Frequencies --    777.3610               819.5703               832.3773
 Red. masses --      2.3765                 2.5876                 2.4704
 Frc consts  --      0.8461                 1.0240                 1.0084
 IR Inten    --     10.2038               108.1001                 6.9714

                     37                     38                     39
                      A                      A                      A
 Frequencies --    835.9538               841.2767               856.8528
 Red. masses --      3.2383                 2.3261                 1.2749
 Frc consts  --      1.3333                 0.9699                 0.5515
 IR Inten    --      2.0855                11.2154                 3.1826

                     40                     41                     42
                      A                      A                      A
 Frequencies --    861.5551               883.9048               894.1494
 Red. masses --      2.2059                 2.7610                 2.4031
 Frc consts  --      0.9647                 1.2710                 1.1320
 IR Inten    --     38.4590                 7.5677                 3.5122

                     43                     44                     45
                      A                      A                      A
 Frequencies --    903.1385               922.9383               962.8055
 Red. masses --      2.2516                 1.7839                 1.5703
 Frc consts  --      1.0821                 0.8953                 0.8576
 IR Inten    --      3.0272                13.0360                 2.8780

                     46                     47                     48
                      A                      A                      A
 Frequencies --    971.6331              1008.9736              1014.3037
 Red. masses --      1.9662                 2.6635                 2.5626
 Frc consts  --      1.0936                 1.5976                 1.5534
 IR Inten    --      5.8011                 8.0909                11.6527

                     49                     50                     51
                      A                      A                      A
 Frequencies --   1034.2277              1049.2760              1065.7221
 Red. masses --      1.5607                 2.5144                 3.3572
 Frc consts  --      0.9836                 1.6311                 2.2466
 IR Inten    --     11.0359                10.1680                18.5771

                     52                     53                     54
                      A                      A                      A
 Frequencies --   1097.0719              1110.8127              1114.2513
 Red. masses --      2.6252                 2.1011                 1.8224
 Frc consts  --      1.8616                 1.5275                 1.3331
 IR Inten    --     54.3295                26.0218                39.3222

                     55                     56                     57
                      A                      A                      A
 Frequencies --   1120.3207              1128.4337              1142.0077
 Red. masses --      2.4776                 2.1468                 4.3217
 Frc consts  --      1.8322                 1.6106                 3.3208
 IR Inten    --     37.7182                15.4192                32.6682

                     58                     59                     60
                      A                      A                      A
 Frequencies --   1164.9522              1180.4802              1188.0336
 Red. masses --      2.8722                 2.7063                 1.2742
 Frc consts  --      2.2965                 2.2220                 1.0596
 IR Inten    --     21.4289                17.6928                 0.8734

                     61                     62                     63
                      A                      A                      A
 Frequencies --   1200.7291              1214.1802              1216.4820
 Red. masses --      2.6362                 1.9830                 1.2795
 Frc consts  --      2.2393                 1.7224                 1.1156
 IR Inten    --     18.3173                42.5501                10.0790

                     64                     65                     66
                      A                      A                      A
 Frequencies --   1217.2044              1227.6453              1269.1736
 Red. masses --      1.4002                 1.3431                 1.3400
 Frc consts  --      1.2223                 1.1927                 1.2717
 IR Inten    --      4.0310                 2.9247                10.6921

                     67                     68                     69
                      A                      A                      A
 Frequencies --   1290.0822              1290.9337              1297.7892
 Red. masses --      1.6244                 1.5461                 1.4886
 Frc consts  --      1.5928                 1.5181                 1.4772
 IR Inten    --     43.1484                53.6325                 3.5811

                     70                     71                     72
                      A                      A                      A
 Frequencies --   1317.4701              1349.7370              1354.0357
 Red. masses --      1.3444                 1.2701                 1.2898
 Frc consts  --      1.3748                 1.3633                 1.3933
 IR Inten    --     11.3931                 0.7358                16.2396

                     73                     74                     75
                      A                      A                      A
 Frequencies --   1357.6087              1369.2515              1380.3608
 Red. masses --      1.2664                 1.2785                 1.2544
 Frc consts  --      1.3752                 1.4123                 1.4082
 IR Inten    --      6.5360                 2.0744                34.4063

                     76                     77                     78
                      A                      A                      A
 Frequencies --   1385.0990              1393.0924              1396.3359
 Red. masses --      1.3244                 1.4400                 1.3403
 Frc consts  --      1.4971                 1.6465                 1.5397
 IR Inten    --      5.7707                 3.0383                 4.5584

                     79                     80                     81
                      A                      A                      A
 Frequencies --   1398.9071              1419.1593              1429.2413
 Red. masses --      1.3385                 1.2292                 2.6343
 Frc consts  --      1.5433                 1.4586                 3.1705
 IR Inten    --     21.4087                 3.0973                62.6660

                     82                     83                     84
                      A                      A                      A
 Frequencies --   1430.3489              1448.0341              1486.5959
 Red. masses --      1.5454                 1.3400                 5.1674
 Frc consts  --      1.8628                 1.6555                 6.7284
 IR Inten    --     39.4842                11.9640                 9.8615

                     85                     86                     87
                      A                      A                      A
 Frequencies --   1492.0649              1501.0847              1503.6181
 Red. masses --      1.1077                 1.0949                 1.0866
 Frc consts  --      1.4530                 1.4536                 1.4475
 IR Inten    --      7.7303                 5.8180                 4.1521

                     88                     89                     90
                      A                      A                      A
 Frequencies --   1506.4146              1508.4901              1511.7055
 Red. masses --      1.1471                 1.2496                 1.1150
 Frc consts  --      1.5337                 1.6753                 1.5013
 IR Inten    --      2.4333                 3.3142                 1.3042

                     91                     92                     93
                      A                      A                      A
 Frequencies --   1513.7517              1520.1600              1520.9762
 Red. masses --      1.1517                 1.1071                 1.0511
 Frc consts  --      1.5549                 1.5074                 1.4326
 IR Inten    --      4.0877                 2.7152                 3.8093

                     94                     95                     96
                      A                      A                      A
 Frequencies --   1534.7085              1537.4332              1554.9375
 Red. masses --      1.0529                 1.0890                 1.0882
 Frc consts  --      1.4611                 1.5166                 1.5501
 IR Inten    --     21.4574                 2.9692                 3.1560

                     97                     98                     99
                      A                      A                      A
 Frequencies --   1620.2382              2976.8186              2983.7556
 Red. masses --      6.1289                 1.0730                 1.0728
 Frc consts  --      9.4796                 5.6019                 5.6271
 IR Inten    --     70.6253                23.9192               106.9419

                    100                    101                    102
                      A                      A                      A
 Frequencies --   3011.2459              3027.0089              3032.5406
 Red. masses --      1.0725                 1.0347                 1.0823
 Frc consts  --      5.7298                 5.5858                 5.8644
 IR Inten    --     72.2557                55.3561                14.5418

                    103                    104                    105
                      A                      A                      A
 Frequencies --   3041.2672              3048.6367              3049.9553
 Red. masses --      1.0595                 1.0746                 1.0638
 Frc consts  --      5.7739                 5.8844                 5.8302
 IR Inten    --     36.7979                69.6311                49.1887

                    106                    107                    108
                      A                      A                      A
 Frequencies --   3057.9634              3076.1697              3077.8306
 Red. masses --      1.0634                 1.0665                 1.0914
 Frc consts  --      5.8589                 5.9462                 6.0913
 IR Inten    --     49.2181                50.3376                56.9440

                    109                    110                    111
                      A                      A                      A
 Frequencies --   3086.5843              3087.5979              3099.0381
 Red. masses --      1.1067                 1.1041                 1.0933
 Frc consts  --      6.2123                 6.2018                 6.1867
 IR Inten    --     51.2114                28.2712                38.7798

                    112                    113                    114
                      A                      A                      A
 Frequencies --   3099.5239              3108.0269              3127.7775
 Red. masses --      1.0996                 1.1022                 1.0927
 Frc consts  --      6.2242                 6.2731                 6.2984
 IR Inten    --     36.5004                16.2632                 9.8819

                    115                    116                    117
                      A                      A                      A
 Frequencies --   3139.3225              3151.6009              3162.4848
 Red. masses --      1.0997                 1.0869                 1.0998
 Frc consts  --      6.3855                 6.3606                 6.4809
 IR Inten    --     28.1816                18.1588                20.1558

                    118                    119                    120
                      A                      A                      A
 Frequencies --   3239.7157              3274.0122              3442.7755
 Red. masses --      1.0897                 1.0974                 1.0732
 Frc consts  --      6.7389                 6.9308                 7.4949
 IR Inten    --      3.9576                 0.4241                 6.9196

 - Thermochemistry -
 -------------------
 Temperature   298.150 Kelvin.  Pressure   1.00000 Atm.
 Atom     1 has atomic number  6 and mass  12.00000

 Molecular mass:   281.15618 amu.
 Principal axes and moments of inertia in atomic units:
                           1         2         3
     Eigenvalues --  3833.790136409.563077193.58132
           X            0.99985  -0.00786  -0.01524
           Y            0.00838   0.99938   0.03409
           Z            0.01496  -0.03421   0.99930
 This molecule is an asymmetric top.
 Rotational symmetry number  1.
 Warning -- assumption of classical behavior for rotation
           may cause significant error
 Rotational temperatures (Kelvin)      0.02259     0.01351     0.01204
 Rotational constants (GHZ):           0.47075     0.28157     0.25088
 Zero-point vibrational energy     968525.7 (Joules/Mol)
                                  231.48320 (Kcal/Mol)
 Warning -- explicit consideration of  28 degrees of freedom as
           vibrations may cause significant error
 Vibrational temperatures:     36.66    38.43    81.77   119.86   124.31
          (Kelvin)            138.23   180.55   235.21   263.70   301.11
                              321.05   342.78   356.73   402.44   423.42
                              457.90   496.24   549.08   586.92   610.96
                              653.49   674.94   693.70   705.33   736.62
                              799.76   863.46   867.08   896.46   927.17
                              967.56  1015.53  1074.25  1118.45  1179.18
                             1197.61  1202.75  1210.41  1232.82  1239.59
                             1271.74  1286.48  1299.41  1327.90  1385.26
                             1397.96  1451.69  1459.36  1488.02  1509.67
                             1533.34  1578.44  1598.21  1603.16  1611.89
                             1623.56  1643.09  1676.11  1698.45  1709.32
                             1727.58  1746.93  1750.25  1751.29  1766.31
                             1826.06  1856.14  1857.37  1867.23  1895.55
                             1941.97  1948.16  1953.30  1970.05  1986.03
                             1992.85  2004.35  2009.02  2012.72  2041.85
                             2056.36  2057.95  2083.40  2138.88  2146.75
                             2159.73  2163.37  2167.39  2170.38  2175.01
                             2177.95  2187.17  2188.35  2208.10  2212.02
                             2237.21  2331.16  4282.98  4292.96  4332.51
                             4355.19  4363.15  4375.71  4386.31  4388.21
                             4399.73  4425.92  4428.31  4440.91  4442.36
                             4458.82  4459.52  4471.76  4500.17  4516.78
                             4534.45  4550.11  4661.23  4710.57  4953.39

 Zero-point correction=                           0.368892 (Hartree/Particle)
 Thermal correction to Energy=                    0.386856
 Thermal correction to Enthalpy=                  0.387800
 Thermal correction to Gibbs Free Energy=         0.322126
 Sum of electronic and zero-point Energies=          -1184.651461
 Sum of electronic and thermal Energies=             -1184.633497
 Sum of electronic and thermal Enthalpies=           -1184.632553
 Sum of electronic and thermal Free Energies=        -1184.698227

                     E (Thermal)             CV                S
                      KCal/Mol        Cal/Mol-Kelvin    Cal/Mol-Kelvin
 Total                  242.756             70.747            138.223
 Electronic               0.000              0.000              0.000
 Translational            0.889              2.981             42.799
 Rotational               0.889              2.981             33.535
 Vibrational            240.978             64.785             61.889
 Vibration     1          0.593              1.985              6.154
 Vibration     2          0.593              1.984              6.060
 Vibration     3          0.596              1.975              4.564
 Vibration     4          0.600              1.961              3.811
 Vibration     5          0.601              1.959              3.740
 Vibration     6          0.603              1.952              3.532
 Vibration     7          0.610              1.928              3.014
 Vibration     8          0.623              1.887              2.509
 Vibration     9          0.631              1.863              2.295
 Vibration    10          0.642              1.827              2.050
 Vibration    11          0.649              1.806              1.933
 Vibration    12          0.656              1.782              1.816
 Vibration    13          0.662              1.766              1.745
 Vibration    14          0.680              1.711              1.535
 Vibration    15          0.689              1.684              1.449
 Vibration    16          0.705              1.639              1.319
 Vibration    17          0.723              1.586              1.189
 Vibration    18          0.751              1.509              1.033
 Vibration    19          0.772              1.453              0.934
 Vibration    20          0.787              1.417              0.876
 Vibration    21          0.813              1.352              0.783
 Vibration    22          0.826              1.319              0.740
 Vibration    23          0.838              1.290              0.704
 Vibration    24          0.846              1.272              0.683
 Vibration    25          0.867              1.223              0.629
 Vibration    26          0.911              1.127              0.532
 Vibration    27          0.958              1.032              0.449
 Vibration    28          0.961              1.026              0.445

 Optimization completed.
    -- Stationary point found.
 Normal termination of Gaussian 16 at Mon Dec 14 14:09:43 2020.

 ----------------------------------------------------------------------
 # B3LYP/6-311++G(d,p) empiricaldispersion=gd3bj scf=xqc pop=npa geom=c
 heck
 ----------------------------------------------------------------------

 ---------------------------------------
 CID_120967869_JID_9565_Energie_neutraal
 ---------------------------------------
 Structure from the checkpoint file:  "JID_9565.chk"
 Charge =  0 Multiplicity = 1

 SCF Done:  E(RB3LYP) =  -1185.26180892     A.U. after   17 cycles
 Normal termination of Gaussian 16 at Mon Dec 14 14:25:04 2020.

 ----------------------------------------------------------------------
 # B3LYP/6-311++G(d,p) empiricaldispersion=gd3bj scf=xqc pop=npa geom=c
 heck
 ----------------------------------------------------------------------

 -------------------------------------
 CID_120967869_JID_9565_Energie_kation
 -------------------------------------
 Structure from the checkpoint file:  "JID_9565.chk"
 Charge =  1 Multiplicity = 2

 SCF Done:  E(UB3LYP) =  -1185.01444855     A.U. after   26 cycles
 Normal termination of Gaussian 16 at Mon Dec 14 14:58:10 2020.
 Gaussian 16:  ES64L-G16RevA.03 25-Dec-2016

 ----------------------------------------------------------------------
 # B3LYP/6-311++G(d,p) empiricaldispersion=gd3bj scf=xqc pop=npa geom=c
 heck
 ----------------------------------------------------------------------

 ------------------------------------
 CID_120967869_JID_9565_Energie_anion
 ------------------------------------
 Structure from the checkpoint file:  "JID_9565.chk"
 Charge = -1 Multiplicity = 2

                         Standard orientation:
 ---------------------------------------------------------------------
 Center     Atomic      Atomic             Coordinates (Angstroms)
 Number     Number       Type             X           Y           Z
 ---------------------------------------------------------------------
      1          6           0        1.772757   -2.454936   -2.155232
      2          8           0        1.862591   -1.102135   -1.736078
      3          6           0        2.049564   -0.875449   -0.398723
      4          6           0        2.182314    0.413325    0.068905
      5         16           0        2.411010    0.390832    1.799599
      6          6           0        2.298008   -1.334369    1.865572
      7          6           0        2.108541   -1.877541    0.624344
      8          6           0        2.086550    1.701865   -0.718771
      9          7           0        0.769234    2.334465   -0.817968
     10          6           0        0.164490    2.728931    0.467035
     11          6           0       -0.892231    1.666448    0.775725
     12          6           0       -1.477165    1.392379   -0.630591
     13          6           0       -0.241000    1.555427   -1.560577
     14          7           0       -2.227666    0.172376   -0.899854
     15          6           0       -1.594092   -1.114504   -0.615355
     16          6           0       -1.860848   -1.655585    0.801649
     17          7           0       -3.282306   -1.650099    1.171361
     18          6           0       -3.875953   -0.329158    0.925670
     19          6           0       -3.633882    0.171807   -0.507920
     20          1           0        1.650836   -2.426795   -3.239085
     21          1           0        0.904739   -2.955972   -1.706885
     22          1           0        2.683876   -3.013306   -1.904360
     23          1           0        2.386679   -1.854072    2.809393
     24          1           0        2.020115   -2.941991    0.448096
     25          1           0        2.778810    2.439594   -0.297259
     26          1           0        2.430772    1.493130   -1.736672
     27          1           0       -0.308020    3.716749    0.359656
     28          1           0        0.929555    2.821575    1.244061
     29          1           0       -0.405289    0.770977    1.169037
     30          1           0       -1.648844    1.994383    1.496363
     31          1           0       -2.170385    2.212757   -0.855249
     32          1           0        0.157326    0.581484   -1.853020
     33          1           0       -0.530828    2.074277   -2.482959
     34          1           0       -1.990556   -1.846983   -1.338950
     35          1           0       -0.520713   -1.036947   -0.796097
     36          1           0       -1.322967   -1.056274    1.544189
     37          1           0       -1.481309   -2.681789    0.885875
     38          1           0       -3.769338   -2.329721    0.584187
     39          1           0       -3.436689    0.372584    1.646357
     40          1           0       -4.951360   -0.384088    1.136515
     41          1           0       -4.041217    1.180319   -0.646241
     42          1           0       -4.179251   -0.495158   -1.197075
 ---------------------------------------------------------------------

 SCF Done:  E(UB3LYP) =  -1185.24994778     A.U. after   33 cycles
 SCF Done:  E(UB3LYP) =  -1185.24994778     a.u. after    1 cycles

 The electronic state is 2-A.
 Alpha  occ. eigenvalues --  -88.78636 -19.06340 -14.20920 -14.20700 -14.20211
 Alpha  occ. eigenvalues --  -10.14319 -10.12503 -10.11651 -10.11090 -10.10850
 Alpha  occ. eigenvalues --  -10.10349 -10.10201 -10.09885 -10.09673 -10.09063
 Alpha  occ. eigenvalues --  -10.09024 -10.08907 -10.08809 -10.07070  -7.87258
 Alpha  occ. eigenvalues --   -5.83543  -5.83185  -5.82855  -0.97824  -0.85018
 Alpha  occ. eigenvalues --   -0.83426  -0.79401  -0.78847  -0.69420  -0.66460
 Alpha  occ. eigenvalues --   -0.65863  -0.64997  -0.63546  -0.60340  -0.57796
 Alpha  occ. eigenvalues --   -0.56326  -0.54609  -0.50575  -0.49610  -0.48034
 Alpha  occ. eigenvalues --   -0.46354  -0.45662  -0.42970  -0.42175  -0.39574
 Alpha  occ. eigenvalues --   -0.38277  -0.37611  -0.37229  -0.36369  -0.35808
 Alpha  occ. eigenvalues --   -0.35645  -0.35288  -0.34660  -0.34218  -0.32214
 Alpha  occ. eigenvalues --   -0.31417  -0.30658  -0.30489  -0.29572  -0.28846
 Alpha  occ. eigenvalues --   -0.28488  -0.26967  -0.26657  -0.26576  -0.25945
 Alpha  occ. eigenvalues --   -0.25630  -0.25066  -0.24564  -0.23605  -0.23443
 Alpha  occ. eigenvalues --   -0.22712  -0.15993  -0.15509  -0.13510  -0.11632
 Alpha  occ. eigenvalues --   -0.09720   0.04130
 Alpha virt. eigenvalues --    0.05827   0.06135   0.06651   0.06885   0.07832
 Alpha virt. eigenvalues --    0.08211   0.08364   0.08771   0.09396   0.10047
 Alpha virt. eigenvalues --    0.10383   0.10568   0.10739   0.11201   0.11626

  Beta  occ. eigenvalues --  -88.78632 -19.06331 -14.20918 -14.20698 -14.20199
  Beta  occ. eigenvalues --  -10.14319 -10.12447 -10.11650 -10.11053 -10.10844
  Beta  occ. eigenvalues --  -10.10345 -10.10185 -10.09871 -10.09664 -10.09048
  Beta  occ. eigenvalues --  -10.09019 -10.08895 -10.08787 -10.07067  -7.87255
  Beta  occ. eigenvalues --   -5.83541  -5.83183  -5.82845  -0.97800  -0.85007
  Beta  occ. eigenvalues --   -0.83413  -0.79376  -0.78818  -0.69402  -0.66434
  Beta  occ. eigenvalues --   -0.65821  -0.64962  -0.63533  -0.60293  -0.57748
  Beta  occ. eigenvalues --   -0.56300  -0.54573  -0.50545  -0.49588  -0.47977
  Beta  occ. eigenvalues --   -0.46325  -0.45618  -0.42936  -0.42157  -0.39549
  Beta  occ. eigenvalues --   -0.38242  -0.37586  -0.37176  -0.36339  -0.35788
  Beta  occ. eigenvalues --   -0.35615  -0.35262  -0.34617  -0.34201  -0.32192
  Beta  occ. eigenvalues --   -0.31393  -0.30638  -0.30458  -0.29530  -0.28816
  Beta  occ. eigenvalues --   -0.28473  -0.26950  -0.26638  -0.26553  -0.25922
  Beta  occ. eigenvalues --   -0.25601  -0.25044  -0.24524  -0.23575  -0.23403
  Beta  occ. eigenvalues --   -0.22696  -0.15921  -0.15477  -0.13456  -0.11580
  Beta  occ. eigenvalues --   -0.09692
  Beta virt. eigenvalues --    0.05961   0.06361   0.06861   0.06962   0.07409
  Beta virt. eigenvalues --    0.08078   0.08477   0.08773   0.09242   0.09501
  Beta virt. eigenvalues --    0.10239   0.10582   0.10879   0.11115   0.11476

 Mulliken charges and spin densities:
               1          2
     1  C    1.155049  -1.440723
     2  O   -0.149181   0.023312
     3  C   -1.112163   0.887717
     4  C   -0.220396   0.710500
     5  S    0.609226  -0.386645
     6  C   -0.185786  -0.345942
     7  C    1.516546  -1.320668
     8  C   -0.795680  -0.394629
     9  N    0.302569   0.002473
    10  C   -0.368002  -0.355290
    11  C   -0.113043   0.288058
    12  C   -0.028057  -0.645282
    13  C   -0.597532   0.119700
    14  N    0.247218   0.059981
    15  C   -0.315209   0.200068
    16  C   -0.590395   0.015725
    17  N   -0.066838   0.017586
    18  C    0.166328  -0.538416
    19  C   -0.139099   0.109900
    20  H   -0.427113   0.583647
    21  H   -0.392130   0.574710
    22  H   -0.506856   0.671118
    23  H   -0.352687   0.601471
    24  H   -0.501963   0.695333
    25  H    0.096150   0.070661
    26  H    0.151778   0.052182
    27  H    0.002335   0.146852
    28  H    0.129755   0.005661
    29  H   -0.056974   0.127709
    30  H    0.116569   0.071516
    31  H    0.164955  -0.010057
    32  H    0.131086   0.062236
    33  H   -0.022227   0.192350
    34  H   -0.275359   0.512592
    35  H    1.615659  -1.719444
    36  H    0.179760   0.004327
    37  H   -0.192973   0.362046
    38  H    0.088251   0.134443
    39  H    0.131232   0.000190
    40  H   -0.203627   0.391319
    41  H   -0.123809   0.221953
    42  H   -0.067366   0.239759
 Sum of Mulliken charges =  -1.00000   1.00000

 Dipole moment (field-independent basis, Debye):
    X=              0.4276    Y=              8.0869    Z=              2.4178  Tot=              8.4514
 Quadrupole moment (field-independent basis, Debye-Ang):
   XX=           -189.1726   YY=           -192.2795   ZZ=           -169.2902
   XY=              6.4230   XZ=              4.7839   YZ=             -3.2751

 Summary of Natural Population Analysis:

                                       Natural Population
                Natural  -----------------------------------------------
    Atom  No    Charge         Core      Valence    Rydberg      Total
 -----------------------------------------------------------------------
      C    1   -0.09937      0.99960     2.09040    0.00937     3.09937
      O    2   -0.27592      0.99985     3.26710    0.00896     4.27592
      C    3    0.13036      0.99924     1.85476    0.01563     2.86964
      C    4   -0.14091      0.99944     2.12890    0.01257     3.14091
      S    5    0.20381      4.99941     2.77652    0.02026     7.79619
      C    6   -0.18369      0.99955     2.17235    0.01179     3.18369
      C    7   -0.15155      0.99948     2.14073    0.01134     3.15155
      C    8   -0.09496      0.99956     2.08301    0.01239     3.09496
      N    9   -0.28227      0.99974     2.76969    0.01284     3.78227
      C   10   -0.08474      0.99963     2.07558    0.00953     3.08474
      C   11   -0.21468      0.99960     2.20751    0.00757     3.21468
      C   12   -0.00237      0.99957     1.98995    0.01285     3.00237
      C   13   -0.09179      0.99960     2.07994    0.01226     3.09179
      N   14   -0.28012      0.99971     2.76569    0.01473     3.78012
      C   15   -0.10019      0.99959     2.08693    0.01367     3.10019
      C   16   -0.09813      0.99962     2.08709    0.01142     3.09813
      N   17   -0.33564      0.99977     2.82346    0.01241     3.83564
      C   18   -0.09875      0.99962     2.08830    0.01083     3.09875
      C   19   -0.08927      0.99961     2.07839    0.01127     3.08927
      H   20    0.09522      0.00000     0.40344    0.00134     0.40478
      H   21    0.08698      0.00000     0.41054    0.00248     0.41302
      H   22    0.08768      0.00000     0.41004    0.00228     0.41232
      H   23    0.11147      0.00000     0.38754    0.00099     0.38853
      H   24    0.11707      0.00000     0.38045    0.00247     0.38293
      H   25    0.09819      0.00000     0.40077    0.00105     0.40181
      H   26    0.10880      0.00000     0.38987    0.00134     0.39120
      H   27    0.08834      0.00000     0.41038    0.00128     0.41166
      H   28    0.09567      0.00000     0.40320    0.00113     0.40433
      H   29    0.10250      0.00000     0.39514    0.00236     0.39750
      H   30    0.09791      0.00000     0.40097    0.00112     0.40209
      H   31    0.09197      0.00000     0.40657    0.00146     0.40803
      H   32    0.10376      0.00000     0.39405    0.00219     0.39624
      H   33    0.09211      0.00000     0.40659    0.00130     0.40789
      H   34    0.09155      0.00000     0.40665    0.00181     0.40845
      H   35    0.10151      0.00000     0.39531    0.00318     0.39849
      H   36    0.08901      0.00000     0.40906    0.00193     0.41099
      H   37    0.09805      0.00000     0.40066    0.00129     0.40195
      H   38    0.16787      0.00000     0.32958    0.00255     0.33213
      H   39    0.08782      0.00000     0.41078    0.00140     0.41218
      H   40    0.09284      0.00000     0.40611    0.00104     0.40716
      H   41    0.09434      0.00000     0.40443    0.00123     0.40566
      H   42    0.08951      0.00000     0.40905    0.00143     0.41049
 =======================================================================
   * Total *   -0.00000     22.99218    52.73750    0.27032    76.00000

 Normal termination of Gaussian 16 at Mon Dec 14 15:39:29 2020.
