 Gaussian 16, Revision A.03,

 -----------------------------------------------------------
 # opt freq B3LYP/6-31G(d) empiricaldispersion=gd3bj scf=xqc
 -----------------------------------------------------------

 -------------------------------
 CID_116906342_JID_4527_neutraal
 -------------------------------
 Symbolic Z-matrix:
 Charge =  0 Multiplicity = 1

 SCF Done:  E(RB3LYP) =  -581.266915628     A.U. after   12 cycles
 SCF Done:  E(RB3LYP) =  -581.272861404     A.U. after   11 cycles
 SCF Done:  E(RB3LYP) =  -581.271481693     A.U. after   11 cycles
 SCF Done:  E(RB3LYP) =  -581.273387327     A.U. after   11 cycles
 SCF Done:  E(RB3LYP) =  -581.273881847     A.U. after   10 cycles
 SCF Done:  E(RB3LYP) =  -581.273894018     A.U. after   10 cycles
 SCF Done:  E(RB3LYP) =  -581.273981290     A.U. after   10 cycles
 SCF Done:  E(RB3LYP) =  -581.274039891     A.U. after    9 cycles
 SCF Done:  E(RB3LYP) =  -581.274191758     A.U. after   10 cycles
 SCF Done:  E(RB3LYP) =  -581.274309851     A.U. after   10 cycles
 SCF Done:  E(RB3LYP) =  -581.274823292     A.U. after   10 cycles
 SCF Done:  E(RB3LYP) =  -581.275032838     A.U. after   10 cycles
 SCF Done:  E(RB3LYP) =  -581.275041317     A.U. after    9 cycles
 SCF Done:  E(RB3LYP) =  -581.275043463     A.U. after    8 cycles
 SCF Done:  E(RB3LYP) =  -581.275042174     A.U. after    8 cycles
 SCF Done:  E(RB3LYP) =  -581.275043890     A.U. after    8 cycles
 Optimization completed.
    -- Stationary point found.
 Normal termination of Gaussian 16 at Thu Dec 10 10:26:05 2020.

 --------------------------------------------------------------------
 #N Geom=AllCheck Guess=TCheck SCRF=Check GenChk RB3LYP/6-31G(d) Freq
 --------------------------------------------------------------------

 Structure from the checkpoint file:  "JID_4527.chk"
 -------------------------------
 CID_116906342_JID_4527_neutraal
 -------------------------------
 Charge =  0 Multiplicity = 1

 SCF Done:  E(RB3LYP) =  -581.275043890     A.U. after    1 cycles

  Exact polarizability: 142.412   0.050 137.623  -0.386   1.030 123.109
 Approx polarizability: 184.053   0.968 188.440  -1.852   2.075 182.495

                      1                      2                      3
                      A                      A                      A
 Frequencies --     55.9788                58.7385                82.4988
 Red. masses --      2.5825                 2.7733                 2.7315
 Frc consts  --      0.0048                 0.0056                 0.0110
 IR Inten    --      0.5042                 0.1317                 0.8848

                      4                      5                      6
                      A                      A                      A
 Frequencies --     90.9622                94.2721               143.5738
 Red. masses --      2.6036                 2.0608                 2.4358
 Frc consts  --      0.0127                 0.0108                 0.0296
 IR Inten    --      0.1667                 0.5239                 0.6837

                      7                      8                      9
                      A                      A                      A
 Frequencies --    166.9303               181.3122               238.6823
 Red. masses --      2.9877                 2.5140                 2.1140
 Frc consts  --      0.0491                 0.0487                 0.0710
 IR Inten    --      0.4947                 0.0239                 2.0572

                     10                     11                     12
                      A                      A                      A
 Frequencies --    248.4986               254.3583               294.3210
 Red. masses --      1.9578                 1.5927                 2.6408
 Frc consts  --      0.0712                 0.0607                 0.1348
 IR Inten    --      0.8797                 0.2884                 0.2944

                     13                     14                     15
                      A                      A                      A
 Frequencies --    307.3660               324.6227               344.2075
 Red. masses --      2.0884                 1.4040                 1.9102
 Frc consts  --      0.1162                 0.0872                 0.1333
 IR Inten    --      1.2137                 0.3852                 0.4871

                     16                     17                     18
                      A                      A                      A
 Frequencies --    404.3497               474.3180               510.1892
 Red. masses --      2.9087                 2.3933                 2.2180
 Frc consts  --      0.2802                 0.3172                 0.3401
 IR Inten    --      9.5577                 0.1058                 0.9507

                     19                     20                     21
                      A                      A                      A
 Frequencies --    558.9187               582.5268               646.6514
 Red. masses --      2.1048                 2.3461                 2.6194
 Frc consts  --      0.3874                 0.4691                 0.6453
 IR Inten    --      6.7307                 0.1638                 2.4256

                     22                     23                     24
                      A                      A                      A
 Frequencies --    675.3901               728.1549               792.3362
 Red. masses --      2.8269                 3.1272                 2.4447
 Frc consts  --      0.7598                 0.9769                 0.9042
 IR Inten    --      2.1009                 0.9620                 1.4805

                     25                     26                     27
                      A                      A                      A
 Frequencies --    804.4227               837.0116               860.0501
 Red. masses --      1.3700                 2.4854                 2.2978
 Frc consts  --      0.5223                 1.0259                 1.0014
 IR Inten    --      3.4694                 7.8293                 1.0222

                     28                     29                     30
                      A                      A                      A
 Frequencies --    879.8647               885.6163               902.8250
 Red. masses --      2.0818                 2.1580                 2.2693
 Frc consts  --      0.9495                 0.9972                 1.0898
 IR Inten    --      0.9799                 0.8251                13.1757

                     31                     32                     33
                      A                      A                      A
 Frequencies --    914.2756               923.9950               931.4527
 Red. masses --      2.1687                 2.3861                 2.0248
 Frc consts  --      1.0681                 1.2003                 1.0350
 IR Inten    --     29.1236                 0.4352                 6.2871

                     34                     35                     36
                      A                      A                      A
 Frequencies --    971.7477               984.6694               992.4041
 Red. masses --      1.8814                 1.8941                 2.5078
 Frc consts  --      1.0467                 1.0820                 1.4552
 IR Inten    --     29.0605                29.5977                 7.8014

                     37                     38                     39
                      A                      A                      A
 Frequencies --   1020.3945              1036.8453              1049.4062
 Red. masses --      2.2970                 1.9302                 1.4206
 Frc consts  --      1.4091                 1.2226                 0.9218
 IR Inten    --     11.1736                 4.5154                 2.0632

                     40                     41                     42
                      A                      A                      A
 Frequencies --   1064.9780              1070.3062              1074.6052
 Red. masses --      1.6278                 1.8438                 2.0920
 Frc consts  --      1.0877                 1.2445                 1.4233
 IR Inten    --      7.1108                18.2025                36.8514

                     43                     44                     45
                      A                      A                      A
 Frequencies --   1085.0695              1092.8837              1114.0986
 Red. masses --      1.7024                 1.9397                 2.7375
 Frc consts  --      1.1809                 1.3650                 2.0020
 IR Inten    --     18.9501                 9.8050                20.1922

                     46                     47                     48
                      A                      A                      A
 Frequencies --   1134.7291              1137.3550              1193.7739
 Red. masses --      1.6112                 1.6091                 1.5039
 Frc consts  --      1.2223                 1.2264                 1.2627
 IR Inten    --      6.5134                 4.8622                 8.1312

                     49                     50                     51
                      A                      A                      A
 Frequencies --   1200.7337              1205.9998              1218.5754
 Red. masses --      1.4550                 1.5461                 1.5016
 Frc consts  --      1.2360                 1.3249                 1.3137
 IR Inten    --      0.2198                 1.5056                11.3777

                     52                     53                     54
                      A                      A                      A
 Frequencies --   1232.0179              1255.5012              1262.6991
 Red. masses --      1.8274                 1.4420                 1.3741
 Frc consts  --      1.6343                 1.3392                 1.2908
 IR Inten    --      1.7325                 6.0811                 0.3261

                     55                     56                     57
                      A                      A                      A
 Frequencies --   1277.7594              1289.8795              1296.7567
 Red. masses --      1.2874                 1.4864                 1.2502
 Frc consts  --      1.2384                 1.4571                 1.2386
 IR Inten    --      3.9999                 2.4891                 0.1786

                     58                     59                     60
                      A                      A                      A
 Frequencies --   1310.8326              1322.9444              1328.3541
 Red. masses --      1.9902                 1.3494                 1.3882
 Frc consts  --      2.0148                 1.3915                 1.4433
 IR Inten    --      8.9911                 5.0656                 1.5913

                     61                     62                     63
                      A                      A                      A
 Frequencies --   1332.3251              1343.9531              1357.4634
 Red. masses --      1.3704                 1.2487                 1.2925
 Frc consts  --      1.4332                 1.3288                 1.4032
 IR Inten    --      3.9251                 0.7311                 1.1788

                     64                     65                     66
                      A                      A                      A
 Frequencies --   1361.6309              1368.2220              1370.7252
 Red. masses --      1.2988                 1.3377                 1.3508
 Frc consts  --      1.4188                 1.4754                 1.4953
 IR Inten    --      1.1941                 3.8521                 2.8284

                     67                     68                     69
                      A                      A                      A
 Frequencies --   1385.5687              1396.8732              1417.7462
 Red. masses --      1.3256                 1.4356                 1.4354
 Frc consts  --      1.4994                 1.6504                 1.6999
 IR Inten    --     11.3162                 3.7424                 7.3835

                     70                     71                     72
                      A                      A                      A
 Frequencies --   1443.2857              1469.0692              1488.0002
 Red. masses --      1.3090                 1.1527                 1.1616
 Frc consts  --      1.6066                 1.4657                 1.5153
 IR Inten    --      6.7022                 3.6537                23.2503

                     73                     74                     75
                      A                      A                      A
 Frequencies --   1503.1824              1515.5630              1516.1281
 Red. masses --      1.1777                 1.0511                 1.0868
 Frc consts  --      1.5679                 1.4225                 1.4719
 IR Inten    --      1.2534                 8.4270                 2.8170

                     76                     77                     78
                      A                      A                      A
 Frequencies --   1519.7589              1522.0074              1526.9690
 Red. masses --      1.0846                 1.0908                 1.0881
 Frc consts  --      1.4759                 1.4888                 1.4947
 IR Inten    --      3.1414                 1.0480                 1.4054

                     79                     80                     81
                      A                      A                      A
 Frequencies --   1530.4732              1534.0862              1537.0657
 Red. masses --      1.0726                 1.0539                 1.0718
 Frc consts  --      1.4802                 1.4613                 1.4920
 IR Inten    --     15.0644                 2.9737                 1.1626

                     82                     83                     84
                      A                      A                      A
 Frequencies --   1543.3492              1550.3334              1554.3880
 Red. masses --      1.1011                 1.0782                 1.0677
 Frc consts  --      1.5453                 1.5269                 1.5199
 IR Inten    --      1.2148                 2.4122                 8.0167

                     85                     86                     87
                      A                      A                      A
 Frequencies --   2940.1655              2964.6719              3031.0815
 Red. masses --      1.0610                 1.0603                 1.0819
 Frc consts  --      5.4039                 5.4909                 5.8566
 IR Inten    --     72.7697                90.9085                14.1366

                     88                     89                     90
                      A                      A                      A
 Frequencies --   3033.2762              3034.8085              3042.3224
 Red. masses --      1.0837                 1.0702                 1.0702
 Frc consts  --      5.8749                 5.8072                 5.8361
 IR Inten    --     38.4196                38.9447                13.1548

                     91                     92                     93
                      A                      A                      A
 Frequencies --   3043.8118              3051.2647              3052.6391
 Red. masses --      1.0727                 1.0663                 1.0614
 Frc consts  --      5.8553                 5.8492                 5.8274
 IR Inten    --     14.2492                41.5786                24.6654

                     94                     95                     96
                      A                      A                      A
 Frequencies --   3056.8810              3069.5763              3071.4816
 Red. masses --      1.0683                 1.0626                 1.0760
 Frc consts  --      5.8814                 5.8990                 5.9808
 IR Inten    --     70.9244                51.2583                22.7536

                     97                     98                     99
                      A                      A                      A
 Frequencies --   3072.4412              3074.7211              3086.3870
 Red. masses --      1.0643                 1.0736                 1.0998
 Frc consts  --      5.9196                 5.9800                 6.1726
 IR Inten    --      9.1417                78.0193                19.8101

                    100                    101                    102
                      A                      A                      A
 Frequencies --   3090.5658              3094.4838              3101.6470
 Red. masses --      1.1037                 1.0937                 1.1038
 Frc consts  --      6.2110                 6.1703                 6.2565
 IR Inten    --     18.6801                41.4946                76.5834

                    103                    104                    105
                      A                      A                      A
 Frequencies --   3105.0144              3119.0512              3119.8523
 Red. masses --      1.1020                 1.1056                 1.1049
 Frc consts  --      6.2596                 6.3370                 6.3365
 IR Inten    --     18.7059                68.3840                16.2904

                    106                    107                    108
                      A                      A                      A
 Frequencies --   3120.2523              3166.7040              3452.8097
 Red. masses --      1.1036                 1.0961                 1.0727
 Frc consts  --      6.3305                 6.4760                 7.5351
 IR Inten    --     57.1316                 9.2898                 3.3769

 - Thermochemistry -
 -------------------
 Temperature   298.150 Kelvin.  Pressure   1.00000 Atm.
 Atom     1 has atomic number  6 and mass  12.00000

 Molecular mass:   196.19395 amu.
 Principal axes and moments of inertia in atomic units:
                           1         2         3
     Eigenvalues --  2258.477933270.843614237.84945
           X            0.99999  -0.00002   0.00389
           Y           -0.00000   0.99999   0.00469
           Z           -0.00389  -0.00469   0.99998
 This molecule is an asymmetric top.
 Rotational symmetry number  1.
 Warning -- assumption of classical behavior for rotation
           may cause significant error
 Rotational temperatures (Kelvin)      0.03835     0.02648     0.02044
 Rotational constants (GHZ):           0.79910     0.55177     0.42586
 Zero-point vibrational energy     936126.1 (Joules/Mol)
                                  223.73952 (Kcal/Mol)
 Warning -- explicit consideration of  20 degrees of freedom as
           vibrations may cause significant error
 Vibrational temperatures:     80.54    84.51   118.70   130.87   135.64
          (Kelvin)            206.57   240.18   260.87   343.41   357.53
                              365.96   423.46   442.23   467.06   495.24
                              581.77   682.44   734.05   804.16   838.13
                              930.39   971.74  1047.65  1140.00  1157.38
                             1204.27  1237.42  1265.93  1274.20  1298.96
                             1315.44  1329.42  1340.15  1398.13  1416.72
                             1427.85  1468.12  1491.79  1509.86  1532.27
                             1539.93  1546.12  1561.17  1572.42  1602.94
                             1632.62  1636.40  1717.57  1727.59  1735.16
                             1753.26  1772.60  1806.39  1816.74  1838.41
                             1855.85  1865.74  1886.00  1903.42  1911.21
                             1916.92  1933.65  1953.09  1959.08  1968.57
                             1972.17  1993.52  2009.79  2039.82  2076.57
                             2113.66  2140.90  2162.74  2180.56  2181.37
                             2186.59  2189.83  2196.97  2202.01  2207.21
                             2211.49  2220.54  2230.58  2236.42  4230.24
                             4265.50  4361.05  4364.21  4366.41  4377.22
                             4379.37  4390.09  4392.07  4398.17  4416.44
                             4419.18  4420.56  4423.84  4440.62  4446.63
                             4452.27  4462.58  4467.42  4487.62  4488.77
                             4489.35  4556.18  4967.82

 Zero-point correction=                           0.356552 (Hartree/Particle)
 Thermal correction to Energy=                    0.371039
 Thermal correction to Enthalpy=                  0.371983
 Thermal correction to Gibbs Free Energy=         0.315215
 Sum of electronic and zero-point Energies=           -580.918492
 Sum of electronic and thermal Energies=              -580.904005
 Sum of electronic and thermal Enthalpies=            -580.903060
 Sum of electronic and thermal Free Energies=         -580.959829

                     E (Thermal)             CV                S
                      KCal/Mol        Cal/Mol-Kelvin    Cal/Mol-Kelvin
 Total                  232.831             56.287            119.479
 Electronic               0.000              0.000              0.000
 Translational            0.889              2.981             41.727
 Rotational               0.889              2.981             31.815
 Vibrational            231.053             50.326             45.937
 Vibration     1          0.596              1.975              4.594
 Vibration     2          0.596              1.974              4.499
 Vibration     3          0.600              1.961              3.831
 Vibration     4          0.602              1.956              3.639
 Vibration     5          0.603              1.953              3.569
 Vibration     6          0.616              1.910              2.756
 Vibration     7          0.624              1.883              2.470
 Vibration     8          0.630              1.865              2.315
 Vibration     9          0.657              1.781              1.813
 Vibration    10          0.662              1.765              1.741
 Vibration    11          0.665              1.755              1.700
 Vibration    12          0.689              1.684              1.449
 Vibration    13          0.697              1.660              1.376
 Vibration    14          0.709              1.626              1.287
 Vibration    15          0.723              1.587              1.193
 Vibration    16          0.770              1.461              0.947
 Vibration    17          0.831              1.307              0.726
 Vibration    18          0.865              1.227              0.633
 Vibration    19          0.914              1.120              0.526
 Vibration    20          0.939              1.069              0.481

                           ! Non-Optimized Parameters !
 Normal termination of Gaussian 16 at Thu Dec 10 10:39:51 2020.

 ----------------------------------------------------------------------
 # B3LYP/6-311++G(d,p) empiricaldispersion=gd3bj scf=xqc pop=npa geom=c
 heck
 ----------------------------------------------------------------------

 ---------------------------------------
 CID_116906342_JID_4527_Energie_neutraal
 ---------------------------------------
 Structure from the checkpoint file:  "JID_4527.chk"
 Charge =  0 Multiplicity = 1

 SCF Done:  E(RB3LYP) =  -581.434255547     A.U. after   13 cycles
 Normal termination of Gaussian 16 at Thu Dec 10 10:46:16 2020.

 ----------------------------------------------------------------------
 # B3LYP/6-311++G(d,p) empiricaldispersion=gd3bj scf=xqc pop=npa geom=c
 heck
 ----------------------------------------------------------------------

 -------------------------------------
 CID_116906342_JID_4527_Energie_kation
 -------------------------------------
 Structure from the checkpoint file:  "JID_4527.chk"
 Charge =  1 Multiplicity = 2

 SCF Done:  E(UB3LYP) =  -581.157302322     A.U. after   19 cycles
 Normal termination of Gaussian 16 at Thu Dec 10 11:00:11 2020.
 Gaussian 16:  ES64L-G16RevA.03 25-Dec-2016

 ----------------------------------------------------------------------
 # B3LYP/6-311++G(d,p) empiricaldispersion=gd3bj scf=xqc pop=npa geom=c
 heck
 ----------------------------------------------------------------------

 ------------------------------------
 CID_116906342_JID_4527_Energie_anion
 ------------------------------------
 Structure from the checkpoint file:  "JID_4527.chk"
 Charge = -1 Multiplicity = 2

                         Standard orientation:
 ---------------------------------------------------------------------
 Center     Atomic      Atomic             Coordinates (Angstroms)
 Number     Number       Type             X           Y           Z
 ---------------------------------------------------------------------
      1          6           0       -0.151052    2.219416    1.374104
      2          7           0       -0.613264    1.869594    0.033518
      3          6           0       -0.547570    3.030843   -0.841488
      4          6           0       -0.004884    0.663738   -0.567471
      5          6           0        1.508720    0.448548   -0.307627
      6          6           0        1.907231   -0.131073    1.080048
      7          6           0        3.083308   -1.080026    0.800042
      8          6           0        2.702194   -1.720677   -0.539730
      9          6           0        2.127098   -0.543613   -1.349534
     10          6           0       -0.871857   -0.582070   -0.280772
     11          6           0       -2.119743   -0.690225   -1.186275
     12          6           0       -3.087324   -1.598713   -0.392061
     13          6           0       -2.445268   -1.673932    1.027768
     14          7           0       -1.399709   -0.640747    1.092956
     15          1           0       -0.817083    2.985627    1.788404
     16          1           0        0.875899    2.626938    1.389932
     17          1           0       -0.181666    1.345319    2.025031
     18          1           0        0.484266    3.390772   -1.020922
     19          1           0       -1.002060    2.798335   -1.809670
     20          1           0       -1.111038    3.856589   -0.392238
     21          1           0       -0.085144    0.821930   -1.649364
     22          1           0        1.991262    1.425390   -0.438229
     23          1           0        2.168155    0.652961    1.796762
     24          1           0        1.067228   -0.689119    1.507224
     25          1           0        3.243313   -1.809952    1.601294
     26          1           0        4.014691   -0.508346    0.685599
     27          1           0        1.926177   -2.479369   -0.372688
     28          1           0        3.539167   -2.216003   -1.043662
     29          1           0        1.392700   -0.874647   -2.092748
     30          1           0        2.929480   -0.044384   -1.905015
     31          1           0       -0.254176   -1.479492   -0.425083
     32          1           0       -2.542204    0.314379   -1.308840
     33          1           0       -1.884757   -1.077975   -2.183755
     34          1           0       -4.095786   -1.174308   -0.355221
     35          1           0       -3.174004   -2.594367   -0.839750
     36          1           0       -3.164813   -1.532089    1.839637
     37          1           0       -1.973227   -2.652615    1.176922
     38          1           0       -1.860702    0.259196    1.239031
 ---------------------------------------------------------------------

 SCF Done:  E(UB3LYP) =  -581.418216957     A.U. after   28 cycles

 The electronic state is 2-A.
 Alpha  occ. eigenvalues --  -14.20381 -14.19216 -10.09528 -10.09034 -10.08977
 Alpha  occ. eigenvalues --  -10.08403 -10.08035 -10.06686 -10.06583 -10.06249
 Alpha  occ. eigenvalues --  -10.06118 -10.06091 -10.06037 -10.05299  -0.83255
 Alpha  occ. eigenvalues --   -0.80709  -0.73330  -0.66191  -0.65341  -0.60893
 Alpha  occ. eigenvalues --   -0.60853  -0.59965  -0.56390  -0.50953  -0.48245
 Alpha  occ. eigenvalues --   -0.47740  -0.46688  -0.44624  -0.39823  -0.38899
 Alpha  occ. eigenvalues --   -0.37296  -0.36777  -0.36008  -0.34384  -0.33422
 Alpha  occ. eigenvalues --   -0.33158  -0.32550  -0.31107  -0.30290  -0.29008
 Alpha  occ. eigenvalues --   -0.27970  -0.26716  -0.26200  -0.25121  -0.24200
 Alpha  occ. eigenvalues --   -0.24151  -0.23747  -0.23334  -0.22890  -0.22526
 Alpha  occ. eigenvalues --   -0.21862  -0.21084  -0.20482  -0.13868  -0.11184
 Alpha  occ. eigenvalues --    0.04458
 Alpha virt. eigenvalues --    0.06524   0.06639   0.07413   0.08341   0.08612
 Alpha virt. eigenvalues --    0.09048   0.09124   0.09358   0.10778   0.11133
 Alpha virt. eigenvalues --    0.11223   0.11669   0.11915   0.12360   0.12639

  Beta  occ. eigenvalues --  -14.20371 -14.19211 -10.09522 -10.09020 -10.08972
  Beta  occ. eigenvalues --  -10.08372 -10.08013 -10.06677 -10.06568 -10.06236
  Beta  occ. eigenvalues --  -10.06104 -10.06073 -10.06022 -10.05290  -0.83237
  Beta  occ. eigenvalues --   -0.80691  -0.73308  -0.66168  -0.65310  -0.60861
  Beta  occ. eigenvalues --   -0.60819  -0.59925  -0.56347  -0.50908  -0.48197
  Beta  occ. eigenvalues --   -0.47702  -0.46638  -0.44590  -0.39790  -0.38876
  Beta  occ. eigenvalues --   -0.37250  -0.36742  -0.35974  -0.34352  -0.33399
  Beta  occ. eigenvalues --   -0.33126  -0.32523  -0.31085  -0.30258  -0.28980
  Beta  occ. eigenvalues --   -0.27942  -0.26686  -0.26175  -0.25096  -0.24172
  Beta  occ. eigenvalues --   -0.24124  -0.23717  -0.23306  -0.22863  -0.22501
  Beta  occ. eigenvalues --   -0.21835  -0.21059  -0.20455  -0.13849  -0.11142
  Beta virt. eigenvalues --    0.06431   0.07194   0.07301   0.07995   0.08780
  Beta virt. eigenvalues --    0.09061   0.09307   0.09543   0.09762   0.11110
  Beta virt. eigenvalues --    0.11456   0.11570   0.12034   0.12256   0.12575

 Mulliken charges and spin densities:
               1          2
     1  C    0.080538  -0.540237
     2  N    0.075205   0.069468
     3  C    0.949641  -1.177487
     4  C   -0.681509   0.524152
     5  C    0.065336   0.322136
     6  C   -0.561733   0.303010
     7  C    0.912449  -1.529033
     8  C   -0.597680   0.398235
     9  C    0.909189  -1.561866
    10  C   -1.676878   1.153262
    11  C    0.472351  -1.091278
    12  C    0.307884  -0.615997
    13  C   -0.059346  -0.295095
    14  N    0.087272  -0.027313
    15  H   -0.409502   0.554661
    16  H   -0.023419   0.161854
    17  H   -0.036460   0.156335
    18  H   -0.238312   0.362446
    19  H   -0.365403   0.496582
    20  H   -0.079136   0.229719
    21  H    0.233000  -0.023110
    22  H   -0.068367   0.294829
    23  H    0.032633   0.096119
    24  H    0.141173   0.101149
    25  H    0.005625   0.148483
    26  H   -0.073158   0.204091
    27  H   -0.190630   0.289353
    28  H   -0.175176   0.346671
    29  H   -0.112482   0.259277
    30  H   -0.371695   0.532594
    31  H    0.668967  -0.452246
    32  H    0.120354   0.043141
    33  H   -0.203072   0.340291
    34  H   -0.098738   0.230498
    35  H   -0.101066   0.233522
    36  H   -0.168138   0.321043
    37  H   -0.023384   0.166742
    38  H    0.253668  -0.026002
 Sum of Mulliken charges =  -1.00000   1.00000

 Dipole moment (field-independent basis, Debye):
    X=             -0.8130    Y=             -2.0267    Z=              1.5313  Tot=              2.6671
 Quadrupole moment (field-independent basis, Debye-Ang):
   XX=           -152.7069   YY=           -144.4600   ZZ=           -133.0731
   XY=              0.3913   XZ=              3.4082   YZ=              0.1741

 Summary of Natural Population Analysis:

                                       Natural Population
                Natural  -----------------------------------------------
    Atom  No    Charge         Core      Valence    Rydberg      Total
 -----------------------------------------------------------------------
      C    1   -0.18387      0.99963     2.17552    0.00872     3.18387
      N    2   -0.28886      0.99972     2.77514    0.01399     3.78886
      C    3   -0.17184      0.99964     2.16361    0.00860     3.17184
      C    4    0.00524      0.99952     1.97985    0.01539     2.99476
      C    5   -0.11820      0.99958     2.10722    0.01140     3.11820
      C    6   -0.20007      0.99962     2.19219    0.00827     3.20007
      C    7   -0.18925      0.99964     2.18221    0.00740     3.18925
      C    8   -0.19135      0.99964     2.18437    0.00734     3.19135
      C    9   -0.18965      0.99963     2.18151    0.00851     3.18965
      C   10   -0.01591      0.99956     2.00235    0.01399     3.01591
      C   11   -0.19824      0.99962     2.18980    0.00882     3.19824
      C   12   -0.20205      0.99965     2.19594    0.00647     3.20205
      C   13   -0.08947      0.99965     2.07922    0.01060     3.08947
      N   14   -0.34046      0.99975     2.82962    0.01108     3.84046
      H   15    0.09418      0.00000     0.40479    0.00103     0.40582
      H   16    0.08256      0.00000     0.41613    0.00131     0.41744
      H   17    0.10380      0.00000     0.39447    0.00173     0.39620
      H   18    0.08100      0.00000     0.41743    0.00157     0.41900
      H   19    0.09542      0.00000     0.40341    0.00117     0.40458
      H   20    0.09458      0.00000     0.40423    0.00119     0.40542
      H   21    0.09913      0.00000     0.39867    0.00220     0.40087
      H   22    0.10086      0.00000     0.39718    0.00195     0.39914
      H   23    0.10010      0.00000     0.39893    0.00097     0.39990
      H   24    0.10825      0.00000     0.38961    0.00214     0.39175
      H   25    0.09662      0.00000     0.40258    0.00080     0.40338
      H   26    0.09217      0.00000     0.40658    0.00125     0.40783
      H   27    0.09183      0.00000     0.40652    0.00165     0.40817
      H   28    0.09834      0.00000     0.40068    0.00099     0.40166
      H   29    0.09799      0.00000     0.40084    0.00117     0.40201
      H   30    0.09944      0.00000     0.39916    0.00140     0.40056
      H   31    0.09142      0.00000     0.40624    0.00233     0.40858
      H   32    0.09900      0.00000     0.39906    0.00194     0.40100
      H   33    0.09975      0.00000     0.39912    0.00113     0.40025
      H   34    0.09642      0.00000     0.40217    0.00141     0.40358
      H   35    0.09611      0.00000     0.40254    0.00135     0.40389
      H   36    0.09348      0.00000     0.40556    0.00096     0.40652
      H   37    0.08742      0.00000     0.41128    0.00130     0.41258
      H   38    0.17411      0.00000     0.32232    0.00357     0.32589
 =======================================================================
   * Total *   -0.00000     13.99483    40.82807    0.17710    55.00000

 Normal termination of Gaussian 16 at Thu Dec 10 11:18:45 2020.
