 Gaussian 16, Revision A.03,

 -----------------------------------------------------------
 # opt freq B3LYP/6-31G(d) empiricaldispersion=gd3bj scf=xqc
 -----------------------------------------------------------

 -----------------------------
 CID_6485297_JID_2029_neutraal
 -----------------------------
 Symbolic Z-matrix:
 Charge =  0 Multiplicity = 1

 SCF Done:  E(RB3LYP) =  -841.824457088     A.U. after   15 cycles
 SCF Done:  E(RB3LYP) =  -841.829794236     A.U. after   12 cycles
 SCF Done:  E(RB3LYP) =  -841.830571206     A.U. after   11 cycles
 SCF Done:  E(RB3LYP) =  -841.830805492     A.U. after   11 cycles
 SCF Done:  E(RB3LYP) =  -841.830850931     A.U. after    9 cycles
 SCF Done:  E(RB3LYP) =  -841.830855345     A.U. after    9 cycles
 SCF Done:  E(RB3LYP) =  -841.830857038     A.U. after    8 cycles
 SCF Done:  E(RB3LYP) =  -841.830857322     A.U. after    7 cycles
 Optimization completed.
    -- Stationary point found.
 Normal termination of Gaussian 16 at Wed Dec  9 16:44:19 2020.

 --------------------------------------------------------------------
 #N Geom=AllCheck Guess=TCheck SCRF=Check GenChk RB3LYP/6-31G(d) Freq
 --------------------------------------------------------------------

 Structure from the checkpoint file:  "JID_2029.chk"
 -----------------------------
 CID_6485297_JID_2029_neutraal
 -----------------------------
 Charge =  0 Multiplicity = 1

 SCF Done:  E(RB3LYP) =  -841.830857322     A.U. after    1 cycles

  Exact polarizability: 135.077   2.719 125.882  -9.783   9.760  87.689
 Approx polarizability: 200.356   2.873 196.866 -26.894  22.744 145.480

                      1                      2                      3
                      A                      A                      A
 Frequencies --     79.7367                86.1098               113.9548
 Red. masses --      4.3951                 2.7715                 3.3066
 Frc consts  --      0.0165                 0.0121                 0.0253
 IR Inten    --      0.0382                 0.0919                 0.4179

                      4                      5                      6
                      A                      A                      A
 Frequencies --    196.5789               215.3812               289.4673
 Red. masses --      3.3402                 3.0579                 3.4232
 Frc consts  --      0.0760                 0.0836                 0.1690
 IR Inten    --      1.3003                 0.4647                 3.3272

                      7                      8                      9
                      A                      A                      A
 Frequencies --    316.9458               321.9418               376.7076
 Red. masses --      2.7810                 3.5110                 3.9712
 Frc consts  --      0.1646                 0.2144                 0.3320
 IR Inten    --      0.4685                 1.6871                 2.3334

                     10                     11                     12
                      A                      A                      A
 Frequencies --    440.3193               478.9228               498.4481
 Red. masses --      3.4094                 4.9339                 2.6601
 Frc consts  --      0.3895                 0.6668                 0.3894
 IR Inten    --      2.0662                 0.6577                20.2575

                     13                     14                     15
                      A                      A                      A
 Frequencies --    503.5583               609.5141               638.6776
 Red. masses --      4.6071                 3.9801                 2.9519
 Frc consts  --      0.6883                 0.8712                 0.7095
 IR Inten    --      4.5787                12.2393                 3.1406

                     16                     17                     18
                      A                      A                      A
 Frequencies --    702.5236               727.6896               743.6233
 Red. masses --      1.5461                 3.3883                 2.3460
 Frc consts  --      0.4496                 1.0571                 0.7643
 IR Inten    --     50.3315                10.0665                13.6055

                     19                     20                     21
                      A                      A                      A
 Frequencies --    786.3829               806.8773               816.1602
 Red. masses --      1.7692                 1.2753                 2.2472
 Frc consts  --      0.6446                 0.4892                 0.8819
 IR Inten    --     11.2637                38.7678                24.8713

                     22                     23                     24
                      A                      A                      A
 Frequencies --    845.9973               849.3534               891.1144
 Red. masses --      2.4542                 1.6371                 1.2667
 Frc consts  --      1.0349                 0.6958                 0.5926
 IR Inten    --     12.8905                 8.2828                 2.5462

                     25                     26                     27
                      A                      A                      A
 Frequencies --    897.7696               924.6516               945.4012
 Red. masses --      2.8662                 2.3227                 3.1155
 Frc consts  --      1.3611                 1.1700                 1.6406
 IR Inten    --     15.4708                 5.0823                 2.5700

                     28                     29                     30
                      A                      A                      A
 Frequencies --   1000.0456              1021.7367              1054.6882
 Red. masses --      3.1218                 2.3733                 2.1355
 Frc consts  --      1.8395                 1.4598                 1.3996
 IR Inten    --     15.5493                 8.8050                14.7738

                     31                     32                     33
                      A                      A                      A
 Frequencies --   1067.9709              1089.7053              1093.9176
 Red. masses --      1.3380                 1.5861                 1.6420
 Frc consts  --      0.8991                 1.1097                 1.1577
 IR Inten    --     15.5770                 1.1051                 1.6766

                     34                     35                     36
                      A                      A                      A
 Frequencies --   1107.9316              1132.1548              1151.4897
 Red. masses --      1.3737                 1.4605                 1.6149
 Frc consts  --      0.9935                 1.1030                 1.2615
 IR Inten    --      7.4087                 1.0657                 7.0698

                     37                     38                     39
                      A                      A                      A
 Frequencies --   1154.3417              1193.0452              1216.1993
 Red. masses --      1.7920                 2.0747                 1.3855
 Frc consts  --      1.4068                 1.7398                 1.2074
 IR Inten    --     14.6525                 4.0776                 1.2572

                     40                     41                     42
                      A                      A                      A
 Frequencies --   1231.1724              1244.5388              1253.2673
 Red. masses --      1.5311                 1.3418                 1.6392
 Frc consts  --      1.3673                 1.2245                 1.5170
 IR Inten    --      7.0156                 1.1633                 4.7914

                     43                     44                     45
                      A                      A                      A
 Frequencies --   1259.9310              1332.1819              1348.2488
 Red. masses --      1.3583                 1.5318                 1.2632
 Frc consts  --      1.2704                 1.6017                 1.3529
 IR Inten    --      5.0287                10.7112                10.9627

                     46                     47                     48
                      A                      A                      A
 Frequencies --   1375.6948              1402.3008              1412.2608
 Red. masses --      1.5274                 1.6255                 1.6878
 Frc consts  --      1.7032                 1.8833                 1.9833
 IR Inten    --     10.9623                 1.7822                 1.2921

                     49                     50                     51
                      A                      A                      A
 Frequencies --   1451.5133              1490.5999              1501.0120
 Red. masses --      2.0477                 1.0974                 1.5593
 Frc consts  --      2.5420                 1.4366                 2.0698
 IR Inten    --      9.8406                 3.7190                10.2157

                     52                     53                     54
                      A                      A                      A
 Frequencies --   1504.0401              1511.7412              1535.6253
 Red. masses --      1.3494                 2.2151                 1.3724
 Frc consts  --      1.7985                 2.9826                 1.9068
 IR Inten    --      3.4926                 5.0790                 6.1391

                     55                     56                     57
                      A                      A                      A
 Frequencies --   1537.5521              1619.9865              3000.7752
 Red. masses --      1.1233                 6.4108                 1.0706
 Frc consts  --      1.5646                 9.9125                 5.6797
 IR Inten    --      0.6100                 2.2145                51.6653

                     58                     59                     60
                      A                      A                      A
 Frequencies --   3022.0274              3039.6722              3077.6942
 Red. masses --      1.0842                 1.0610                 1.0998
 Frc consts  --      5.8340                 5.7760                 6.1376
 IR Inten    --     36.5296                26.6074                26.7420

                     61                     62                     63
                      A                      A                      A
 Frequencies --   3091.2700              3121.7179              3149.0529
 Red. masses --      1.0945                 1.0869                 1.0535
 Frc consts  --      6.1623                 6.2406                 6.1551
 IR Inten    --     51.2244                31.9972                14.3549

                     64                     65                     66
                      A                      A                      A
 Frequencies --   3157.0537              3218.1609              3227.5101
 Red. masses --      1.0581                 1.0917                 1.1173
 Frc consts  --      6.2133                 6.6615                 6.8572
 IR Inten    --     18.4129                 6.6764                 3.9172

                     67                     68                     69
                      A                      A                      A
 Frequencies --   3242.6636              3272.6455              3498.0458
 Red. masses --      1.1145                 1.0967                 1.0743
 Frc consts  --      6.9046                 6.9205                 7.7448
 IR Inten    --     18.4945                 0.9874                 2.0479

 - Thermochemistry -
 -------------------
 Temperature   298.150 Kelvin.  Pressure   1.00000 Atm.
 Atom     1 has atomic number  6 and mass  12.00000

 Molecular mass:   179.07687 amu.
 Principal axes and moments of inertia in atomic units:
                           1         2         3
     Eigenvalues --  1466.589452367.820363192.24279
           X            0.99990  -0.00931   0.01038
           Y            0.00915   0.99984   0.01527
           Z           -0.01052  -0.01517   0.99983
 This molecule is an asymmetric top.
 Rotational symmetry number  1.
 Warning -- assumption of classical behavior for rotation
           may cause significant error
 Rotational temperatures (Kelvin)      0.05906     0.03658     0.02713
 Rotational constants (GHZ):           1.23057     0.76220     0.56535
 Zero-point vibrational energy     559355.8 (Joules/Mol)
                                  133.68925 (Kcal/Mol)
 Warning -- explicit consideration of  14 degrees of freedom as
           vibrations may cause significant error
 Vibrational temperatures:    114.72   123.89   163.96   282.83   309.89
          (Kelvin)            416.48   456.01   463.20   542.00   633.52
                              689.06   717.16   724.51   876.95   918.91
                             1010.77  1046.98  1069.91  1131.43  1160.92
                             1174.27  1217.20  1222.03  1282.11  1291.69
                             1330.37  1360.22  1438.84  1470.05  1517.46
                             1536.57  1567.84  1573.90  1594.07  1628.92
                             1656.74  1660.84  1716.53  1749.84  1771.38
                             1790.61  1803.17  1812.76  1916.71  1939.83
                             1979.32  2017.60  2031.93  2088.40  2144.64
                             2159.62  2163.98  2175.06  2209.42  2212.19
                             2330.80  4317.45  4348.02  4373.41  4428.12
                             4447.65  4491.46  4530.78  4542.30  4630.22
                             4643.67  4665.47  4708.61  5032.91

 Zero-point correction=                           0.213047 (Hartree/Particle)
 Thermal correction to Energy=                    0.223353
 Thermal correction to Enthalpy=                  0.224297
 Thermal correction to Gibbs Free Energy=         0.177035
 Sum of electronic and zero-point Energies=           -841.617810
 Sum of electronic and thermal Energies=              -841.607505
 Sum of electronic and thermal Enthalpies=            -841.606560
 Sum of electronic and thermal Free Energies=         -841.653823

                     E (Thermal)             CV                S
                      KCal/Mol        Cal/Mol-Kelvin    Cal/Mol-Kelvin
 Total                  140.156             41.662             99.472
 Electronic               0.000              0.000              0.000
 Translational            0.889              2.981             41.455
 Rotational               0.889              2.981             30.784
 Vibrational            138.379             35.701             27.233
 Vibration     1          0.600              1.963              3.897
 Vibration     2          0.601              1.959              3.747
 Vibration     3          0.607              1.938              3.200
 Vibration     4          0.636              1.845              2.165
 Vibration     5          0.645              1.818              1.998
 Vibration     6          0.686              1.693              1.477
 Vibration     7          0.704              1.641              1.326
 Vibration     8          0.707              1.631              1.300
 Vibration     9          0.747              1.520              1.052
 Vibration    10          0.800              1.382              0.826
 Vibration    11          0.835              1.297              0.713
 Vibration    12          0.854              1.253              0.662
 Vibration    13          0.859              1.242              0.649
 Vibration    14          0.968              1.012              0.434

 Optimization completed.
    -- Stationary point found.
 Normal termination of Gaussian 16 at Wed Dec  9 16:50:31 2020.

 ----------------------------------------------------------------------
 # B3LYP/6-311++G(d,p) empiricaldispersion=gd3bj scf=xqc pop=npa geom=c
 heck
 ----------------------------------------------------------------------

 -------------------------------------
 CID_6485297_JID_2029_Energie_neutraal
 -------------------------------------
 Structure from the checkpoint file:  "JID_2029.chk"
 Charge =  0 Multiplicity = 1

 SCF Done:  E(RB3LYP) =  -841.976658294     A.U. after   15 cycles
 Normal termination of Gaussian 16 at Wed Dec  9 16:52:54 2020.

 ----------------------------------------------------------------------
 # B3LYP/6-311++G(d,p) empiricaldispersion=gd3bj scf=xqc pop=npa geom=c
 heck
 ----------------------------------------------------------------------

 -----------------------------------
 CID_6485297_JID_2029_Energie_kation
 -----------------------------------
 Structure from the checkpoint file:  "JID_2029.chk"
 Charge =  1 Multiplicity = 2

 SCF Done:  E(UB3LYP) =  -841.684955594     A.U. after   27 cycles
 Normal termination of Gaussian 16 at Wed Dec  9 16:59:39 2020.
 Gaussian 16:  ES64L-G16RevA.03 25-Dec-2016

 ----------------------------------------------------------------------
 # B3LYP/6-311++G(d,p) empiricaldispersion=gd3bj scf=xqc pop=npa geom=c
 heck
 ----------------------------------------------------------------------

 ----------------------------------
 CID_6485297_JID_2029_Energie_anion
 ----------------------------------
 Structure from the checkpoint file:  "JID_2029.chk"
 Charge = -1 Multiplicity = 2

                         Standard orientation:
 ---------------------------------------------------------------------
 Center     Atomic      Atomic             Coordinates (Angstroms)
 Number     Number       Type             X           Y           Z
 ---------------------------------------------------------------------
      1          6           0        2.096589   -0.796396    1.362796
      2          6           0        2.177862   -1.964051    0.412597
      3          6           0        2.251142   -0.552922   -0.118555
      4          6           0        1.159211    0.101051   -0.975757
      5          6           0       -0.244180   -0.271671   -0.562713
      6          6           0       -1.053068    0.620675    0.092183
      7          6           0       -0.688188    2.044104    0.394032
      8          6           0        0.829624    2.214552    0.241704
      9          7           0        1.265364    1.573869   -1.003205
     10         16           0       -2.615441   -0.074538    0.439495
     11          6           0       -2.164102   -1.577447   -0.311769
     12          6           0       -0.888764   -1.531308   -0.797224
     13          1           0        2.941186   -0.587868    2.013678
     14          1           0        1.125672   -0.592161    1.804183
     15          1           0        3.087155   -2.558285    0.394293
     16          1           0        1.268750   -2.533711    0.251961
     17          1           0        3.246814   -0.242862   -0.438097
     18          1           0        1.313016   -0.237513   -2.010098
     19          1           0       -0.997542    2.333658    1.405749
     20          1           0       -1.203777    2.712944   -0.307710
     21          1           0        1.331805    1.812291    1.135869
     22          1           0        1.074243    3.279949    0.178249
     23          1           0        2.234648    1.824063   -1.187004
     24          1           0       -2.867280   -2.397822   -0.350892
     25          1           0       -0.421934   -2.356695   -1.323433
 ---------------------------------------------------------------------

 SCF Done:  E(UB3LYP) =  -841.959448500     A.U. after   33 cycles
 SCF Done:  E(UB3LYP) =  -841.959448500     a.u. after    2 cycles

 The electronic state is 2-A.
 Alpha  occ. eigenvalues --  -88.77802 -14.19258 -10.10576 -10.10295 -10.10200
 Alpha  occ. eigenvalues --  -10.08992 -10.08133 -10.08081 -10.07909 -10.07232
 Alpha  occ. eigenvalues --  -10.06548 -10.06436  -7.86428  -5.82712  -5.82354
 Alpha  occ. eigenvalues --   -5.82027  -0.81916  -0.77760  -0.75064  -0.67863
 Alpha  occ. eigenvalues --   -0.65319  -0.62057  -0.55807  -0.51304  -0.49795
 Alpha  occ. eigenvalues --   -0.48149  -0.46765  -0.41135  -0.39928  -0.39219
 Alpha  occ. eigenvalues --   -0.37752  -0.36250  -0.35478  -0.31918  -0.31404
 Alpha  occ. eigenvalues --   -0.29718  -0.29457  -0.26844  -0.26464  -0.25882
 Alpha  occ. eigenvalues --   -0.25571  -0.24505  -0.23038  -0.19984  -0.18494
 Alpha  occ. eigenvalues --   -0.15482  -0.13208  -0.12226   0.04699
 Alpha virt. eigenvalues --    0.06154   0.06993   0.07459   0.08266   0.08388
 Alpha virt. eigenvalues --    0.09431   0.09829   0.10875   0.11147   0.11173
 Alpha virt. eigenvalues --    0.12056   0.12677   0.12853   0.13520   0.13963

  Beta  occ. eigenvalues --  -88.77800 -14.19236 -10.10571 -10.10290 -10.10190
  Beta  occ. eigenvalues --  -10.08969 -10.08121 -10.08073 -10.07906 -10.07209
  Beta  occ. eigenvalues --  -10.06532 -10.06420  -7.86427  -5.82711  -5.82351
  Beta  occ. eigenvalues --   -5.82026  -0.81885  -0.77740  -0.75030  -0.67838
  Beta  occ. eigenvalues --   -0.65298  -0.62032  -0.55773  -0.51253  -0.49743
  Beta  occ. eigenvalues --   -0.48102  -0.46730  -0.41097  -0.39887  -0.39172
  Beta  occ. eigenvalues --   -0.37690  -0.36225  -0.35429  -0.31893  -0.31370
  Beta  occ. eigenvalues --   -0.29697  -0.29423  -0.26816  -0.26440  -0.25856
  Beta  occ. eigenvalues --   -0.25541  -0.24475  -0.23008  -0.19952  -0.18464
  Beta  occ. eigenvalues --   -0.15475  -0.13192  -0.12194
  Beta virt. eigenvalues --    0.06845   0.07251   0.07409   0.08118   0.08804
  Beta virt. eigenvalues --    0.09144   0.09947   0.10302   0.11104   0.11419
  Beta virt. eigenvalues --    0.11599   0.12431   0.13022   0.13222   0.13916

 Mulliken charges and spin densities:
               1          2
     1  C    0.298085  -0.649302
     2  C    0.991430  -1.522420
     3  C   -0.339098   0.282017
     4  C    0.432836  -0.616714
     5  C   -1.710366   1.082446
     6  C   -0.376361   1.146620
     7  C    1.104095  -1.384038
     8  C    0.311046  -0.598985
     9  N   -0.078666  -0.011100
    10  S    0.039257  -0.608520
    11  C   -0.191923  -0.126373
    12  C    1.426276  -1.278831
    13  H   -0.315359   0.494944
    14  H    0.090339   0.047419
    15  H   -0.320289   0.476237
    16  H    0.166860  -0.069386
    17  H   -0.845064   1.092185
    18  H   -0.048495   0.279551
    19  H   -0.278139   0.435059
    20  H    0.222978  -0.042989
    21  H    0.161009  -0.014977
    22  H   -0.927246   1.112543
    23  H   -0.119232   0.364037
    24  H   -0.510952   0.756287
    25  H   -0.183020   0.354292
 Sum of Mulliken charges =  -1.00000   1.00000

 Dipole moment (field-independent basis, Debye):
    X=             -6.2823    Y=             -1.4389    Z=              0.7587  Tot=              6.4895
 Quadrupole moment (field-independent basis, Debye-Ang):
   XX=           -145.9657   YY=           -132.8869   ZZ=           -112.1319
   XY=             -7.2203   XZ=             -0.5236   YZ=             -0.2399

 Summary of Natural Population Analysis:

                                       Natural Population
                Natural  -----------------------------------------------
    Atom  No    Charge         Core      Valence    Rydberg      Total
 -----------------------------------------------------------------------
      C    1   -0.20020      0.99961     2.19105    0.00954     3.20020
      C    2   -0.20019      0.99961     2.19138    0.00919     3.20019
      C    3   -0.11884      0.99958     2.10506    0.01420     3.11884
      C    4   -0.01212      0.99953     1.99787    0.01473     3.01212
      C    5   -0.04786      0.99940     2.03570    0.01277     3.04786
      C    6   -0.08782      0.99938     2.07711    0.01132     3.08782
      C    7   -0.20579      0.99957     2.19539    0.01083     3.20579
      C    8   -0.08441      0.99962     2.07318    0.01161     3.08441
      N    9   -0.33795      0.99975     2.82622    0.01198     3.83795
      S   10    0.19687      4.99941     2.78363    0.02009     7.80313
      C   11   -0.19462      0.99954     2.18342    0.01166     3.19462
      C   12   -0.12136      0.99949     2.11117    0.01071     3.12136
      H   13    0.10415      0.00000     0.39463    0.00123     0.39585
      H   14    0.10354      0.00000     0.39487    0.00159     0.39646
      H   15    0.10317      0.00000     0.39564    0.00119     0.39683
      H   16    0.10265      0.00000     0.39601    0.00134     0.39735
      H   17    0.10709      0.00000     0.38836    0.00455     0.39291
      H   18    0.10205      0.00000     0.39604    0.00191     0.39795
      H   19    0.10430      0.00000     0.39447    0.00123     0.39570
      H   20    0.10510      0.00000     0.39344    0.00146     0.39490
      H   21    0.08425      0.00000     0.41357    0.00218     0.41575
      H   22    0.09877      0.00000     0.39914    0.00209     0.40123
      H   23    0.17970      0.00000     0.31581    0.00450     0.32030
      H   24    0.11011      0.00000     0.38859    0.00129     0.38989
      H   25    0.10941      0.00000     0.38942    0.00117     0.39059
 =======================================================================
   * Total *    0.00000     15.99447    31.83117    0.17436    48.00000

 Normal termination of Gaussian 16 at Wed Dec  9 17:14:17 2020.
