 Gaussian 16, Revision A.03,

 -----------------------------------------------------------
 # opt freq B3LYP/6-31G(d) empiricaldispersion=gd3bj scf=xqc
 -----------------------------------------------------------

 ------------------------------
 CID_62753999_JID_9987_neutraal
 ------------------------------
 Symbolic Z-matrix:
 Charge =  0 Multiplicity = 1

 SCF Done:  E(RB3LYP) =  -1237.22156797     A.U. after   15 cycles
 SCF Done:  E(RB3LYP) =  -1237.22927353     A.U. after   13 cycles
 SCF Done:  E(RB3LYP) =  -1237.23210025     A.U. after   13 cycles
 SCF Done:  E(RB3LYP) =  -1237.23646894     A.U. after   15 cycles
 SCF Done:  E(RB3LYP) =  -1237.23837327     A.U. after   13 cycles
 SCF Done:  E(RB3LYP) =  -1237.24067417     A.U. after   13 cycles
 SCF Done:  E(RB3LYP) =  -1237.24183597     A.U. after   13 cycles
 SCF Done:  E(RB3LYP) =  -1237.24309097     A.U. after   14 cycles
 SCF Done:  E(RB3LYP) =  -1237.24380980     A.U. after   14 cycles
 SCF Done:  E(RB3LYP) =  -1237.24421555     A.U. after   13 cycles
 SCF Done:  E(RB3LYP) =  -1237.24618479     A.U. after   10 cycles
 SCF Done:  E(RB3LYP) =  -1237.24619270     A.U. after   10 cycles
 SCF Done:  E(RB3LYP) =  -1237.24619814     A.U. after   10 cycles
 SCF Done:  E(RB3LYP) =  -1237.24619835     A.U. after    8 cycles
 SCF Done:  E(RB3LYP) =  -1237.24619842     A.U. after    8 cycles
 Optimization completed.
    -- Stationary point found.
 Normal termination of Gaussian 16 at Sat Dec 12 10:45:48 2020.

 --------------------------------------------------------------------
 #N Geom=AllCheck Guess=TCheck SCRF=Check GenChk RB3LYP/6-31G(d) Freq
 --------------------------------------------------------------------

 Structure from the checkpoint file:  "JID_9987.chk"
 ------------------------------
 CID_62753999_JID_9987_neutraal
 ------------------------------
 Charge =  0 Multiplicity = 1

 SCF Done:  E(RB3LYP) =  -1237.24619842     A.U. after    1 cycles

  Exact polarizability: 226.260  -2.014 159.745 -14.816  -3.156 144.863
 Approx polarizability: 306.189   3.892 287.370 -32.614 -14.625 242.465

                      1                      2                      3
                      A                      A                      A
 Frequencies --     17.8167                27.4011                37.8452
 Red. masses --      4.9848                 5.0923                 6.3796
 Frc consts  --      0.0009                 0.0023                 0.0054
 IR Inten    --      0.3679                 0.3057                 0.3007

                      4                      5                      6
                      A                      A                      A
 Frequencies --     77.4266                89.3120                94.7373
 Red. masses --      1.3710                 5.2054                 3.8692
 Frc consts  --      0.0048                 0.0245                 0.0205
 IR Inten    --      0.9948                 1.2417                 0.2226

                      7                      8                      9
                      A                      A                      A
 Frequencies --     98.4206               114.1752               124.0373
 Red. masses --      3.8052                 4.7322                 4.2922
 Frc consts  --      0.0217                 0.0363                 0.0389
 IR Inten    --      2.7023                 1.3693                 2.0430

                     10                     11                     12
                      A                      A                      A
 Frequencies --    147.8999               173.1418               232.4052
 Red. masses --      5.1939                 3.5337                 2.4195
 Frc consts  --      0.0669                 0.0624                 0.0770
 IR Inten    --      3.8674                 3.0874                 1.1574

                     13                     14                     15
                      A                      A                      A
 Frequencies --    240.9752               260.7494               293.6068
 Red. masses --      3.5095                 2.7971                 2.1753
 Frc consts  --      0.1201                 0.1120                 0.1105
 IR Inten    --      0.5153                 0.6318                 0.3212

                     16                     17                     18
                      A                      A                      A
 Frequencies --    295.0089               317.3897               343.8065
 Red. masses --      4.0493                 4.2643                 5.5571
 Frc consts  --      0.2076                 0.2531                 0.3870
 IR Inten    --      4.6259                 2.0697                 3.5298

                     19                     20                     21
                      A                      A                      A
 Frequencies --    416.8388               448.4727               453.9663
 Red. masses --      3.3733                 4.5203                 3.5873
 Frc consts  --      0.3453                 0.5357                 0.4356
 IR Inten    --      3.8989                 0.5697                 2.0645

                     22                     23                     24
                      A                      A                      A
 Frequencies --    484.7193               489.2633               497.5319
 Red. masses --      5.3508                 6.8101                 2.8168
 Frc consts  --      0.7407                 0.9605                 0.4108
 IR Inten    --     15.7946                 2.2410                30.4177

                     25                     26                     27
                      A                      A                      A
 Frequencies --    554.7321               572.4508               576.3258
 Red. masses --      3.5986                 2.2921                 1.8511
 Frc consts  --      0.6524                 0.4425                 0.3623
 IR Inten    --      0.1099                20.0811                64.0465

                     28                     29                     30
                      A                      A                      A
 Frequencies --    600.1104               622.9049               644.3317
 Red. masses --      5.9298                 6.5871                 8.5825
 Frc consts  --      1.2582                 1.5059                 2.0993
 IR Inten    --      4.0676                28.8232                14.7200

                     31                     32                     33
                      A                      A                      A
 Frequencies --    700.2863               718.9138               725.9959
 Red. masses --      4.4126                 3.1101                 5.0811
 Frc consts  --      1.2750                 0.9471                 1.5779
 IR Inten    --     42.4379                 2.6002                 3.1005

                     34                     35                     36
                      A                      A                      A
 Frequencies --    755.5211               768.0969               777.5490
 Red. masses --      7.8302                 1.4094                 7.2569
 Frc consts  --      2.6334                 0.4899                 2.5850
 IR Inten    --     42.4236                46.7862                 5.7924

                     37                     38                     39
                      A                      A                      A
 Frequencies --    789.2653               829.6562               858.9481
 Red. masses --      4.6845                 5.0626                 1.3475
 Frc consts  --      1.7193                 2.0531                 0.5858
 IR Inten    --      3.3970                 8.8538                 2.5526

                     40                     41                     42
                      A                      A                      A
 Frequencies --    914.9879               934.1293               959.6646
 Red. masses --      1.4147                 1.4291                 2.7061
 Frc consts  --      0.6978                 0.7348                 1.4684
 IR Inten    --      4.0958                 1.7592                54.7141

                     43                     44                     45
                      A                      A                      A
 Frequencies --    975.8453              1017.4561              1067.2371
 Red. masses --      1.2713                 1.9735                10.4186
 Frc consts  --      0.7133                 1.2037                 6.9917
 IR Inten    --      2.8901                26.7041               168.3680

                     46                     47                     48
                      A                      A                      A
 Frequencies --   1072.1754              1086.3991              1130.5349
 Red. masses --      5.5093                 2.3709                 2.5197
 Frc consts  --      3.7315                 1.6487                 1.8974
 IR Inten    --     30.9300                 9.8527               132.6892

                     49                     50                     51
                      A                      A                      A
 Frequencies --   1149.4829              1161.8148              1187.0108
 Red. masses --      1.9567                 1.2851                 1.2711
 Frc consts  --      1.5233                 1.0220                 1.0552
 IR Inten    --     35.2783                13.3437                 0.2416

                     52                     53                     54
                      A                      A                      A
 Frequencies --   1199.6679              1203.0365              1207.9150
 Red. masses --      1.0984                 1.7675                 1.6477
 Frc consts  --      0.9314                 1.5072                 1.4164
 IR Inten    --      6.4768                64.9535               146.7372

                     55                     56                     57
                      A                      A                      A
 Frequencies --   1225.2806              1228.1208              1252.4749
 Red. masses --      1.5082                 1.8797                 2.0769
 Frc consts  --      1.3341                 1.6704                 1.9196
 IR Inten    --     49.4275               212.6651                41.5205

                     58                     59                     60
                      A                      A                      A
 Frequencies --   1294.4932              1298.1450              1323.2833
 Red. masses --      3.5256                 1.8821                 1.6012
 Frc consts  --      3.4808                 1.8687                 1.6520
 IR Inten    --    192.9199                20.7611                39.6449

                     61                     62                     63
                      A                      A                      A
 Frequencies --   1344.4480              1357.7286              1394.3841
 Red. masses --      4.0339                 4.0264                 2.8702
 Frc consts  --      4.2960                 4.3731                 3.2879
 IR Inten    --    171.2376                27.0164                97.8780

                     64                     65                     66
                      A                      A                      A
 Frequencies --   1413.7665              1416.5686              1462.7824
 Red. masses --      1.7306                 3.7581                 1.2556
 Frc consts  --      2.0379                 4.4432                 1.5829
 IR Inten    --     28.4114               113.1146                57.8883

                     67                     68                     69
                      A                      A                      A
 Frequencies --   1491.7835              1501.4418              1513.6336
 Red. masses --      1.4614                 1.1748                 1.6702
 Frc consts  --      1.9162                 1.5604                 2.2546
 IR Inten    --     57.6647                48.4304                10.8855

                     70                     71                     72
                      A                      A                      A
 Frequencies --   1520.9243              1521.4292              1531.1297
 Red. masses --      1.0476                 1.0760                 1.1219
 Frc consts  --      1.4278                 1.4675                 1.5497
 IR Inten    --      5.4170                49.9535                67.0380

                     73                     74                     75
                      A                      A                      A
 Frequencies --   1533.6085              1550.2412              1575.5703
 Red. masses --      1.1420                 2.0292                 4.7101
 Frc consts  --      1.5825                 2.8733                 6.8891
 IR Inten    --     56.2356                44.8491               347.3850

                     76                     77                     78
                      A                      A                      A
 Frequencies --   1608.8990              1652.4697              1665.5634
 Red. masses --      4.0468                 6.3903                 5.8059
 Frc consts  --      6.1719                10.2811                 9.4895
 IR Inten    --    364.0133                 4.9177                34.4999

                     79                     80                     81
                      A                      A                      A
 Frequencies --   1803.7921              3031.3030              3044.4951
 Red. masses --      9.4337                 1.0343                 1.0413
 Frc consts  --     18.0845                 5.5996                 5.6865
 IR Inten    --    398.0205                58.3354                59.8349

                     82                     83                     84
                      A                      A                      A
 Frequencies --   3050.7691              3091.3204              3092.3768
 Red. masses --      1.0627                 1.0997                 1.1068
 Frc consts  --      5.8273                 6.1916                 6.2358
 IR Inten    --     13.7624                11.4418                40.2038

                     85                     86                     87
                      A                      A                      A
 Frequencies --   3101.5744              3162.5344              3191.9941
 Red. masses --      1.1026                 1.1005                 1.0860
 Frc consts  --      6.2492                 6.4849                 6.5195
 IR Inten    --     27.7917                22.1208                 1.8797

                     88                     89                     90
                      A                      A                      A
 Frequencies --   3197.4915              3205.0668              3217.7513
 Red. masses --      1.0982                 1.0898                 1.0946
 Frc consts  --      6.6154                 6.5956                 6.6777
 IR Inten    --      0.7517                16.8009                18.9203

                     91                     92                     93
                      A                      A                      A
 Frequencies --   3229.7539              3239.6650              3704.7107
 Red. masses --      1.0926                 1.0938                 1.0642
 Frc consts  --      6.7149                 6.7637                 8.6053
 IR Inten    --     11.3577                 4.5758                87.2707

 - Thermochemistry -
 -------------------
 Temperature   298.150 Kelvin.  Pressure   1.00000 Atm.
 Atom     1 has atomic number  6 and mass  12.00000

 Molecular mass:   278.07251 amu.
 Principal axes and moments of inertia in atomic units:
                           1         2         3
     Eigenvalues --  2957.54160********************
           X            0.99992   0.01052  -0.00764
           Y           -0.01053   0.99994  -0.00163
           Z            0.00763   0.00171   0.99997
 This molecule is an asymmetric top.
 Rotational symmetry number  1.
 Warning -- assumption of classical behavior for rotation
           may cause significant error
 Rotational temperatures (Kelvin)      0.02929     0.00862     0.00811
 Rotational constants (GHZ):           0.61022     0.17958     0.16902
 Zero-point vibrational energy     679372.2 (Joules/Mol)
                                  162.37385 (Kcal/Mol)
 Warning -- explicit consideration of  28 degrees of freedom as
           vibrations may cause significant error
 Vibrational temperatures:     25.63    39.42    54.45   111.40   128.50
          (Kelvin)            136.31   141.61   164.27   178.46   212.79
                              249.11   334.38   346.71   375.16   422.43
                              424.45   456.65   494.66   599.74   645.25
                              653.16   697.40   703.94   715.84   798.14
                              823.63   829.20   863.42   896.22   927.05
                             1007.56  1034.36  1044.55  1087.03  1105.12
                             1118.72  1135.58  1193.69  1235.83  1316.46
                             1344.00  1380.74  1404.02  1463.89  1535.52
                             1542.62  1563.09  1626.59  1653.85  1671.59
                             1707.84  1726.05  1730.90  1737.92  1762.91
                             1766.99  1802.03  1862.49  1867.74  1903.91
                             1934.36  1953.47  2006.21  2034.09  2038.13
                             2104.62  2146.34  2160.24  2177.78  2188.27
                             2189.00  2202.95  2206.52  2230.45  2266.89
                             2314.85  2377.54  2396.37  2595.25  4361.37
                             4380.35  4389.38  4447.72  4449.24  4462.47
                             4550.18  4592.57  4600.48  4611.38  4629.63
                             4646.90  4661.16  5330.25

 Zero-point correction=                           0.258759 (Hartree/Particle)
 Thermal correction to Energy=                    0.276903
 Thermal correction to Enthalpy=                  0.277847
 Thermal correction to Gibbs Free Energy=         0.209998
 Sum of electronic and zero-point Energies=          -1236.987439
 Sum of electronic and thermal Energies=             -1236.969296
 Sum of electronic and thermal Enthalpies=           -1236.968352
 Sum of electronic and thermal Free Energies=        -1237.036201

                     E (Thermal)             CV                S
                      KCal/Mol        Cal/Mol-Kelvin    Cal/Mol-Kelvin
 Total                  173.759             66.851            142.800
 Electronic               0.000              0.000              0.000
 Translational            0.889              2.981             42.767
 Rotational               0.889              2.981             34.117
 Vibrational            171.982             60.890             65.917
 Vibration     1          0.593              1.986              6.864
 Vibration     2          0.593              1.984              6.009
 Vibration     3          0.594              1.982              5.369
 Vibration     4          0.599              1.964              3.955
 Vibration     5          0.602              1.957              3.675
 Vibration     6          0.603              1.953              3.560
 Vibration     7          0.604              1.950              3.485
 Vibration     8          0.607              1.938              3.197
 Vibration     9          0.610              1.929              3.036
 Vibration    10          0.617              1.905              2.699
 Vibration    11          0.627              1.876              2.401
 Vibration    12          0.653              1.791              1.860
 Vibration    13          0.658              1.778              1.796
 Vibration    14          0.669              1.745              1.657
 Vibration    15          0.688              1.686              1.453
 Vibration    16          0.689              1.683              1.445
 Vibration    17          0.704              1.640              1.324
 Vibration    18          0.723              1.588              1.194
 Vibration    19          0.780              1.434              0.903
 Vibration    20          0.807              1.364              0.800
 Vibration    21          0.812              1.352              0.784
 Vibration    22          0.841              1.284              0.697
 Vibration    23          0.845              1.274              0.686
 Vibration    24          0.853              1.255              0.664
 Vibration    25          0.910              1.129              0.534
 Vibration    26          0.929              1.091              0.500
 Vibration    27          0.933              1.082              0.492
 Vibration    28          0.958              1.032              0.449

                           ! Non-Optimized Parameters !
 Normal termination of Gaussian 16 at Sat Dec 12 11:01:32 2020.

 ----------------------------------------------------------------------
 # B3LYP/6-311++G(d,p) empiricaldispersion=gd3bj scf=xqc pop=npa geom=c
 heck
 ----------------------------------------------------------------------

 --------------------------------------
 CID_62753999_JID_9987_Energie_neutraal
 --------------------------------------
 Structure from the checkpoint file:  "JID_9987.chk"
 Charge =  0 Multiplicity = 1

 SCF Done:  E(RB3LYP) =  -1237.51084942     A.U. after   16 cycles
 Normal termination of Gaussian 16 at Sat Dec 12 11:08:52 2020.

 ----------------------------------------------------------------------
 # B3LYP/6-311++G(d,p) empiricaldispersion=gd3bj scf=xqc pop=npa geom=c
 heck
 ----------------------------------------------------------------------

 ------------------------------------
 CID_62753999_JID_9987_Energie_kation
 ------------------------------------
 Structure from the checkpoint file:  "JID_9987.chk"
 Charge =  1 Multiplicity = 2

 SCF Done:  E(UB3LYP) =  -1237.23364552     A.U. after   25 cycles
 Normal termination of Gaussian 16 at Sat Dec 12 11:25:15 2020.
 Gaussian 16:  ES64L-G16RevA.03 25-Dec-2016

 ----------------------------------------------------------------------
 # B3LYP/6-311++G(d,p) empiricaldispersion=gd3bj scf=xqc pop=npa geom=c
 heck
 ----------------------------------------------------------------------

 -----------------------------------
 CID_62753999_JID_9987_Energie_anion
 -----------------------------------
 Structure from the checkpoint file:  "JID_9987.chk"
 Charge = -1 Multiplicity = 2

                         Standard orientation:
 ---------------------------------------------------------------------
 Center     Atomic      Atomic             Coordinates (Angstroms)
 Number     Number       Type             X           Y           Z
 ---------------------------------------------------------------------
      1          6           0       -0.337835    3.134061    0.044289
      2          7           0       -0.065994    1.769013    0.478568
      3          6           0       -1.188997    0.969368    0.934514
      4          6           0       -1.948524    0.260913   -0.173552
      5          6           0       -1.537570    0.271264   -1.502719
      6          6           0       -2.268499   -0.397929   -2.488757
      7          6           0       -3.423638   -1.087533   -2.136341
      8          6           0       -3.855801   -1.115392   -0.807095
      9          6           0       -3.118027   -0.443348    0.168938
     10          8           0       -3.443729   -0.404223    1.497300
     11          6           0       -4.598914   -1.108767    1.923497
     12          6           0        1.147268    1.211675    0.246110
     13          7           0        2.172851    1.877050   -0.262429
     14          6           0        3.264189    1.069655   -0.348754
     15          6           0        3.118991   -0.229430    0.070577
     16         16           0        1.468876   -0.487554    0.623222
     17          6           0        4.077248   -1.317175    0.100965
     18          8           0        3.849445   -2.446976    0.497323
     19          8           0        5.299908   -0.943565   -0.373162
     20          1           0       -1.008568    3.139202   -0.824133
     21          1           0        0.603953    3.610052   -0.222804
     22          1           0       -0.814771    3.687446    0.860483
     23          1           0       -0.834810    0.241389    1.675044
     24          1           0       -1.868142    1.631552    1.482007
     25          1           0       -0.630304    0.802566   -1.771626
     26          1           0       -1.930182   -0.380554   -3.519953
     27          1           0       -3.999960   -1.613646   -2.891901
     28          1           0       -4.756089   -1.658770   -0.545998
     29          1           0       -4.664168   -0.953577    3.001510
     30          1           0       -5.505458   -0.719024    1.442901
     31          1           0       -4.511707   -2.182311    1.713635
     32          1           0        4.192358    1.470766   -0.739485
     33          1           0        5.853490   -1.742718   -0.305924
 ---------------------------------------------------------------------

 SCF Done:  E(UB3LYP) =  -1237.51134847     A.U. after   33 cycles
 SCF Done:  E(UB3LYP) =  -1237.51134847     a.u. after    1 cycles

 The electronic state is 2-A.
 Alpha  occ. eigenvalues --  -88.75578 -19.06958 -19.04758 -18.97494 -14.24546
 Alpha  occ. eigenvalues --  -14.18713 -10.16655 -10.14739 -10.14682 -10.13428
 Alpha  occ. eigenvalues --  -10.12291 -10.10955 -10.09308 -10.08987 -10.08631
 Alpha  occ. eigenvalues --  -10.08620 -10.08306 -10.07736 -10.06980  -7.84202
 Alpha  occ. eigenvalues --   -5.80516  -5.80169  -5.79728  -0.98507  -0.98211
 Alpha  occ. eigenvalues --   -0.88859  -0.88510  -0.82079  -0.76969  -0.69418
 Alpha  occ. eigenvalues --   -0.68087  -0.66464  -0.64401  -0.62745  -0.60612
 Alpha  occ. eigenvalues --   -0.58056  -0.53619  -0.51088  -0.50514  -0.45728
 Alpha  occ. eigenvalues --   -0.45424  -0.44309  -0.41122  -0.40782  -0.39781
 Alpha  occ. eigenvalues --   -0.38513  -0.37674  -0.36845  -0.36382  -0.35692
 Alpha  occ. eigenvalues --   -0.34803  -0.33349  -0.33138  -0.32280  -0.32191
 Alpha  occ. eigenvalues --   -0.30798  -0.30178  -0.29437  -0.28553  -0.28123
 Alpha  occ. eigenvalues --   -0.27897  -0.27058  -0.24703  -0.24046  -0.23816
 Alpha  occ. eigenvalues --   -0.20871  -0.19160  -0.17636  -0.16979  -0.15912
 Alpha  occ. eigenvalues --   -0.15035  -0.13888  -0.09830   0.03751
 Alpha virt. eigenvalues --    0.05022   0.06802   0.06934   0.07485   0.08046
 Alpha virt. eigenvalues --    0.08389   0.08532   0.09202   0.09298   0.10276
 Alpha virt. eigenvalues --    0.10433   0.11185   0.11787   0.12079   0.12845

  Beta  occ. eigenvalues --  -88.75559 -19.06948 -19.04724 -18.97307 -14.24471
  Beta  occ. eigenvalues --  -14.18829 -10.16449 -10.14739 -10.14420 -10.13379
  Beta  occ. eigenvalues --  -10.12294 -10.10958 -10.09298 -10.08982 -10.08619
  Beta  occ. eigenvalues --  -10.08614 -10.08305 -10.07457 -10.06945  -7.84184
  Beta  occ. eigenvalues --   -5.80511  -5.80162  -5.79657  -0.98486  -0.98015
  Beta  occ. eigenvalues --   -0.88588  -0.88296  -0.81955  -0.76951  -0.69364
  Beta  occ. eigenvalues --   -0.68012  -0.66439  -0.64109  -0.62674  -0.60551
  Beta  occ. eigenvalues --   -0.57873  -0.53313  -0.50967  -0.50445  -0.45556
  Beta  occ. eigenvalues --   -0.45355  -0.44224  -0.40966  -0.40715  -0.39720
  Beta  occ. eigenvalues --   -0.38478  -0.37560  -0.36696  -0.36236  -0.35661
  Beta  occ. eigenvalues --   -0.34635  -0.33293  -0.32317  -0.32246  -0.32109
  Beta  occ. eigenvalues --   -0.30717  -0.30111  -0.28975  -0.28422  -0.28074
  Beta  occ. eigenvalues --   -0.27719  -0.27016  -0.24652  -0.23960  -0.23740
  Beta  occ. eigenvalues --   -0.20222  -0.18330  -0.17603  -0.16870  -0.15661
  Beta  occ. eigenvalues --   -0.14950  -0.13876  -0.09033
  Beta virt. eigenvalues --    0.06016   0.06945   0.07098   0.07512   0.08028
  Beta virt. eigenvalues --    0.08151   0.08496   0.08843   0.09323   0.09791
  Beta virt. eigenvalues --    0.10405   0.10467   0.11135   0.11907   0.12268

 Mulliken charges and spin densities:
               1          2
     1  C   -0.233553  -0.039552
     2  N    0.304294   0.018057
     3  C   -0.670603  -0.001657
     4  C    1.266822  -0.044206
     5  C   -0.561481   0.053156
     6  C   -0.729036  -0.072018
     7  C    0.431745  -0.761835
     8  C    0.188596  -0.267680
     9  C   -0.728900   0.458494
    10  O   -0.192525   0.057380
    11  C    0.836605  -1.111319
    12  C   -0.485108   0.137823
    13  N   -0.120224  -0.063522
    14  C    0.118007   0.234875
    15  C   -0.509354  -0.033297
    16  S   -0.137424   0.037235
    17  C    0.588594   0.154207
    18  O   -0.412578   0.064442
    19  O   -0.214356   0.007353
    20  H    0.137393   0.000748
    21  H    0.192411   0.002856
    22  H    0.102440   0.034005
    23  H    0.226392  -0.026638
    24  H    0.130892   0.070435
    25  H    0.154200   0.014530
    26  H    0.143818   0.007478
    27  H   -0.066029   0.215030
    28  H   -0.349759   0.529528
    29  H   -0.367416   0.536683
    30  H   -0.371126   0.528998
    31  H   -0.123448   0.275258
    32  H    0.183877  -0.016630
    33  H    0.266835  -0.000218
 Sum of Mulliken charges =  -1.00000   1.00000

 Dipole moment (field-independent basis, Debye):
    X=              1.1906    Y=              4.1411    Z=             -2.3374  Tot=              4.9020
 Quadrupole moment (field-independent basis, Debye-Ang):
   XX=           -213.6425   YY=           -149.7311   ZZ=           -140.2717
   XY=             -6.8688   XZ=              7.3633   YZ=              5.4521

 Summary of Natural Population Analysis:

                                       Natural Population
                Natural  -----------------------------------------------
    Atom  No    Charge         Core      Valence    Rydberg      Total
 -----------------------------------------------------------------------
      C    1   -0.17613      0.99965     2.17001    0.00647     3.17613
      N    2   -0.24443      0.99961     2.73244    0.01238     3.74443
      C    3   -0.09310      0.99958     2.08130    0.01221     3.09310
      C    4   -0.03941      0.99947     2.02980    0.01014     3.03941
      C    5   -0.09459      0.99952     2.08736    0.00771     3.09459
      C    6   -0.11436      0.99957     2.10557    0.00922     3.11436
      C    7   -0.09702      0.99958     2.08669    0.01075     3.09702
      C    8   -0.14160      0.99952     2.13321    0.00887     3.14160
      C    9    0.16324      0.99934     1.82457    0.01286     2.83676
      O   10   -0.27508      0.99986     3.26557    0.00966     4.27508
      C   11   -0.10003      0.99960     2.09149    0.00893     3.10003
      C   12    0.19036      0.99958     1.79221    0.01785     2.80964
      N   13   -0.30949      0.99965     2.79959    0.01024     3.80949
      C   14    0.07419      0.99951     1.91188    0.01442     2.92581
      C   15   -0.18413      0.99944     2.17353    0.01117     3.18413
      S   16    0.18139      4.99945     2.80047    0.01869     7.81861
      C   17    0.40051      0.99959     1.57558    0.02433     2.59949
      O   18   -0.31373      0.99988     3.30655    0.00731     4.31373
      O   19   -0.35365      0.99988     3.34797    0.00579     4.35365
      H   20    0.09047      0.00000     0.40809    0.00145     0.40953
      H   21    0.11611      0.00000     0.38283    0.00106     0.38389
      H   22    0.08988      0.00000     0.40882    0.00130     0.41012
      H   23    0.11207      0.00000     0.38627    0.00166     0.38793
      H   24    0.10715      0.00000     0.39159    0.00126     0.39285
      H   25    0.10718      0.00000     0.39097    0.00185     0.39282
      H   26    0.09981      0.00000     0.39946    0.00073     0.40019
      H   27    0.09967      0.00000     0.39956    0.00077     0.40033
      H   28    0.10818      0.00000     0.39026    0.00156     0.39182
      H   29    0.09496      0.00000     0.40389    0.00115     0.40504
      H   30    0.08697      0.00000     0.41069    0.00235     0.41303
      H   31    0.08615      0.00000     0.41233    0.00151     0.41385
      H   32    0.09572      0.00000     0.40323    0.00105     0.40428
      H   33    0.23274      0.00000     0.26416    0.00310     0.26726
 =======================================================================
   * Total *   -0.00000     22.99226    49.76793    0.23980    73.00000

 Normal termination of Gaussian 16 at Sat Dec 12 11:46:19 2020.
