 Gaussian 16, Revision A.03,

 -----------------------------------------------------------
 # opt freq B3LYP/6-31G(d) empiricaldispersion=gd3bj scf=xqc
 -----------------------------------------------------------

 ------------------------------
 CID_80904444_JID_9291_neutraal
 ------------------------------
 Symbolic Z-matrix:
 Charge =  0 Multiplicity = 1

 SCF Done:  E(RB3LYP) =  -834.789987430     A.U. after   14 cycles
 SCF Done:  E(RB3LYP) =  -834.799878785     A.U. after   12 cycles
 SCF Done:  E(RB3LYP) =  -834.804604126     A.U. after   12 cycles
 SCF Done:  E(RB3LYP) =  -834.807570872     A.U. after   13 cycles
 SCF Done:  E(RB3LYP) =  -834.808890413     A.U. after   12 cycles
 SCF Done:  E(RB3LYP) =  -834.809095517     A.U. after   12 cycles
 SCF Done:  E(RB3LYP) =  -834.808915014     A.U. after   11 cycles
 SCF Done:  E(RB3LYP) =  -834.809255394     A.U. after   11 cycles
 SCF Done:  E(RB3LYP) =  -834.809281548     A.U. after   10 cycles
 SCF Done:  E(RB3LYP) =  -834.809316781     A.U. after   11 cycles
 SCF Done:  E(RB3LYP) =  -834.809395051     A.U. after    8 cycles
 SCF Done:  E(RB3LYP) =  -834.809397065     A.U. after   10 cycles
 SCF Done:  E(RB3LYP) =  -834.809397419     A.U. after    9 cycles
 SCF Done:  E(RB3LYP) =  -834.809397464     A.U. after    6 cycles
 SCF Done:  E(RB3LYP) =  -834.809397492     A.U. after    6 cycles
 Optimization completed.
    -- Stationary point found.
 Normal termination of Gaussian 16 at Mon Dec 14 13:33:01 2020.

 --------------------------------------------------------------------
 #N Geom=AllCheck Guess=TCheck SCRF=Check GenChk RB3LYP/6-31G(d) Freq
 --------------------------------------------------------------------

 Structure from the checkpoint file:  "JID_9291.chk"
 ------------------------------
 CID_80904444_JID_9291_neutraal
 ------------------------------
 Charge =  0 Multiplicity = 1

 SCF Done:  E(RB3LYP) =  -834.809397492     A.U. after    1 cycles

  Exact polarizability: 246.962  13.464 187.073  -0.784  12.696 109.273
 Approx polarizability: 348.693  20.763 299.127   1.251  30.371 169.062

                      1                      2                      3
                      A                      A                      A
 Frequencies --     17.2649                30.9580                61.0033
 Red. masses --      4.6566                 4.8841                 3.5152
 Frc consts  --      0.0008                 0.0028                 0.0077
 IR Inten    --      0.3447                 0.1313                 0.0245

                      4                      5                      6
                      A                      A                      A
 Frequencies --     71.6242               104.2835               116.2648
 Red. masses --      3.9601                 4.3695                 3.6871
 Frc consts  --      0.0120                 0.0280                 0.0294
 IR Inten    --      0.0234                 3.5276                 0.4797

                      7                      8                      9
                      A                      A                      A
 Frequencies --    135.9423               160.1809               182.9640
 Red. masses --      2.7256                 2.9411                 4.3113
 Frc consts  --      0.0297                 0.0445                 0.0850
 IR Inten    --      0.7942                 1.8723                 2.3869

                     10                     11                     12
                      A                      A                      A
 Frequencies --    197.3260               198.9893               237.2392
 Red. masses --      3.8417                 4.4001                 6.1823
 Frc consts  --      0.0881                 0.1027                 0.2050
 IR Inten    --      5.4357                10.5843                10.7924

                     13                     14                     15
                      A                      A                      A
 Frequencies --    277.3914               285.6593               311.3985
 Red. masses --      3.5690                 1.5185                 2.5076
 Frc consts  --      0.1618                 0.0730                 0.1433
 IR Inten    --      7.9792                 0.7617                 2.1012

                     16                     17                     18
                      A                      A                      A
 Frequencies --    325.7746               337.6264               386.6066
 Red. masses --      2.5172                 1.3374                 2.6637
 Frc consts  --      0.1574                 0.0898                 0.2346
 IR Inten    --      6.1797                16.7488                 8.2614

                     19                     20                     21
                      A                      A                      A
 Frequencies --    410.2666               416.1021               423.8418
 Red. masses --      1.3099                 2.7009                 1.8033
 Frc consts  --      0.1299                 0.2755                 0.1909
 IR Inten    --    325.0066                24.9830                10.1272

                     22                     23                     24
                      A                      A                      A
 Frequencies --    485.4621               490.3495               503.5600
 Red. masses --      1.7530                 1.3595                 3.2008
 Frc consts  --      0.2434                 0.1926                 0.4782
 IR Inten    --     28.5111                33.4715                 0.7395

                     25                     26                     27
                      A                      A                      A
 Frequencies --    513.1609               533.4994               560.5907
 Red. masses --      2.4946                 2.7551                 1.8669
 Frc consts  --      0.3870                 0.4620                 0.3457
 IR Inten    --      5.2112                37.3958               131.6230

                     28                     29                     30
                      A                      A                      A
 Frequencies --    584.0713               603.3493               625.6427
 Red. masses --      3.2136                 4.7534                 4.3657
 Frc consts  --      0.6459                 1.0195                 1.0068
 IR Inten    --      9.1532                 7.2657                37.2796

                     31                     32                     33
                      A                      A                      A
 Frequencies --    667.8155               694.0021               697.5328
 Red. masses --      3.1676                 3.1634                 3.1548
 Frc consts  --      0.8323                 0.8977                 0.9044
 IR Inten    --     85.2831                22.9598                 5.0112

                     34                     35                     36
                      A                      A                      A
 Frequencies --    737.9655               747.7931               759.6318
 Red. masses --      2.9141                 2.2136                 2.4468
 Frc consts  --      0.9350                 0.7293                 0.8319
 IR Inten    --      5.3449                11.8570                 6.2885

                     37                     38                     39
                      A                      A                      A
 Frequencies --    764.1471               800.1697               800.4172
 Red. masses --      1.3173                11.3555                 2.4233
 Frc consts  --      0.4532                 4.2837                 0.9147
 IR Inten    --     35.5211                55.1176                 5.0534

                     40                     41                     42
                      A                      A                      A
 Frequencies --    822.3890               860.5934               873.3754
 Red. masses --      2.3364                 2.5217                 2.1369
 Frc consts  --      0.9310                 1.1004                 0.9604
 IR Inten    --      3.6695                 1.6060                 0.1646

                     43                     44                     45
                      A                      A                      A
 Frequencies --    881.9297               906.7388               935.8178
 Red. masses --      1.8452                 1.5179                 1.9159
 Frc consts  --      0.8456                 0.7353                 0.9886
 IR Inten    --      0.2260                 3.1931               156.5106

                     46                     47                     48
                      A                      A                      A
 Frequencies --    943.7700               974.6190               992.9317
 Red. masses --      1.3603                 1.2469                 9.5316
 Frc consts  --      0.7139                 0.6978                 5.5367
 IR Inten    --      1.8963                 0.1945                 3.9652

                     49                     50                     51
                      A                      A                      A
 Frequencies --   1036.3232              1054.1161              1072.2003
 Red. masses --      2.1234                 2.0647                 1.7330
 Frc consts  --      1.3436                 1.3517                 1.1738
 IR Inten    --      2.2104                 0.8460                 1.7922

                     52                     53                     54
                      A                      A                      A
 Frequencies --   1084.5523              1101.8410              1113.6776
 Red. masses --      2.1811                 3.2341                 1.7911
 Frc consts  --      1.5116                 2.3133                 1.3089
 IR Inten    --      7.0097                22.9280                 0.2066

                     55                     56                     57
                      A                      A                      A
 Frequencies --   1142.1818              1174.1203              1196.1235
 Red. masses --      1.9529                 1.9711                 1.0900
 Frc consts  --      1.5011                 1.6010                 0.9188
 IR Inten    --     11.4830                 2.4156                 0.2339

                     58                     59                     60
                      A                      A                      A
 Frequencies --   1211.7614              1215.3316              1249.6319
 Red. masses --      1.7197                 1.8614                 1.5012
 Frc consts  --      1.4878                 1.6199                 1.3812
 IR Inten    --     41.8473                 4.7988                 2.0499

                     61                     62                     63
                      A                      A                      A
 Frequencies --   1256.2888              1293.0941              1306.1725
 Red. masses --      2.6730                 2.4374                 1.2540
 Frc consts  --      2.4856                 2.4012                 1.2605
 IR Inten    --     54.9651                50.2144                 2.3633

                     64                     65                     66
                      A                      A                      A
 Frequencies --   1330.9251              1339.9929              1351.6140
 Red. masses --      2.0078                 3.5899                 1.2176
 Frc consts  --      2.0955                 3.7979                 1.3106
 IR Inten    --    112.6890                12.3911                30.5503

                     67                     68                     69
                      A                      A                      A
 Frequencies --   1359.7474              1376.8117              1395.6807
 Red. masses --      3.0816                 1.4457                 1.3740
 Frc consts  --      3.3569                 1.6146                 1.5769
 IR Inten    --      5.9059                 7.4538                 5.8817

                     70                     71                     72
                      A                      A                      A
 Frequencies --   1427.2150              1446.8286              1450.3464
 Red. masses --      2.3126                 1.4742                 1.5853
 Frc consts  --      2.7755                 1.8182                 1.9648
 IR Inten    --     42.6936                22.9684                38.4877

                     73                     74                     75
                      A                      A                      A
 Frequencies --   1497.8672              1509.4603              1516.0136
 Red. masses --      2.6894                 1.9332                 1.1696
 Frc consts  --      3.5551                 2.5952                 1.5838
 IR Inten    --    251.7814               131.0163                 7.8677

                     76                     77                     78
                      A                      A                      A
 Frequencies --   1524.0804              1529.1057              1537.4748
 Red. masses --      1.8493                 1.3736                 1.1677
 Frc consts  --      2.5309                 1.8923                 1.6263
 IR Inten    --     37.3355                40.4218                 8.6197

                     79                     80                     81
                      A                      A                      A
 Frequencies --   1541.7717              1545.8576              1571.0317
 Red. masses --      1.1291                 2.4348                 2.7240
 Frc consts  --      1.5813                 3.4281                 3.9613
 IR Inten    --     55.2731               235.4431               127.2848

                     82                     83                     84
                      A                      A                      A
 Frequencies --   1634.9665              1635.9855              1652.5212
 Red. masses --      6.0145                 5.1468                 2.1690
 Frc consts  --      9.4726                 8.1161                 3.4898
 IR Inten    --   1097.1203                85.4738                31.8822

                     85                     86                     87
                      A                      A                      A
 Frequencies --   1670.3763              1672.5716              1729.9111
 Red. masses --      2.9606                 3.6455                 1.0720
 Frc consts  --      4.8670                 6.0086                 1.8901
 IR Inten    --    336.5408               152.4079                13.0425

                     88                     89                     90
                      A                      A                      A
 Frequencies --   3032.5462              3034.9397              3050.3145
 Red. masses --      1.0647                 1.0622                 1.0392
 Frc consts  --      5.7688                 5.7645                 5.6972
 IR Inten    --     34.4012                35.6730                18.2641

                     91                     92                     93
                      A                      A                      A
 Frequencies --   3070.6134              3078.2183              3112.0358
 Red. masses --      1.0964                 1.1005                 1.1016
 Frc consts  --      6.0909                 6.1440                 6.2859
 IR Inten    --     39.7642                43.6098                44.3206

                     94                     95                     96
                      A                      A                      A
 Frequencies --   3133.4572              3172.7612              3189.5918
 Red. masses --      1.1014                 1.0872                 1.0887
 Frc consts  --      6.3715                 6.4484                 6.5257
 IR Inten    --     26.6294                12.2283                13.9028

                     97                     98                     99
                      A                      A                      A
 Frequencies --   3207.0210              3219.4614              3250.3280
 Red. masses --      1.0959                 1.0906                 1.0926
 Frc consts  --      6.6410                 6.6600                 6.8007
 IR Inten    --     36.2270                 6.7734                 4.5501

                    100                    101                    102
                      A                      A                      A
 Frequencies --   3419.4140              3518.8150              3601.2566
 Red. masses --      1.0492                 1.0932                 1.0628
 Frc consts  --      7.2280                 7.9749                 8.1209
 IR Inten    --     12.7926                 0.3862                36.5925

                    103                    104                    105
                      A                      A                      A
 Frequencies --   3601.8511              3632.3582              3724.9064
 Red. masses --      1.0590                 1.0750                 1.1032
 Frc consts  --      8.0949                 8.3565                 9.0186
 IR Inten    --     61.1094                21.2679                32.0513

 - Thermochemistry -
 -------------------
 Temperature   298.150 Kelvin.  Pressure   1.00000 Atm.
 Atom     1 has atomic number  6 and mass  12.00000

 Molecular mass:   258.15929 amu.
 Principal axes and moments of inertia in atomic units:
                           1         2         3
     Eigenvalues --  2910.381147930.155159305.99374
           X            0.99996  -0.00325   0.00773
           Y            0.00333   0.99995  -0.00990
           Z           -0.00769   0.00993   0.99992
 This molecule is an asymmetric top.
 Rotational symmetry number  1.
 Warning -- assumption of classical behavior for rotation
           may cause significant error
 Rotational temperatures (Kelvin)      0.02976     0.01092     0.00931
 Rotational constants (GHZ):           0.62010     0.22758     0.19393
 Zero-point vibrational energy     820970.2 (Joules/Mol)
                                  196.21658 (Kcal/Mol)
 Warning -- explicit consideration of  29 degrees of freedom as
           vibrations may cause significant error
 Vibrational temperatures:     24.84    44.54    87.77   103.05   150.04
          (Kelvin)            167.28   195.59   230.46   263.24   283.91
                              286.30   341.33   399.10   411.00   448.03
                              468.72   485.77   556.24   590.28   598.68
                              609.81   698.47   705.50   724.51   738.32
                              767.59   806.56   840.35   868.09   900.16
                              960.84   998.51  1003.59  1061.77  1075.91
                             1092.94  1099.44  1151.27  1151.62  1183.23
                             1238.20  1256.59  1268.90  1304.59  1346.43
                             1357.87  1402.26  1428.61  1491.04  1516.64
                             1542.66  1560.43  1585.30  1602.33  1643.34
                             1689.30  1720.95  1743.45  1748.59  1797.94
                             1807.52  1860.47  1879.29  1914.90  1927.95
                             1944.67  1956.37  1980.92  2008.07  2053.44
                             2081.66  2086.72  2155.10  2171.78  2181.21
                             2192.81  2200.04  2212.08  2218.27  2224.14
                             2260.36  2352.35  2353.82  2377.61  2403.30
                             2406.46  2488.96  4363.16  4366.60  4388.72
                             4417.93  4428.87  4477.53  4508.35  4564.90
                             4589.11  4614.19  4632.09  4676.50  4919.77
                             5062.79  5181.40  5182.26  5226.15  5359.31

 Zero-point correction=                           0.312691 (Hartree/Particle)
 Thermal correction to Energy=                    0.330661
 Thermal correction to Enthalpy=                  0.331605
 Thermal correction to Gibbs Free Energy=         0.265918
 Sum of electronic and zero-point Energies=           -834.496706
 Sum of electronic and thermal Energies=              -834.478737
 Sum of electronic and thermal Enthalpies=            -834.477793
 Sum of electronic and thermal Free Energies=         -834.543480

                     E (Thermal)             CV                S
                      KCal/Mol        Cal/Mol-Kelvin    Cal/Mol-Kelvin
 Total                  207.493             69.953            138.251
 Electronic               0.000              0.000              0.000
 Translational            0.889              2.981             42.545
 Rotational               0.889              2.981             33.729
 Vibrational            205.715             63.992             61.977
 Vibration     1          0.593              1.986              6.926
 Vibration     2          0.594              1.984              5.767
 Vibration     3          0.597              1.973              4.424
 Vibration     4          0.598              1.968              4.108
 Vibration     5          0.605              1.946              3.373
 Vibration     6          0.608              1.936              3.162
 Vibration     7          0.614              1.917              2.860
 Vibration     8          0.622              1.891              2.548
 Vibration     9          0.630              1.863              2.298
 Vibration    10          0.637              1.844              2.158
 Vibration    11          0.637              1.841              2.142
 Vibration    12          0.656              1.784              1.823
 Vibration    13          0.678              1.715              1.550
 Vibration    14          0.683              1.700              1.500
 Vibration    15          0.700              1.652              1.355
 Vibration    16          0.710              1.624              1.281
 Vibration    17          0.718              1.600              1.223
 Vibration    18          0.755              1.499              1.013
 Vibration    19          0.774              1.448              0.926
 Vibration    20          0.779              1.435              0.905
 Vibration    21          0.786              1.418              0.879
 Vibration    22          0.842              1.282              0.695
 Vibration    23          0.846              1.271              0.683
 Vibration    24          0.859              1.242              0.649
 Vibration    25          0.868              1.221              0.626
 Vibration    26          0.888              1.176              0.579
 Vibration    27          0.916              1.117              0.523
 Vibration    28          0.941              1.066              0.478
 Vibration    29          0.962              1.025              0.444

 Optimization completed.
    -- Stationary point found.
 Normal termination of Gaussian 16 at Mon Dec 14 13:52:07 2020.

 ----------------------------------------------------------------------
 # B3LYP/6-311++G(d,p) empiricaldispersion=gd3bj scf=xqc pop=npa geom=c
 heck
 ----------------------------------------------------------------------

 --------------------------------------
 CID_80904444_JID_9291_Energie_neutraal
 --------------------------------------
 Structure from the checkpoint file:  "JID_9291.chk"
 Charge =  0 Multiplicity = 1

 SCF Done:  E(RB3LYP) =  -835.050405436     A.U. after   14 cycles
 Normal termination of Gaussian 16 at Mon Dec 14 14:00:07 2020.

 ----------------------------------------------------------------------
 # B3LYP/6-311++G(d,p) empiricaldispersion=gd3bj scf=xqc pop=npa geom=c
 heck
 ----------------------------------------------------------------------

 ------------------------------------
 CID_80904444_JID_9291_Energie_kation
 ------------------------------------
 Structure from the checkpoint file:  "JID_9291.chk"
 Charge =  1 Multiplicity = 2

 SCF Done:  E(UB3LYP) =  -834.783561346     A.U. after   23 cycles
 Normal termination of Gaussian 16 at Mon Dec 14 14:18:38 2020.
 Gaussian 16:  ES64L-G16RevA.03 25-Dec-2016

 ----------------------------------------------------------------------
 # B3LYP/6-311++G(d,p) empiricaldispersion=gd3bj scf=xqc pop=npa geom=c
 heck
 ----------------------------------------------------------------------

 -----------------------------------
 CID_80904444_JID_9291_Energie_anion
 -----------------------------------
 Structure from the checkpoint file:  "JID_9291.chk"
 Charge = -1 Multiplicity = 2

                         Standard orientation:
 ---------------------------------------------------------------------
 Center     Atomic      Atomic             Coordinates (Angstroms)
 Number     Number       Type             X           Y           Z
 ---------------------------------------------------------------------
      1          6           0        0.921068   -1.802154    1.906393
      2          6           0        2.228844   -2.413483    1.398721
      3          6           0        2.535930   -2.128170   -0.087513
      4          6           0        2.739392   -0.656041   -0.377376
      5          6           0        4.016723   -0.106966   -0.210229
      6          6           0        4.255987    1.255584   -0.364536
      7          6           0        3.199234    2.100248   -0.707800
      8          6           0        1.925662    1.578775   -0.907038
      9          6           0        1.687020    0.208342   -0.739046
     10          7           0        0.398348   -0.322538   -0.979480
     11          6           0       -0.795037    0.124734   -0.455612
     12          6           0       -1.958344   -0.637375   -0.665192
     13          6           0       -3.132686   -0.123426   -0.108241
     14          7           0       -3.167530    1.027766    0.588964
     15          6           0       -1.989449    1.646225    0.732913
     16          7           0       -0.796570    1.268603    0.237269
     17          7           0       -1.985310    2.784645    1.493759
     18          7           0       -4.342654   -0.769400   -0.216903
     19          7           0       -4.600494   -1.745174   -1.193556
     20          1           0        0.922865   -0.711712    1.814272
     21          1           0        0.764174   -2.049144    2.962180
     22          1           0        0.056532   -2.178271    1.346382
     23          1           0        3.065854   -2.034206    1.999341
     24          1           0        2.208867   -3.502060    1.542846
     25          1           0        3.448998   -2.667877   -0.365451
     26          1           0        1.738036   -2.563612   -0.703839
     27          1           0        4.834226   -0.771081    0.061679
     28          1           0        5.256257    1.653754   -0.221019
     29          1           0        3.368388    3.165562   -0.837241
     30          1           0        1.099482    2.220555   -1.182916
     31          1           0        0.374778   -1.276745   -1.305896
     32          1           0       -1.937271   -1.568958   -1.217181
     33          1           0       -1.181677    3.386604    1.394366
     34          1           0       -2.880911    3.220000    1.656148
     35          1           0       -5.144504   -0.198830    0.018056
     36          1           0       -4.151878   -1.482734   -2.073974
     37          1           0       -4.188817   -2.626324   -0.890783
 ---------------------------------------------------------------------

 SCF Done:  E(UB3LYP) =  -835.041999651     A.U. after   33 cycles
 SCF Done:  E(UB3LYP) =  -835.041999651     a.u. after    1 cycles

 The electronic state is 2-A.
 Alpha  occ. eigenvalues --  -14.25690 -14.24443 -14.23850 -14.23329 -14.19780
 Alpha  occ. eigenvalues --  -14.19542 -10.17640 -10.15877 -10.15205 -10.12238
 Alpha  occ. eigenvalues --  -10.08814 -10.08188 -10.08129 -10.08022 -10.07809
 Alpha  occ. eigenvalues --  -10.07714 -10.07307 -10.06305 -10.05569  -0.91663
 Alpha  occ. eigenvalues --   -0.89370  -0.86333  -0.80496  -0.78442  -0.75662
 Alpha  occ. eigenvalues --   -0.70401  -0.69868  -0.66957  -0.65242  -0.63680
 Alpha  occ. eigenvalues --   -0.58760  -0.56190  -0.54516  -0.51962  -0.50910
 Alpha  occ. eigenvalues --   -0.48276  -0.47334  -0.45742  -0.43397  -0.42008
 Alpha  occ. eigenvalues --   -0.41101  -0.39211  -0.38667  -0.37939  -0.36627
 Alpha  occ. eigenvalues --   -0.36182  -0.35643  -0.34969  -0.34403  -0.33618
 Alpha  occ. eigenvalues --   -0.33261  -0.31328  -0.30510  -0.28859  -0.27301
 Alpha  occ. eigenvalues --   -0.26681  -0.25800  -0.25742  -0.24510  -0.23874
 Alpha  occ. eigenvalues --   -0.23247  -0.21659  -0.18955  -0.18343  -0.16589
 Alpha  occ. eigenvalues --   -0.15561  -0.15399  -0.13536  -0.11377   0.04070
 Alpha virt. eigenvalues --    0.05883   0.06165   0.07087   0.07112   0.07754
 Alpha virt. eigenvalues --    0.08194   0.08378   0.09077   0.09277   0.09566
 Alpha virt. eigenvalues --    0.10061   0.10328   0.10611   0.11101   0.11312

  Beta  occ. eigenvalues --  -14.25685 -14.24424 -14.23791 -14.23315 -14.19779
  Beta  occ. eigenvalues --  -14.19535 -10.17637 -10.15877 -10.15201 -10.12241
  Beta  occ. eigenvalues --  -10.08800 -10.08176 -10.08123 -10.08000 -10.07782
  Beta  occ. eigenvalues --  -10.07699 -10.07293 -10.06268 -10.05553  -0.91640
  Beta  occ. eigenvalues --   -0.89335  -0.86308  -0.80470  -0.78419  -0.75629
  Beta  occ. eigenvalues --   -0.70359  -0.69798  -0.66918  -0.65203  -0.63642
  Beta  occ. eigenvalues --   -0.58713  -0.56161  -0.54480  -0.51914  -0.50883
  Beta  occ. eigenvalues --   -0.48235  -0.47302  -0.45707  -0.43355  -0.41952
  Beta  occ. eigenvalues --   -0.41039  -0.39179  -0.38633  -0.37887  -0.36583
  Beta  occ. eigenvalues --   -0.36146  -0.35600  -0.34933  -0.34378  -0.33590
  Beta  occ. eigenvalues --   -0.33233  -0.31304  -0.30472  -0.28821  -0.27259
  Beta  occ. eigenvalues --   -0.26656  -0.25772  -0.25713  -0.24472  -0.23834
  Beta  occ. eigenvalues --   -0.23216  -0.21644  -0.18922  -0.18291  -0.16559
  Beta  occ. eigenvalues --   -0.15540  -0.15306  -0.13502  -0.11339
  Beta virt. eigenvalues --    0.05892   0.06461   0.07006   0.07141   0.07627
  Beta virt. eigenvalues --    0.07884   0.08374   0.08795   0.09416   0.09472
  Beta virt. eigenvalues --    0.09783   0.10224   0.10606   0.10786   0.11340

 Mulliken charges and spin densities:
               1          2
     1  C   -0.326276  -0.272942
     2  C    0.384000  -0.751439
     3  C    0.760066  -1.026862
     4  C   -0.460982   1.156410
     5  C   -0.177506  -0.366583
     6  C   -0.245327  -0.255482
     7  C    0.127649  -0.231174
     8  C    0.079724  -0.246184
     9  C    0.098041   0.087148
    10  N    0.103442   0.063046
    11  C   -0.629197   0.647291
    12  C   -0.152767  -0.139305
    13  C    1.633442  -2.118691
    14  N   -0.216328  -0.023223
    15  C   -0.160909   0.136573
    16  N   -0.169249   0.041569
    17  N   -0.284284   0.017556
    18  N   -0.453361   0.229522
    19  N    0.046648  -0.383827
    20  H    0.110524   0.022557
    21  H    0.020107   0.125115
    22  H    0.072756   0.100291
    23  H    0.089555   0.037298
    24  H   -0.207023   0.361659
    25  H   -0.232681   0.410642
    26  H   -0.579123   0.693860
    27  H   -0.032108   0.175164
    28  H   -0.020125   0.161022
    29  H    0.093192   0.059637
    30  H    0.036799   0.141193
    31  H    0.168604   0.144210
    32  H   -0.943532   1.147823
    33  H    0.176354   0.083880
    34  H    0.137169   0.125800
    35  H    0.271790   0.017965
    36  H   -0.055011   0.294983
    37  H   -0.064070   0.333500
 Sum of Mulliken charges =  -1.00000   1.00000

 Dipole moment (field-independent basis, Debye):
    X=              2.2548    Y=              7.3351    Z=              2.4547  Tot=              8.0569
 Quadrupole moment (field-independent basis, Debye-Ang):
   XX=           -181.3780   YY=           -165.0334   ZZ=           -147.8821
   XY=             -7.9979   XZ=             -4.7779   YZ=             -8.3230

 Summary of Natural Population Analysis:

                                       Natural Population
                Natural  -----------------------------------------------
    Atom  No    Charge         Core      Valence    Rydberg      Total
 -----------------------------------------------------------------------
      C    1   -0.28998      0.99966     2.28519    0.00513     3.28998
      C    2   -0.18329      0.99963     2.17591    0.00774     3.18329
      C    3   -0.19703      0.99960     2.18718    0.01026     3.19703
      C    4   -0.02113      0.99947     2.01127    0.01039     3.02113
      C    5   -0.09589      0.99952     2.08680    0.00957     3.09589
      C    6   -0.11185      0.99956     2.10276    0.00953     3.11185
      C    7   -0.10250      0.99957     2.09349    0.00944     3.10250
      C    8   -0.09530      0.99952     2.08739    0.00839     3.09530
      C    9    0.08159      0.99941     1.90699    0.01200     2.91841
      N   10   -0.30088      0.99963     2.79017    0.01108     3.80088
      C   11    0.22928      0.99953     1.75585    0.01534     2.77072
      C   12   -0.21082      0.99947     2.20065    0.01070     3.21082
      C   13    0.21455      0.99952     1.77007    0.01585     2.78545
      N   14   -0.31054      0.99964     2.80056    0.01034     3.81054
      C   15    0.30614      0.99964     1.67654    0.01769     2.69386
      N   16   -0.30906      0.99963     2.79972    0.00971     3.80906
      N   17   -0.39210      0.99970     2.88348    0.00892     3.89210
      N   18   -0.22275      0.99965     2.70800    0.01510     3.72275
      N   19   -0.31808      0.99978     2.80696    0.01134     3.81808
      H   20    0.10233      0.00000     0.39637    0.00130     0.39767
      H   21    0.09633      0.00000     0.40294    0.00073     0.40367
      H   22    0.10071      0.00000     0.39804    0.00125     0.39929
      H   23    0.09111      0.00000     0.40774    0.00115     0.40889
      H   24    0.09656      0.00000     0.40221    0.00122     0.40344
      H   25    0.10405      0.00000     0.39454    0.00141     0.39595
      H   26    0.09917      0.00000     0.39822    0.00261     0.40083
      H   27    0.09883      0.00000     0.40021    0.00096     0.40117
      H   28    0.09773      0.00000     0.40149    0.00078     0.40227
      H   29    0.09769      0.00000     0.40155    0.00076     0.40231
      H   30    0.11089      0.00000     0.38787    0.00124     0.38911
      H   31    0.19833      0.00000     0.29758    0.00408     0.30167
      H   32    0.11453      0.00000     0.38122    0.00426     0.38547
      H   33    0.19324      0.00000     0.30521    0.00155     0.30676
      H   34    0.19175      0.00000     0.30649    0.00175     0.30825
      H   35    0.18528      0.00000     0.31185    0.00287     0.31472
      H   36    0.17262      0.00000     0.32423    0.00315     0.32738
      H   37    0.17847      0.00000     0.31834    0.00319     0.32153
 =======================================================================
   * Total *    0.00000     18.99213    49.76507    0.24280    69.00000

 Normal termination of Gaussian 16 at Mon Dec 14 14:44:50 2020.
