 Gaussian 16, Revision A.03,

 -----------------------------------------------------------
 # opt freq B3LYP/6-31G(d) empiricaldispersion=gd3bj scf=xqc
 -----------------------------------------------------------

 ------------------------------
 CID_61570254_JID_6500_neutraal
 ------------------------------
 Symbolic Z-matrix:
 Charge =  0 Multiplicity = 1

 SCF Done:  E(RB3LYP) =  -695.801195709     A.U. after   13 cycles
 SCF Done:  E(RB3LYP) =  -695.806316498     A.U. after   11 cycles
 SCF Done:  E(RB3LYP) =  -695.805717099     A.U. after   11 cycles
 SCF Done:  E(RB3LYP) =  -695.807002550     A.U. after   10 cycles
 SCF Done:  E(RB3LYP) =  -695.808249397     A.U. after   11 cycles
 SCF Done:  E(RB3LYP) =  -695.808498783     A.U. after   11 cycles
 SCF Done:  E(RB3LYP) =  -695.808594339     A.U. after   10 cycles
 SCF Done:  E(RB3LYP) =  -695.808655853     A.U. after    9 cycles
 SCF Done:  E(RB3LYP) =  -695.808654209     A.U. after    9 cycles
 SCF Done:  E(RB3LYP) =  -695.808644875     A.U. after   10 cycles
 SCF Done:  E(RB3LYP) =  -695.808695047     A.U. after    9 cycles
 SCF Done:  E(RB3LYP) =  -695.808699080     A.U. after    7 cycles
 SCF Done:  E(RB3LYP) =  -695.808700851     A.U. after    8 cycles
 SCF Done:  E(RB3LYP) =  -695.808701181     A.U. after    6 cycles
 SCF Done:  E(RB3LYP) =  -695.808701223     A.U. after    6 cycles
 SCF Done:  E(RB3LYP) =  -695.808701250     A.U. after    6 cycles
 Optimization completed.
    -- Stationary point found.
 Normal termination of Gaussian 16 at Thu Dec 10 23:27:54 2020.

 --------------------------------------------------------------------
 #N Geom=AllCheck Guess=TCheck SCRF=Check GenChk RB3LYP/6-31G(d) Freq
 --------------------------------------------------------------------

 Structure from the checkpoint file:  "JID_6500.chk"
 ------------------------------
 CID_61570254_JID_6500_neutraal
 ------------------------------
 Charge =  0 Multiplicity = 1

 SCF Done:  E(RB3LYP) =  -695.808701250     A.U. after    1 cycles

  Exact polarizability: 166.579   0.599 145.500  -0.090   2.471 134.736
 Approx polarizability: 210.837   0.845 205.316   0.838   2.068 201.803

                      1                      2                      3
                      A                      A                      A
 Frequencies --     54.6860                64.4912                76.3307
 Red. masses --      3.4268                 3.1322                 2.9245
 Frc consts  --      0.0060                 0.0077                 0.0100
 IR Inten    --      0.4968                 0.1858                 0.4320

                      4                      5                      6
                      A                      A                      A
 Frequencies --     86.1832               103.3102               116.6473
 Red. masses --      2.9222                 2.9896                 3.2455
 Frc consts  --      0.0128                 0.0188                 0.0260
 IR Inten    --      1.3589                 0.3799                 0.7065

                      7                      8                      9
                      A                      A                      A
 Frequencies --    155.4064               178.0696               214.6601
 Red. masses --      2.9635                 2.5036                 2.3213
 Frc consts  --      0.0422                 0.0468                 0.0630
 IR Inten    --      0.2468                 0.4101                 1.2256

                     10                     11                     12
                      A                      A                      A
 Frequencies --    232.1731               240.8514               277.4024
 Red. masses --      1.3623                 2.6014                 1.9140
 Frc consts  --      0.0433                 0.0889                 0.0868
 IR Inten    --      3.3280                 1.2561                 1.6630

                     13                     14                     15
                      A                      A                      A
 Frequencies --    296.3889               308.3300               339.6859
 Red. masses --      2.7336                 2.2491                 2.2479
 Frc consts  --      0.1415                 0.1260                 0.1528
 IR Inten    --      7.8168                 3.3880                 3.0915

                     16                     17                     18
                      A                      A                      A
 Frequencies --    368.4045               393.3997               412.5039
 Red. masses --      2.4616                 2.2253                 2.4280
 Frc consts  --      0.1968                 0.2029                 0.2434
 IR Inten    --      1.7410                 2.7106                 3.9239

                     19                     20                     21
                      A                      A                      A
 Frequencies --    441.7673               454.2638               469.1515
 Red. masses --      2.4585                 3.2321                 1.8944
 Frc consts  --      0.2827                 0.3930                 0.2457
 IR Inten    --      1.4778                 1.1985                 0.8884

                     22                     23                     24
                      A                      A                      A
 Frequencies --    494.6228               548.1381               634.9698
 Red. masses --      3.4936                 1.9628                 2.1301
 Frc consts  --      0.5036                 0.3475                 0.5060
 IR Inten    --      0.9518                 0.3030                 5.1290

                     25                     26                     27
                      A                      A                      A
 Frequencies --    648.4523               711.2831               717.1189
 Red. masses --      2.4943                 2.8537                 2.8700
 Frc consts  --      0.6179                 0.8506                 0.8696
 IR Inten    --      8.5549                 6.9219                11.3609

                     28                     29                     30
                      A                      A                      A
 Frequencies --    755.6612               791.0793               801.1426
 Red. masses --      1.7783                 1.8972                 1.6737
 Frc consts  --      0.5983                 0.6995                 0.6329
 IR Inten    --    151.4838                 2.9855                 6.3330

                     31                     32                     33
                      A                      A                      A
 Frequencies --    840.0889               852.1463               861.0946
 Red. masses --      2.0243                 1.7089                 2.9325
 Frc consts  --      0.8417                 0.7311                 1.2811
 IR Inten    --     12.9300                 1.7402                 4.5165

                     34                     35                     36
                      A                      A                      A
 Frequencies --    872.5465               889.6516               902.8499
 Red. masses --      2.0581                 2.3493                 1.8819
 Frc consts  --      0.9232                 1.0956                 0.9038
 IR Inten    --      4.5237                20.4734                 5.8949

                     37                     38                     39
                      A                      A                      A
 Frequencies --    934.2662               947.0155               966.4682
 Red. masses --      1.8888                 1.9258                 2.0935
 Frc consts  --      0.9714                 1.0176                 1.1521
 IR Inten    --      4.5834                 1.9095                 4.5231

                     40                     41                     42
                      A                      A                      A
 Frequencies --    986.6427               987.1484              1008.1198
 Red. masses --      2.0050                 1.8344                 1.7641
 Frc consts  --      1.1499                 1.0532                 1.0563
 IR Inten    --      1.0004                 9.5022                 7.1366

                     43                     44                     45
                      A                      A                      A
 Frequencies --   1037.5503              1051.7906              1071.2504
 Red. masses --      2.0743                 2.2502                 1.8545
 Frc consts  --      1.3156                 1.4667                 1.2539
 IR Inten    --      2.7010                 7.8562                29.0288

                     46                     47                     48
                      A                      A                      A
 Frequencies --   1075.1624              1095.7084              1107.3608
 Red. masses --      1.8125                 1.8156                 2.0780
 Frc consts  --      1.2344                 1.2843                 1.5013
 IR Inten    --      9.0605                 4.3601                26.0304

                     49                     50                     51
                      A                      A                      A
 Frequencies --   1116.9327              1127.9656              1133.8549
 Red. masses --      5.1279                 1.6138                 2.1452
 Frc consts  --      3.7691                 1.2097                 1.6250
 IR Inten    --     94.7488                17.6951                 1.4030

                     52                     53                     54
                      A                      A                      A
 Frequencies --   1163.4177              1169.6785              1175.8553
 Red. masses --      2.1933                 1.7859                 2.1341
 Frc consts  --      1.7491                 1.4396                 1.7385
 IR Inten    --     12.3674                 8.1262                36.7691

                     55                     56                     57
                      A                      A                      A
 Frequencies --   1181.5202              1207.6926              1221.9738
 Red. masses --      1.5212                 1.9797                 1.4047
 Frc consts  --      1.2512                 1.7012                 1.2359
 IR Inten    --     11.0464                 7.7421                 6.1301

                     58                     59                     60
                      A                      A                      A
 Frequencies --   1240.2068              1244.2818              1269.6928
 Red. masses --      1.7407                 1.5278                 1.7144
 Frc consts  --      1.5775                 1.3937                 1.6284
 IR Inten    --      9.9586                13.2760                12.3920

                     61                     62                     63
                      A                      A                      A
 Frequencies --   1298.9614              1303.7939              1310.4744
 Red. masses --      1.2462                 1.2792                 1.1945
 Frc consts  --      1.2388                 1.2812                 1.2086
 IR Inten    --      1.9914                 4.0684                 4.3055

                     64                     65                     66
                      A                      A                      A
 Frequencies --   1318.0935              1336.5433              1359.3317
 Red. masses --      1.1891                 1.2419                 1.2780
 Frc consts  --      1.2172                 1.3071                 1.3914
 IR Inten    --      6.5942                 4.9404                 4.0841

                     67                     68                     69
                      A                      A                      A
 Frequencies --   1365.2629              1368.8430              1377.6610
 Red. masses --      1.3165                 1.3287                 1.3984
 Frc consts  --      1.4458                 1.4669                 1.5638
 IR Inten    --      0.8028                 1.0372                 5.3046

                     70                     71                     72
                      A                      A                      A
 Frequencies --   1385.6707              1391.1738              1393.3884
 Red. masses --      1.3578                 1.3989                 1.4274
 Frc consts  --      1.5360                 1.5952                 1.6328
 IR Inten    --      1.5770                12.1168                 5.4749

                     73                     74                     75
                      A                      A                      A
 Frequencies --   1396.2830              1401.6256              1403.9508
 Red. masses --      1.3763                 1.3422                 1.4283
 Frc consts  --      1.5810                 1.5536                 1.6587
 IR Inten    --      5.1539                18.5858                 4.8387

                     76                     77                     78
                      A                      A                      A
 Frequencies --   1415.6582              1422.2940              1426.7577
 Red. masses --      1.3098                 1.3735                 1.4404
 Frc consts  --      1.5466                 1.6370                 1.7276
 IR Inten    --      2.2394                11.0770                29.1359

                     79                     80                     81
                      A                      A                      A
 Frequencies --   1433.6980              1446.9919              1479.5870
 Red. masses --      1.3172                 1.3020                 1.1475
 Frc consts  --      1.5952                 1.6062                 1.4800
 IR Inten    --      8.3128                 1.1137                 2.4996

                     82                     83                     84
                      A                      A                      A
 Frequencies --   1492.6738              1506.0023              1512.8436
 Red. masses --      1.1077                 1.0996                 1.0949
 Frc consts  --      1.4541                 1.4693                 1.4764
 IR Inten    --      7.2103                 1.8919                 7.2774

                     85                     86                     87
                      A                      A                      A
 Frequencies --   1514.1944              1516.6558              1519.2270
 Red. masses --      1.0867                 1.0837                 1.0755
 Frc consts  --      1.4680                 1.4687                 1.4626
 IR Inten    --      4.1979                 0.8852                 3.9448

                     88                     89                     90
                      A                      A                      A
 Frequencies --   1523.7751              1526.4995              1530.1510
 Red. masses --      1.1376                 1.1095                 1.0975
 Frc consts  --      1.5563                 1.5232                 1.5140
 IR Inten    --     10.0514                 1.4647                 3.1797

                     91                     92                     93
                      A                      A                      A
 Frequencies --   1531.3817              1533.9139              1543.7025
 Red. masses --      1.1064                 1.0975                 1.0932
 Frc consts  --      1.5288                 1.5214                 1.5349
 IR Inten    --      2.0263                 0.3089                 6.7956

                     94                     95                     96
                      A                      A                      A
 Frequencies --   1559.6916              2910.4616              2935.2171
 Red. masses --      1.0509                 1.0793                 1.0832
 Frc consts  --      1.5062                 5.3867                 5.4984
 IR Inten    --     12.0229                62.1470                68.4561

                     97                     98                     99
                      A                      A                      A
 Frequencies --   2975.1037              2983.6491              3017.4064
 Red. masses --      1.0725                 1.0730                 1.0392
 Frc consts  --      5.5930                 5.6277                 5.5744
 IR Inten    --     75.9616                61.7035                46.1331

                    100                    101                    102
                      A                      A                      A
 Frequencies --   3025.0597              3034.2886              3040.1837
 Red. masses --      1.0655                 1.0602                 1.0613
 Frc consts  --      5.7445                 5.7510                 5.7795
 IR Inten    --     30.7523                29.7960                31.5910

                    103                    104                    105
                      A                      A                      A
 Frequencies --   3044.7592              3046.4305              3047.4879
 Red. masses --      1.0662                 1.0645                 1.0697
 Frc consts  --      5.8237                 5.8205                 5.8535
 IR Inten    --     57.4853                23.8848                25.1871

                    106                    107                    108
                      A                      A                      A
 Frequencies --   3050.1362              3067.6960              3072.2369
 Red. masses --      1.0729                 1.0625                 1.0959
 Frc consts  --      5.8809                 5.8914                 6.0942
 IR Inten    --     40.0295                23.8545                55.6564

                    109                    110                    111
                      A                      A                      A
 Frequencies --   3077.7013              3078.9838              3083.8614
 Red. masses --      1.0972                 1.1022                 1.1007
 Frc consts  --      6.1235                 6.1563                 6.1675
 IR Inten    --     27.1875                52.6667                18.9745

                    112                    113                    114
                      A                      A                      A
 Frequencies --   3086.8821              3091.1978              3101.3375
 Red. masses --      1.1043                 1.0985                 1.0893
 Frc consts  --      6.1999                 6.1842                 6.1727
 IR Inten    --     80.6772                40.4609                36.5089

                    115                    116                    117
                      A                      A                      A
 Frequencies --   3107.6775              3108.6997              3114.1556
 Red. masses --      1.1019                 1.0977                 1.0981
 Frc consts  --      6.2702                 6.2502                 6.2746
 IR Inten    --     63.5129                22.1182                64.6957

                    118                    119                    120
                      A                      A                      A
 Frequencies --   3124.4671              3132.1093              3521.1926
 Red. masses --      1.0919                 1.0903                 1.0736
 Frc consts  --      6.2801                 6.3017                 7.8427
 IR Inten    --     24.7381                32.8106                 0.9697

 - Thermochemistry -
 -------------------
 Temperature   298.150 Kelvin.  Pressure   1.00000 Atm.
 Atom     1 has atomic number  6 and mass  12.00000

 Molecular mass:   226.20451 amu.
 Principal axes and moments of inertia in atomic units:
                           1         2         3
     Eigenvalues --  2344.111974994.740665791.48772
           X            0.99994  -0.00306   0.01024
           Y            0.00290   0.99987   0.01607
           Z           -0.01029  -0.01604   0.99982
 This molecule is an asymmetric top.
 Rotational symmetry number  1.
 Warning -- assumption of classical behavior for rotation
           may cause significant error
 Rotational temperatures (Kelvin)      0.03695     0.01734     0.01496
 Rotational constants (GHZ):           0.76990     0.36133     0.31162
 Zero-point vibrational energy    1027901.1 (Joules/Mol)
                                  245.67426 (Kcal/Mol)
 Warning -- explicit consideration of  23 degrees of freedom as
           vibrations may cause significant error
 Vibrational temperatures:     78.68    92.79   109.82   124.00   148.64
          (Kelvin)            167.83   223.60   256.20   308.85   334.05
                              346.53   399.12   426.44   443.62   488.73
                              530.05   566.01   593.50   635.60   653.58
                              675.00   711.65   788.65   913.58   932.98
                             1023.38  1031.77  1087.23  1138.19  1152.67
                             1208.70  1226.05  1238.92  1255.40  1280.01
                             1299.00  1344.20  1362.54  1390.53  1419.56
                             1420.29  1450.46  1492.80  1513.29  1541.29
                             1546.92  1576.48  1593.25  1607.02  1622.89
                             1631.36  1673.90  1682.91  1691.79  1699.94
                             1737.60  1758.15  1784.38  1790.24  1826.80
                             1868.92  1875.87  1885.48  1896.44  1922.99
                             1955.78  1964.31  1969.46  1982.15  1993.67
                             2001.59  2004.78  2008.94  2016.63  2019.97
                             2036.82  2046.36  2052.79  2062.77  2081.90
                             2128.80  2147.62  2166.80  2176.64  2178.59
                             2182.13  2185.83  2192.37  2196.29  2201.55
                             2203.32  2206.96  2221.04  2244.05  4187.51
                             4223.12  4280.51  4292.81  4341.37  4352.39
                             4365.66  4374.15  4380.73  4383.13  4384.66
                             4388.47  4413.73  4420.26  4428.13  4429.97
                             4436.99  4441.33  4447.54  4462.13  4471.25
                             4472.73  4480.58  4495.41  4506.41  5066.21

 Zero-point correction=                           0.391507 (Hartree/Particle)
 Thermal correction to Energy=                    0.407497
 Thermal correction to Enthalpy=                  0.408441
 Thermal correction to Gibbs Free Energy=         0.348667
 Sum of electronic and zero-point Energies=           -695.417194
 Sum of electronic and thermal Energies=              -695.401204
 Sum of electronic and thermal Enthalpies=            -695.400260
 Sum of electronic and thermal Free Energies=         -695.460034

                     E (Thermal)             CV                S
                      KCal/Mol        Cal/Mol-Kelvin    Cal/Mol-Kelvin
 Total                  255.708             63.388            125.804
 Electronic               0.000              0.000              0.000
 Translational            0.889              2.981             42.151
 Rotational               0.889              2.981             32.583
 Vibrational            253.931             57.427             51.070
 Vibration     1          0.596              1.976              4.640
 Vibration     2          0.597              1.971              4.315
 Vibration     3          0.599              1.965              3.983
 Vibration     4          0.601              1.959              3.745
 Vibration     5          0.605              1.947              3.391
 Vibration     6          0.608              1.936              3.155
 Vibration     7          0.620              1.897              2.605
 Vibration     8          0.629              1.869              2.349
 Vibration     9          0.645              1.819              2.004
 Vibration    10          0.653              1.792              1.862
 Vibration    11          0.658              1.778              1.797
 Vibration    12          0.678              1.715              1.550
 Vibration    13          0.690              1.680              1.437
 Vibration    14          0.698              1.658              1.371
 Vibration    15          0.720              1.596              1.214
 Vibration    16          0.741              1.537              1.086
 Vibration    17          0.761              1.484              0.987
 Vibration    18          0.776              1.443              0.918
 Vibration    19          0.802              1.379              0.821
 Vibration    20          0.813              1.351              0.783
 Vibration    21          0.826              1.318              0.740
 Vibration    22          0.850              1.262              0.672
 Vibration    23          0.903              1.144              0.548

 Optimization completed.
    -- Stationary point found.
 Normal termination of Gaussian 16 at Thu Dec 10 23:47:36 2020.

 ----------------------------------------------------------------------
 # B3LYP/6-311++G(d,p) empiricaldispersion=gd3bj scf=xqc pop=npa geom=c
 heck
 ----------------------------------------------------------------------

 --------------------------------------
 CID_61570254_JID_6500_Energie_neutraal
 --------------------------------------
 Structure from the checkpoint file:  "JID_6500.chk"
 Charge =  0 Multiplicity = 1

 SCF Done:  E(RB3LYP) =  -696.002278809     A.U. after   14 cycles
 Normal termination of Gaussian 16 at Thu Dec 10 23:57:31 2020.

 ----------------------------------------------------------------------
 # B3LYP/6-311++G(d,p) empiricaldispersion=gd3bj scf=xqc pop=npa geom=c
 heck
 ----------------------------------------------------------------------

 ------------------------------------
 CID_61570254_JID_6500_Energie_kation
 ------------------------------------
 Structure from the checkpoint file:  "JID_6500.chk"
 Charge =  1 Multiplicity = 2

 SCF Done:  E(UB3LYP) =  -695.739492411     A.U. after   20 cycles
 Normal termination of Gaussian 16 at Fri Dec 11 00:17:24 2020.
 Gaussian 16:  ES64L-G16RevA.03 25-Dec-2016

 ----------------------------------------------------------------------
 # B3LYP/6-311++G(d,p) empiricaldispersion=gd3bj scf=xqc pop=npa geom=c
 heck
 ----------------------------------------------------------------------

 -----------------------------------
 CID_61570254_JID_6500_Energie_anion
 -----------------------------------
 Structure from the checkpoint file:  "JID_6500.chk"
 Charge = -1 Multiplicity = 2

                         Standard orientation:
 ---------------------------------------------------------------------
 Center     Atomic      Atomic             Coordinates (Angstroms)
 Number     Number       Type             X           Y           Z
 ---------------------------------------------------------------------
      1          6           0       -3.137065   -1.893898   -0.994888
      2          7           0       -3.145160   -1.687697    0.451418
      3          6           0       -1.877958   -1.299605    1.058262
      4          6           0       -1.253669    0.079564    0.709615
      5          6           0       -2.322365    1.170816    0.900283
      6          6           0       -1.800982    2.573690    0.590320
      7          6           0       -1.221219    2.590931   -0.823809
      8          6           0       -0.149263    1.511749   -0.951301
      9          7           0       -0.680484    0.180824   -0.641759
     10          6           0        0.155634   -0.902866   -1.145723
     11          6           0        1.604594   -1.103664   -0.658600
     12          6           0        1.816120   -1.313024    0.864987
     13          6           0        2.383590   -0.049043    1.519154
     14          6           0        3.727456    0.333578    0.869695
     15          6           0        3.702867   -0.016938   -0.632815
     16          8           0        2.376925   -0.001048   -1.141741
     17          1           0       -2.479772   -2.739476   -1.231378
     18          1           0       -2.797900   -1.027861   -1.581524
     19          1           0       -4.147503   -2.170019   -1.315874
     20          1           0       -3.862423   -1.010612    0.695464
     21          1           0       -2.035249   -1.286188    2.144749
     22          1           0       -1.162725   -2.107841    0.872983
     23          1           0       -0.476077    0.263942    1.478023
     24          1           0       -2.699941    1.114455    1.929877
     25          1           0       -3.163921    0.956342    0.229491
     26          1           0       -2.602294    3.314293    0.702296
     27          1           0       -1.014000    2.842860    1.309845
     28          1           0       -2.018594    2.399110   -1.553769
     29          1           0       -0.783891    3.569100   -1.059449
     30          1           0        0.251333    1.481803   -1.968766
     31          1           0        0.699303    1.777533   -0.297579
     32          1           0       -0.365050   -1.851396   -0.996683
     33          1           0        0.227696   -0.762640   -2.232040
     34          1           0        1.956298   -2.013483   -1.180098
     35          1           0        2.523343   -2.137505    1.022294
     36          1           0        0.882856   -1.617924    1.344835
     37          1           0        1.672155    0.773230    1.395073
     38          1           0        2.506884   -0.198581    2.597488
     39          1           0        3.915053    1.403882    1.010311
     40          1           0        4.554423   -0.201949    1.353214
     41          1           0        4.267500    0.707418   -1.226313
     42          1           0        4.150178   -1.009735   -0.807232
 ---------------------------------------------------------------------

 SCF Done:  E(UB3LYP) =  -695.987403148     A.U. after   31 cycles

 The electronic state is 2-A.
 Alpha  occ. eigenvalues --  -19.02233 -14.20349 -14.20205 -10.12065 -10.11584
 Alpha  occ. eigenvalues --  -10.10072 -10.09589 -10.09416 -10.08852 -10.08647
 Alpha  occ. eigenvalues --  -10.06923 -10.06837 -10.06824 -10.06823 -10.06805
 Alpha  occ. eigenvalues --  -10.06634  -0.93926  -0.83025  -0.80163  -0.70823
 Alpha  occ. eigenvalues --   -0.69729  -0.66999  -0.66808  -0.61019  -0.59579
 Alpha  occ. eigenvalues --   -0.55494  -0.54693  -0.53806  -0.50929  -0.49214
 Alpha  occ. eigenvalues --   -0.45612  -0.43687  -0.41113  -0.39940  -0.39215
 Alpha  occ. eigenvalues --   -0.38554  -0.37524  -0.36675  -0.35792  -0.35470
 Alpha  occ. eigenvalues --   -0.32955  -0.32705  -0.31818  -0.31535  -0.30909
 Alpha  occ. eigenvalues --   -0.30712  -0.29054  -0.27767  -0.27477  -0.27050
 Alpha  occ. eigenvalues --   -0.26764  -0.26422  -0.26137  -0.24900  -0.24248
 Alpha  occ. eigenvalues --   -0.23759  -0.22684  -0.22182  -0.21398  -0.20022
 Alpha  occ. eigenvalues --   -0.15777  -0.13305  -0.10653   0.04292
 Alpha virt. eigenvalues --    0.05933   0.06610   0.07002   0.07768   0.08080
 Alpha virt. eigenvalues --    0.08375   0.09157   0.09465   0.09923   0.10194
 Alpha virt. eigenvalues --    0.10648   0.11217   0.11259   0.12188   0.12333

  Beta  occ. eigenvalues --  -19.02225 -14.20347 -14.20198 -10.12056 -10.11564
  Beta  occ. eigenvalues --  -10.10068 -10.09575 -10.09409 -10.08837 -10.08642
  Beta  occ. eigenvalues --  -10.06908 -10.06820 -10.06807 -10.06804 -10.06788
  Beta  occ. eigenvalues --  -10.06624  -0.93911  -0.83014  -0.80148  -0.70799
  Beta  occ. eigenvalues --   -0.69694  -0.66973  -0.66784  -0.60990  -0.59547
  Beta  occ. eigenvalues --   -0.55455  -0.54652  -0.53772  -0.50897  -0.49178
  Beta  occ. eigenvalues --   -0.45573  -0.43642  -0.41088  -0.39896  -0.39186
  Beta  occ. eigenvalues --   -0.38519  -0.37487  -0.36649  -0.35763  -0.35450
  Beta  occ. eigenvalues --   -0.32934  -0.32682  -0.31796  -0.31512  -0.30881
  Beta  occ. eigenvalues --   -0.30686  -0.29034  -0.27728  -0.27449  -0.27021
  Beta  occ. eigenvalues --   -0.26734  -0.26399  -0.26115  -0.24870  -0.24223
  Beta  occ. eigenvalues --   -0.23732  -0.22655  -0.22157  -0.21373  -0.19995
  Beta  occ. eigenvalues --   -0.15732  -0.13292  -0.10637
  Beta virt. eigenvalues --    0.06206   0.06834   0.07048   0.07519   0.08233
  Beta virt. eigenvalues --    0.08489   0.08950   0.09372   0.09701   0.10229
  Beta virt. eigenvalues --    0.10468   0.11071   0.11532   0.11698   0.12383

 Mulliken charges and spin densities:
               1          2
     1  C   -0.025298  -0.379466
     2  N   -0.189210   0.125150
     3  C    0.351207  -0.999130
     4  C   -1.158649   0.949915
     5  C    1.054944  -1.358003
     6  C   -0.497073   0.075165
     7  C   -0.072403  -0.409125
     8  C   -0.245506   0.103256
     9  N    0.215887   0.112354
    10  C    0.200056  -0.592668
    11  C    0.054928  -0.272040
    12  C    0.181348  -0.312658
    13  C   -0.408331   0.235151
    14  C    0.608520  -1.122392
    15  C    0.101586  -0.292861
    16  O   -0.074626   0.024660
    17  H   -0.048043   0.191994
    18  H    0.107062   0.045555
    19  H   -0.134346   0.277259
    20  H    0.064391   0.164014
    21  H   -0.202162   0.395353
    22  H    0.135678   0.019255
    23  H    0.342803  -0.235120
    24  H   -0.233531   0.412482
    25  H    0.174375  -0.061152
    26  H   -0.342370   0.534847
    27  H   -0.003368   0.116273
    28  H   -0.017691   0.138800
    29  H   -0.066328   0.227317
    30  H    0.158549   0.020215
    31  H    0.365402  -0.217823
    32  H    0.269567  -0.209298
    33  H    0.006011   0.194306
    34  H   -0.255252   0.434681
    35  H   -0.467160   0.678231
    36  H   -0.075655   0.234412
    37  H    0.079594   0.026257
    38  H   -0.419357   0.598532
    39  H   -0.069790   0.213861
    40  H   -0.221262   0.373281
    41  H   -0.164429   0.329745
    42  H   -0.080066   0.209416
 Sum of Mulliken charges =  -1.00000   1.00000

 Dipole moment (field-independent basis, Debye):
    X=             -1.6970    Y=              1.2582    Z=             -2.7244  Tot=              3.4475
 Quadrupole moment (field-independent basis, Debye-Ang):
   XX=           -181.9901   YY=           -152.7456   ZZ=           -145.8795
   XY=              6.6643   XZ=             -1.4149   YZ=              1.9741

 Summary of Natural Population Analysis:

                                       Natural Population
                Natural  -----------------------------------------------
    Atom  No    Charge         Core      Valence    Rydberg      Total
 -----------------------------------------------------------------------
      C    1   -0.18164      0.99965     2.17488    0.00712     3.18164
      N    2   -0.33919      0.99976     2.82781    0.01163     3.83919
      C    3   -0.08963      0.99959     2.07740    0.01264     3.08963
      C    4   -0.01207      0.99956     1.99993    0.01258     3.01207
      C    5   -0.19444      0.99960     2.18405    0.01079     3.19444
      C    6   -0.18811      0.99963     2.18036    0.00813     3.18811
      C    7   -0.19243      0.99962     2.18440    0.00841     3.19243
      C    8   -0.08094      0.99960     2.07111    0.01023     3.08094
      N    9   -0.29071      0.99969     2.77838    0.01264     3.79071
      C   10   -0.08722      0.99957     2.07437    0.01329     3.08722
      C   11    0.06370      0.99955     1.92148    0.01527     2.93630
      C   12   -0.21051      0.99960     2.20150    0.00941     3.21051
      C   13   -0.19155      0.99962     2.18263    0.00931     3.19155
      C   14   -0.20101      0.99963     2.19378    0.00760     3.20101
      C   15   -0.00956      0.99959     1.99752    0.01246     3.00956
      O   16   -0.30829      0.99988     3.29863    0.00978     4.30829
      H   17    0.08847      0.00000     0.41034    0.00119     0.41153
      H   18    0.08944      0.00000     0.40871    0.00185     0.41056
      H   19    0.09069      0.00000     0.40839    0.00092     0.40931
      H   20    0.17082      0.00000     0.32626    0.00292     0.32918
      H   21    0.09777      0.00000     0.40095    0.00128     0.40223
      H   22    0.09297      0.00000     0.40566    0.00136     0.40703
      H   23    0.08378      0.00000     0.41365    0.00257     0.41622
      H   24    0.09993      0.00000     0.39889    0.00118     0.40007
      H   25    0.09373      0.00000     0.40448    0.00179     0.40627
      H   26    0.09793      0.00000     0.40097    0.00110     0.40207
      H   27    0.09351      0.00000     0.40505    0.00143     0.40649
      H   28    0.09410      0.00000     0.40453    0.00137     0.40590
      H   29    0.09729      0.00000     0.40192    0.00078     0.40271
      H   30    0.09969      0.00000     0.39906    0.00126     0.40031
      H   31    0.08400      0.00000     0.41382    0.00218     0.41600
      H   32    0.09744      0.00000     0.40115    0.00140     0.40256
      H   33    0.09835      0.00000     0.40035    0.00129     0.40165
      H   34    0.08020      0.00000     0.41824    0.00156     0.41980
      H   35    0.10010      0.00000     0.39800    0.00190     0.39990
      H   36    0.10334      0.00000     0.39510    0.00156     0.39666
      H   37    0.09609      0.00000     0.40149    0.00242     0.40391
      H   38    0.10193      0.00000     0.39668    0.00139     0.39807
      H   39    0.09624      0.00000     0.40273    0.00104     0.40376
      H   40    0.09815      0.00000     0.40024    0.00161     0.40185
      H   41    0.09022      0.00000     0.40867    0.00111     0.40978
      H   42    0.07744      0.00000     0.42086    0.00171     0.42256
 =======================================================================
   * Total *   -0.00000     15.99415    46.79440    0.21145    63.00000

 Normal termination of Gaussian 16 at Fri Dec 11 00:47:47 2020.
