 Gaussian 16, Revision A.03,

 -----------------------------------------------------------
 # opt freq B3LYP/6-31G(d) empiricaldispersion=gd3bj scf=xqc
 -----------------------------------------------------------

 -------------------------------
 CID_115319150_JID_3941_neutraal
 -------------------------------
 Symbolic Z-matrix:
 Charge =  0 Multiplicity = 1

 SCF Done:  E(RB3LYP) =  -556.706378734     A.U. after   15 cycles
 SCF Done:  E(RB3LYP) =  -556.733607117     A.U. after   12 cycles
 SCF Done:  E(RB3LYP) =  -556.737684444     A.U. after   12 cycles
 SCF Done:  E(RB3LYP) =  -556.738279500     A.U. after   14 cycles
 SCF Done:  E(RB3LYP) =  -556.739643737     A.U. after   12 cycles
 SCF Done:  E(RB3LYP) =  -556.740046126     A.U. after   12 cycles
 SCF Done:  E(RB3LYP) =  -556.740616106     A.U. after   12 cycles
 SCF Done:  E(RB3LYP) =  -556.740727367     A.U. after   12 cycles
 SCF Done:  E(RB3LYP) =  -556.740992347     A.U. after   10 cycles
 SCF Done:  E(RB3LYP) =  -556.741052707     A.U. after   11 cycles
 SCF Done:  E(RB3LYP) =  -556.741118502     A.U. after   11 cycles
 SCF Done:  E(RB3LYP) =  -556.741129252     A.U. after    9 cycles
 SCF Done:  E(RB3LYP) =  -556.741133979     A.U. after    9 cycles
 SCF Done:  E(RB3LYP) =  -556.741134596     A.U. after    8 cycles
 SCF Done:  E(RB3LYP) =  -556.741134822     A.U. after    7 cycles
 SCF Done:  E(RB3LYP) =  -556.741134924     A.U. after    7 cycles
 Optimization completed.
    -- Stationary point found.
 Normal termination of Gaussian 16 at Sun Dec 13 16:01:08 2020.

 --------------------------------------------------------------------
 #N Geom=AllCheck Guess=TCheck SCRF=Check GenChk RB3LYP/6-31G(d) Freq
 --------------------------------------------------------------------

 Structure from the checkpoint file:  "JID_3941.chk"
 -------------------------------
 CID_115319150_JID_3941_neutraal
 -------------------------------
 Charge =  0 Multiplicity = 1

 SCF Done:  E(RB3LYP) =  -556.741134924     A.U. after    1 cycles

  Exact polarizability: 129.043  -3.843 114.145   5.992  -4.002 111.441
 Approx polarizability: 168.653 -10.762 160.400  14.278  -7.881 170.120

                      1                      2                      3
                      A                      A                      A
 Frequencies --     22.7736                51.1779                67.3443
 Red. masses --      4.4933                 4.2980                 3.0780
 Frc consts  --      0.0014                 0.0066                 0.0082
 IR Inten    --      1.7457                 5.6455                 1.0936

                      4                      5                      6
                      A                      A                      A
 Frequencies --     89.5653               101.6168               130.0503
 Red. masses --      4.7275                 3.2818                 4.2242
 Frc consts  --      0.0223                 0.0200                 0.0421
 IR Inten    --      1.4335                 0.8954                 4.2088

                      7                      8                      9
                      A                      A                      A
 Frequencies --    183.7248               204.3139               235.1543
 Red. masses --      2.7404                 2.0642                 1.7606
 Frc consts  --      0.0545                 0.0508                 0.0574
 IR Inten    --      1.0294                12.8351                16.2305

                     10                     11                     12
                      A                      A                      A
 Frequencies --    252.6499               268.8175               289.6284
 Red. masses --      1.7630                 1.3904                 1.9428
 Frc consts  --      0.0663                 0.0592                 0.0960
 IR Inten    --      4.5366                 7.0118                 4.2517

                     13                     14                     15
                      A                      A                      A
 Frequencies --    307.5945               331.9802               369.5780
 Red. masses --      1.8941                 2.6071                 3.6890
 Frc consts  --      0.1056                 0.1693                 0.2969
 IR Inten    --     11.2740                 6.7616                 2.1879

                     16                     17                     18
                      A                      A                      A
 Frequencies --    386.0774               387.0725               413.8149
 Red. masses --      2.3320                 2.8259                 2.6049
 Frc consts  --      0.2048                 0.2495                 0.2628
 IR Inten    --      2.1956                 0.3517                 1.9944

                     19                     20                     21
                      A                      A                      A
 Frequencies --    450.9757               467.8447               538.6112
 Red. masses --      2.1825                 2.5407                 2.1886
 Frc consts  --      0.2615                 0.3276                 0.3741
 IR Inten    --      6.3351                 2.6365                 0.6704

                     22                     23                     24
                      A                      A                      A
 Frequencies --    592.6914               736.5681               777.7696
 Red. masses --      3.8670                 3.6527                 1.6939
 Frc consts  --      0.8004                 1.1676                 0.6037
 IR Inten    --      2.5351                 1.5970                 3.5464

                     25                     26                     27
                      A                      A                      A
 Frequencies --    795.5531               839.6703               861.9355
 Red. masses --      1.0520                 2.3052                 1.4822
 Frc consts  --      0.3923                 0.9576                 0.6488
 IR Inten    --      0.7112                15.5496               147.3465

                     28                     29                     30
                      A                      A                      A
 Frequencies --    868.4103               882.7608               910.1506
 Red. masses --      2.5216                 1.8746                 2.3566
 Frc consts  --      1.1204                 0.8607                 1.1502
 IR Inten    --      7.6059                19.1490                 0.6223

                     31                     32                     33
                      A                      A                      A
 Frequencies --    922.0293               969.2399               988.9966
 Red. masses --      1.9090                 2.1485                 1.9082
 Frc consts  --      0.9562                 1.1892                 1.0997
 IR Inten    --      2.3776                 5.7686                 6.6512

                     34                     35                     36
                      A                      A                      A
 Frequencies --    994.7931              1023.0009              1031.4937
 Red. masses --      1.6833                 1.9869                 2.2243
 Frc consts  --      0.9815                 1.2251                 1.3944
 IR Inten    --      2.5812                12.9146                10.0756

                     37                     38                     39
                      A                      A                      A
 Frequencies --   1059.2312              1070.3661              1081.1633
 Red. masses --      2.0452                 1.5035                 1.9874
 Frc consts  --      1.3520                 1.0149                 1.3687
 IR Inten    --     10.0427                14.6649                10.7128

                     40                     41                     42
                      A                      A                      A
 Frequencies --   1097.2401              1098.3263              1127.6712
 Red. masses --      1.6844                 1.5163                 2.5242
 Frc consts  --      1.1948                 1.0777                 1.8912
 IR Inten    --     23.8001                20.6350                 6.3362

                     43                     44                     45
                      A                      A                      A
 Frequencies --   1152.4877              1182.0733              1204.7689
 Red. masses --      1.4829                 1.4651                 1.2854
 Frc consts  --      1.1605                 1.2061                 1.0993
 IR Inten    --     16.8478                 4.6955                 0.2844

                     46                     47                     48
                      A                      A                      A
 Frequencies --   1212.1345              1224.9180              1259.2160
 Red. masses --      1.4778                 1.4110                 1.3717
 Frc consts  --      1.2793                 1.2473                 1.2815
 IR Inten    --      4.6042                 2.5373                 2.2007

                     49                     50                     51
                      A                      A                      A
 Frequencies --   1263.4105              1283.7765              1338.5446
 Red. masses --      1.6439                 2.0108                 1.4246
 Frc consts  --      1.5460                 1.9526                 1.5038
 IR Inten    --     22.4116                11.2517                 7.0956

                     52                     53                     54
                      A                      A                      A
 Frequencies --   1342.4252              1367.8711              1375.8807
 Red. masses --      1.4784                 1.3234                 1.1927
 Frc consts  --      1.5697                 1.4589                 1.3303
 IR Inten    --      4.3714                 1.2828                17.5965

                     55                     56                     57
                      A                      A                      A
 Frequencies --   1390.2329              1414.0558              1424.5129
 Red. masses --      2.0905                 1.3584                 1.4408
 Frc consts  --      2.3805                 1.6003                 1.7226
 IR Inten    --      5.1222                 6.5688                17.6619

                     58                     59                     60
                      A                      A                      A
 Frequencies --   1435.2943              1454.3406              1476.4877
 Red. masses --      1.3680                 1.3933                 1.0951
 Frc consts  --      1.6604                 1.7364                 1.4066
 IR Inten    --      9.5218                 7.4769                 4.1819

                     61                     62                     63
                      A                      A                      A
 Frequencies --   1486.9064              1492.4928              1494.8898
 Red. masses --      1.1640                 1.0948                 1.0956
 Frc consts  --      1.5163                 1.4369                 1.4425
 IR Inten    --      0.3088                 3.1469                 9.9414

                     64                     65                     66
                      A                      A                      A
 Frequencies --   1524.5721              1526.1502              1531.2766
 Red. masses --      1.0973                 1.1368                 1.2262
 Frc consts  --      1.5027                 1.5601                 1.6941
 IR Inten    --      7.2807                 2.9637                 6.3379

                     67                     68                     69
                      A                      A                      A
 Frequencies --   1532.7930              1543.1565              1560.3862
 Red. masses --      1.1084                 1.0918                 1.0805
 Frc consts  --      1.5343                 1.5319                 1.5500
 IR Inten    --      8.5204                 6.4120                 3.7922

                     70                     71                     72
                      A                      A                      A
 Frequencies --   1698.0173              2368.7574              2946.8059
 Red. masses --      1.0887                12.6018                 1.0716
 Frc consts  --      1.8495                41.6605                 5.4828
 IR Inten    --     26.6373                 7.0892                39.4252

                     73                     74                     75
                      A                      A                      A
 Frequencies --   2957.8120              2983.1344              2995.1092
 Red. masses --      1.0623                 1.0724                 1.0719
 Frc consts  --      5.4758                 5.6226                 5.6655
 IR Inten    --     95.0133                57.3068                66.7745

                     76                     77                     78
                      A                      A                      A
 Frequencies --   3043.6197              3044.7149              3070.1092
 Red. masses --      1.0633                 1.0619                 1.0885
 Frc consts  --      5.8033                 5.8001                 6.0449
 IR Inten    --     10.6750                11.0890                57.5632

                     79                     80                     81
                      A                      A                      A
 Frequencies --   3081.9739              3089.7975              3090.5498
 Red. masses --      1.0864                 1.0802                 1.0856
 Frc consts  --      6.0797                 6.0759                 6.1095
 IR Inten    --     15.6182                67.4359                 8.3677

                     82                     83                     84
                      A                      A                      A
 Frequencies --   3091.7503              3092.0367              3139.3044
 Red. masses --      1.0992                 1.0993                 1.1020
 Frc consts  --      6.1907                 6.1926                 6.3989
 IR Inten    --     28.3345                22.7505                26.8621

                     85                     86                     87
                      A                      A                      A
 Frequencies --   3150.8625              3158.6113              3239.9558
 Red. masses --      1.0554                 1.0592                 1.1150
 Frc consts  --      6.1733                 6.2264                 6.8963
 IR Inten    --     14.9508                14.6599                 1.9874

                     88                     89                     90
                      A                      A                      A
 Frequencies --   3253.5466              3471.0076              3555.3046
 Red. masses --      1.1133                 1.0495                 1.0923
 Frc consts  --      6.9437                 7.4499                 8.1347
 IR Inten    --      9.9538                 1.7602                 0.8683

 - Thermochemistry -
 -------------------
 Temperature   298.150 Kelvin.  Pressure   1.00000 Atm.
 Atom     1 has atomic number  6 and mass  12.00000

 Molecular mass:   181.15790 amu.
 Principal axes and moments of inertia in atomic units:
                           1         2         3
     Eigenvalues --  1715.302923821.380554127.54665
           X            0.99980  -0.00723  -0.01883
           Y            0.00621   0.99854  -0.05359
           Z            0.01919   0.05346   0.99839
 This molecule is an asymmetric top.
 Rotational symmetry number  1.
 Warning -- assumption of classical behavior for rotation
           may cause significant error
 Rotational temperatures (Kelvin)      0.05049     0.02267     0.02098
 Rotational constants (GHZ):           1.05214     0.47227     0.43724
 Zero-point vibrational energy     755425.4 (Joules/Mol)
                                  180.55100 (Kcal/Mol)
 Warning -- explicit consideration of  22 degrees of freedom as
           vibrations may cause significant error
 Vibrational temperatures:     32.77    73.63    96.89   128.86   146.20
          (Kelvin)            187.11   264.34   293.96   338.33   363.51
                              386.77   416.71   442.56   477.65   531.74
                              555.48   556.91   595.39   648.85   673.12
                              774.94   852.75  1059.76  1119.04  1144.62
                             1208.10  1240.13  1249.45  1270.10  1309.50
                             1326.59  1394.52  1422.95  1431.29  1471.87
                             1484.09  1524.00  1540.02  1555.55  1578.68
                             1580.25  1622.47  1658.17  1700.74  1733.39
                             1743.99  1762.38  1811.73  1817.77  1847.07
                             1925.87  1931.45  1968.06  1979.59  2000.24
                             2034.51  2049.56  2065.07  2092.47  2124.34
                             2139.33  2147.36  2150.81  2193.52  2195.79
                             2203.17  2205.35  2220.26  2245.05  2443.07
                             3408.11  4239.80  4255.63  4292.07  4309.29
                             4379.09  4380.67  4417.20  4434.27  4445.53
                             4446.61  4448.34  4448.75  4516.76  4533.39
                             4544.54  4661.57  4681.13  4994.01  5115.29

 Zero-point correction=                           0.287726 (Hartree/Particle)
 Thermal correction to Energy=                    0.302417
 Thermal correction to Enthalpy=                  0.303361
 Thermal correction to Gibbs Free Energy=         0.245459
 Sum of electronic and zero-point Energies=           -556.453409
 Sum of electronic and thermal Energies=              -556.438718
 Sum of electronic and thermal Enthalpies=            -556.437774
 Sum of electronic and thermal Free Energies=         -556.495676

                     E (Thermal)             CV                S
                      KCal/Mol        Cal/Mol-Kelvin    Cal/Mol-Kelvin
 Total                  189.769             54.685            121.865
 Electronic               0.000              0.000              0.000
 Translational            0.889              2.981             41.489
 Rotational               0.889              2.981             31.670
 Vibrational            187.992             48.723             48.706
 Vibration     1          0.593              1.985              6.376
 Vibration     2          0.595              1.977              4.771
 Vibration     3          0.598              1.970              4.230
 Vibration     4          0.602              1.957              3.670
 Vibration     5          0.604              1.948              3.423
 Vibration     6          0.612              1.923              2.945
 Vibration     7          0.631              1.862              2.290
 Vibration     8          0.640              1.834              2.094
 Vibration     9          0.655              1.787              1.839
 Vibration    10          0.664              1.758              1.712
 Vibration    11          0.673              1.731              1.604
 Vibration    12          0.686              1.693              1.476
 Vibration    13          0.697              1.659              1.375
 Vibration    14          0.714              1.612              1.250
 Vibration    15          0.742              1.535              1.082
 Vibration    16          0.755              1.500              1.015
 Vibration    17          0.755              1.498              1.011
 Vibration    18          0.777              1.440              0.913
 Vibration    19          0.810              1.359              0.793
 Vibration    20          0.825              1.321              0.744
 Vibration    21          0.894              1.165              0.568
 Vibration    22          0.950              1.047              0.462

 Optimization completed.
    -- Stationary point found.
 Normal termination of Gaussian 16 at Sun Dec 13 16:09:36 2020.

 ----------------------------------------------------------------------
 # B3LYP/6-311++G(d,p) empiricaldispersion=gd3bj scf=xqc pop=npa geom=c
 heck
 ----------------------------------------------------------------------

 ---------------------------------------
 CID_115319150_JID_3941_Energie_neutraal
 ---------------------------------------
 Structure from the checkpoint file:  "JID_3941.chk"
 Charge =  0 Multiplicity = 1

 SCF Done:  E(RB3LYP) =  -556.904782596     A.U. after   14 cycles
 Normal termination of Gaussian 16 at Sun Dec 13 16:12:53 2020.

 ----------------------------------------------------------------------
 # B3LYP/6-311++G(d,p) empiricaldispersion=gd3bj scf=xqc pop=npa geom=c
 heck
 ----------------------------------------------------------------------

 -------------------------------------
 CID_115319150_JID_3941_Energie_kation
 -------------------------------------
 Structure from the checkpoint file:  "JID_3941.chk"
 Charge =  1 Multiplicity = 2

 SCF Done:  E(UB3LYP) =  -556.602675995     A.U. after   27 cycles
 Normal termination of Gaussian 16 at Sun Dec 13 16:21:10 2020.
 Gaussian 16:  ES64L-G16RevA.03 25-Dec-2016

 ----------------------------------------------------------------------
 # B3LYP/6-311++G(d,p) empiricaldispersion=gd3bj scf=xqc pop=npa geom=c
 heck
 ----------------------------------------------------------------------

 ------------------------------------
 CID_115319150_JID_3941_Energie_anion
 ------------------------------------
 Structure from the checkpoint file:  "JID_3941.chk"
 Charge = -1 Multiplicity = 2

                         Standard orientation:
 ---------------------------------------------------------------------
 Center     Atomic      Atomic             Coordinates (Angstroms)
 Number     Number       Type             X           Y           Z
 ---------------------------------------------------------------------
      1          6           0        0.103455    2.577319   -0.527424
      2          7           0        0.636270    1.287998   -0.092012
      3          6           0        2.034728    1.127455   -0.505293
      4          6           0        2.876640    0.194641    0.377708
      5          6           0        2.605290   -1.310541    0.284077
      6          7           0        2.842544   -1.806081   -1.077310
      7          6           0       -0.248049    0.196110   -0.501055
      8          6           0       -1.186610   -0.279863    0.605347
      9          6           0       -0.660238   -0.470236    2.005652
     10          6           0       -1.628269    0.648249    1.708263
     11          6           0       -2.206503   -1.306775    0.118355
     12          6           0       -3.144628   -0.739864   -0.858396
     13          7           0       -3.869262   -0.265599   -1.631156
     14          1           0        0.150126    2.712630   -1.624332
     15          1           0        0.663498    3.391060   -0.055189
     16          1           0       -0.943952    2.665587   -0.227660
     17          1           0        2.115034    0.830368   -1.568163
     18          1           0        2.493966    2.119799   -0.443245
     19          1           0        3.926990    0.353203    0.103280
     20          1           0        2.755555    0.515301    1.419977
     21          1           0        3.317100   -1.822566    0.942698
     22          1           0        1.602328   -1.539344    0.679335
     23          1           0        2.717280   -2.816262   -1.104904
     24          1           0        2.154029   -1.418063   -1.719778
     25          1           0       -0.851262    0.491616   -1.376203
     26          1           0        0.350075   -0.660891   -0.827538
     27          1           0       -1.004292   -1.327694    2.578329
     28          1           0        0.369660   -0.180918    2.184250
     29          1           0       -1.223708    1.653376    1.719036
     30          1           0       -2.652039    0.564490    2.063202
     31          1           0       -1.698537   -2.163500   -0.345461
     32          1           0       -2.783605   -1.701388    0.962303
 ---------------------------------------------------------------------

 SCF Done:  E(UB3LYP) =  -556.894923661     A.U. after   30 cycles

 The electronic state is 2-A.
 Alpha  occ. eigenvalues --  -14.21610 -14.21570 -14.19132 -10.11756 -10.11638
 Alpha  occ. eigenvalues --  -10.10378 -10.10326 -10.10175 -10.09909 -10.09068
 Alpha  occ. eigenvalues --  -10.07766 -10.07525 -10.07044  -0.83796  -0.81384
 Alpha  occ. eigenvalues --   -0.78241  -0.77728  -0.67286  -0.66881  -0.62458
 Alpha  occ. eigenvalues --   -0.59019  -0.53124  -0.51240  -0.48040  -0.46094
 Alpha  occ. eigenvalues --   -0.42440  -0.40440  -0.40289  -0.39194  -0.38304
 Alpha  occ. eigenvalues --   -0.36212  -0.35445  -0.34932  -0.33402  -0.32217
 Alpha  occ. eigenvalues --   -0.30911  -0.29959  -0.29137  -0.27970  -0.27244
 Alpha  occ. eigenvalues --   -0.26972  -0.25845  -0.24538  -0.23931  -0.23470
 Alpha  occ. eigenvalues --   -0.23071  -0.20494  -0.19139  -0.14414  -0.13085
 Alpha  occ. eigenvalues --    0.04219
 Alpha virt. eigenvalues --    0.06300   0.06928   0.07529   0.08701   0.09187
 Alpha virt. eigenvalues --    0.09376   0.09898   0.10200   0.11265   0.11490
 Alpha virt. eigenvalues --    0.11833   0.12222   0.12637   0.12899   0.13246

  Beta  occ. eigenvalues --  -14.21601 -14.21562 -14.19086 -10.11705 -10.11635
  Beta  occ. eigenvalues --  -10.10359 -10.10325 -10.10163 -10.09894 -10.09049
  Beta  occ. eigenvalues --  -10.07748 -10.07504 -10.07037  -0.83777  -0.81361
  Beta  occ. eigenvalues --   -0.78173  -0.77702  -0.67224  -0.66837  -0.62416
  Beta  occ. eigenvalues --   -0.58970  -0.53070  -0.51183  -0.47992  -0.46049
  Beta  occ. eigenvalues --   -0.42399  -0.40395  -0.40244  -0.39128  -0.38255
  Beta  occ. eigenvalues --   -0.36173  -0.35395  -0.34886  -0.33375  -0.32174
  Beta  occ. eigenvalues --   -0.30885  -0.29928  -0.29106  -0.27947  -0.27221
  Beta  occ. eigenvalues --   -0.26950  -0.25815  -0.24509  -0.23906  -0.23445
  Beta  occ. eigenvalues --   -0.23039  -0.20460  -0.19116  -0.14369  -0.13035
  Beta virt. eigenvalues --    0.06381   0.07426   0.07713   0.07918   0.09076
  Beta virt. eigenvalues --    0.09737   0.09747   0.10089   0.10463   0.11610
  Beta virt. eigenvalues --    0.11772   0.12093   0.12493   0.12897   0.13069

 Mulliken charges and spin densities:
               1          2
     1  C    0.053779  -0.350141
     2  N    0.138179   0.208985
     3  C    0.018822  -0.428539
     4  C   -0.324896   0.104304
     5  C    0.604978  -0.984752
     6  N   -0.365652   0.004348
     7  C   -0.071869  -1.599393
     8  C   -1.403635   2.722328
     9  C    0.131162  -0.463162
    10  C    0.432941  -1.052913
    11  C    1.373838  -1.124281
    12  C    0.074070  -0.432240
    13  N   -0.315651   0.008160
    14  H   -0.004907   0.120196
    15  H   -0.142942   0.294075
    16  H    0.123604   0.000945
    17  H    0.099683   0.038508
    18  H   -0.068646   0.209148
    19  H    0.046702   0.105039
    20  H    0.019977   0.117058
    21  H   -0.280163   0.453109
    22  H   -0.336516   0.473792
    23  H   -0.196630   0.454026
    24  H   -0.029163   0.228219
    25  H    0.233326  -0.069932
    26  H    0.372198  -0.275002
    27  H   -0.532592   0.715413
    28  H    0.285163  -0.131211
    29  H    0.056600   0.085020
    30  H   -0.077477   0.241873
    31  H   -0.591106   0.817234
    32  H   -0.323176   0.509785
 Sum of Mulliken charges =  -1.00000   1.00000

 Dipole moment (field-independent basis, Debye):
    X=              1.5249    Y=              5.9740    Z=              0.6722  Tot=              6.2021
 Quadrupole moment (field-independent basis, Debye-Ang):
   XX=           -150.8178   YY=           -134.2071   ZZ=           -121.5464
   XY=              2.1270   XZ=              0.1535   YZ=             -0.0193

 Summary of Natural Population Analysis:

                                       Natural Population
                Natural  -----------------------------------------------
    Atom  No    Charge         Core      Valence    Rydberg      Total
 -----------------------------------------------------------------------
      C    1   -0.17269      0.99964     2.16658    0.00646     3.17269
      N    2   -0.28930      0.99972     2.77724    0.01234     3.78930
      C    3   -0.07922      0.99960     2.06999    0.00963     3.07922
      C    4   -0.19588      0.99961     2.18798    0.00829     3.19588
      C    5   -0.09480      0.99963     2.08373    0.01144     3.09480
      N    6   -0.42461      0.99977     2.91420    0.01063     3.92461
      C    7   -0.08290      0.99954     2.07078    0.01258     3.08290
      C    8   -0.04899      0.99954     2.03318    0.01626     3.04899
      C    9   -0.19303      0.99957     2.18248    0.01097     3.19303
      C   10   -0.19374      0.99957     2.18527    0.00889     3.19374
      C   11   -0.24438      0.99950     2.23337    0.01151     3.24438
      C   12    0.16948      0.99965     1.81443    0.01643     2.83052
      N   13   -0.19146      0.99979     2.68075    0.01093     3.69146
      H   14    0.08093      0.00000     0.41767    0.00139     0.41907
      H   15    0.09420      0.00000     0.40460    0.00120     0.40580
      H   16    0.09712      0.00000     0.40179    0.00109     0.40288
      H   17    0.08153      0.00000     0.41711    0.00137     0.41847
      H   18    0.09599      0.00000     0.40261    0.00141     0.40401
      H   19    0.09877      0.00000     0.40004    0.00119     0.40123
      H   20    0.09838      0.00000     0.40010    0.00152     0.40162
      H   21    0.09159      0.00000     0.40714    0.00127     0.40841
      H   22    0.08290      0.00000     0.41439    0.00271     0.41710
      H   23    0.18044      0.00000     0.31631    0.00325     0.31956
      H   24    0.17097      0.00000     0.32671    0.00232     0.32903
      H   25    0.09287      0.00000     0.40555    0.00157     0.40713
      H   26    0.09929      0.00000     0.39775    0.00295     0.40071
      H   27    0.10515      0.00000     0.39303    0.00181     0.39485
      H   28    0.10828      0.00000     0.38987    0.00184     0.39172
      H   29    0.10682      0.00000     0.39197    0.00121     0.39318
      H   30    0.10301      0.00000     0.39590    0.00109     0.39699
      H   31    0.12716      0.00000     0.36925    0.00359     0.37284
      H   32    0.12612      0.00000     0.37105    0.00283     0.37388
 =======================================================================
   * Total *    0.00000     12.99514    36.82286    0.18200    50.00000

 Normal termination of Gaussian 16 at Sun Dec 13 16:30:25 2020.
