 Gaussian 16, Revision A.03,

 -----------------------------------------------------------
 # opt freq B3LYP/6-31G(d) empiricaldispersion=gd3bj scf=xqc
 -----------------------------------------------------------

 -------------------------------
 CID_135246104_JID_2294_neutraal
 -------------------------------
 Symbolic Z-matrix:
 Charge =  0 Multiplicity = 1

 SCF Done:  E(RB3LYP) =  -481.668126194     A.U. after   16 cycles
 SCF Done:  E(RB3LYP) =  -481.686227778     A.U. after   13 cycles
 SCF Done:  E(RB3LYP) =  -481.689401000     A.U. after   13 cycles
 SCF Done:  E(RB3LYP) =  -481.690064725     A.U. after   13 cycles
 SCF Done:  E(RB3LYP) =  -481.690334280     A.U. after   13 cycles
 SCF Done:  E(RB3LYP) =  -481.690393261     A.U. after   12 cycles
 SCF Done:  E(RB3LYP) =  -481.690443191     A.U. after   11 cycles
 SCF Done:  E(RB3LYP) =  -481.690447298     A.U. after    8 cycles
 SCF Done:  E(RB3LYP) =  -481.690453375     A.U. after    9 cycles
 SCF Done:  E(RB3LYP) =  -481.690456172     A.U. after    9 cycles
 SCF Done:  E(RB3LYP) =  -481.690456834     A.U. after    8 cycles
 Optimization completed.
    -- Stationary point found.
 Normal termination of Gaussian 16 at Wed Dec  9 16:56:48 2020.

 --------------------------------------------------------------------
 #N Geom=AllCheck Guess=TCheck SCRF=Check GenChk RB3LYP/6-31G(d) Freq
 --------------------------------------------------------------------

 Structure from the checkpoint file:  "JID_2294.chk"
 -------------------------------
 CID_135246104_JID_2294_neutraal
 -------------------------------
 Charge =  0 Multiplicity = 1

 SCF Done:  E(RB3LYP) =  -481.690456834     A.U. after    1 cycles

  Exact polarizability: 153.412   0.430 137.695  -2.622 -12.237  77.707
 Approx polarizability: 235.863   0.445 252.221   0.517 -39.306 130.981

                      1                      2                      3
                      A                      A                      A
 Frequencies --     87.3410               111.8897               156.7374
 Red. masses --      2.7447                 3.2056                 1.2913
 Frc consts  --      0.0123                 0.0236                 0.0187
 IR Inten    --      0.4156                 0.3289                 0.6272

                      4                      5                      6
                      A                      A                      A
 Frequencies --    186.4364               190.3225               243.0494
 Red. masses --      2.2922                 2.7031                 1.1001
 Frc consts  --      0.0469                 0.0577                 0.0383
 IR Inten    --      1.8262                 1.0686                 0.4494

                      7                      8                      9
                      A                      A                      A
 Frequencies --    284.6293               294.9486               363.8917
 Red. masses --      3.1223                 2.9134                 2.8160
 Frc consts  --      0.1490                 0.1493                 0.2197
 IR Inten    --     10.7629                 8.1323                 1.6414

                     10                     11                     12
                      A                      A                      A
 Frequencies --    376.4048               421.8538               441.8493
 Red. masses --      3.7287                 4.6796                 1.3617
 Frc consts  --      0.3113                 0.4907                 0.1566
 IR Inten    --      2.8759                 5.5296               110.2643

                     13                     14                     15
                      A                      A                      A
 Frequencies --    493.7653               520.9211               554.9129
 Red. masses --      2.7792                 3.0304                 3.3437
 Frc consts  --      0.3992                 0.4845                 0.6066
 IR Inten    --      5.3288                28.3740                 7.5629

                     16                     17                     18
                      A                      A                      A
 Frequencies --    581.2113               613.5093               710.0056
 Red. masses --      3.2565                 3.0937                 2.5605
 Frc consts  --      0.6481                 0.6861                 0.7605
 IR Inten    --      1.4174                11.9235                 6.0257

                     19                     20                     21
                      A                      A                      A
 Frequencies --    722.5557               735.6637               761.8173
 Red. masses --      2.5486                 3.7089                 2.2073
 Frc consts  --      0.7840                 1.1827                 0.7548
 IR Inten    --     10.6823                20.1016                 4.0623

                     22                     23                     24
                      A                      A                      A
 Frequencies --    799.2222               841.6422               854.2519
 Red. masses --      1.5872                 1.8185                 2.2987
 Frc consts  --      0.5973                 0.7590                 0.9884
 IR Inten    --     29.3327                 8.8458                 2.0131

                     25                     26                     27
                      A                      A                      A
 Frequencies --    872.6737               892.7353               923.2288
 Red. masses --      3.9599                 1.3097                 2.6134
 Frc consts  --      1.7768                 0.6150                 1.3124
 IR Inten    --     22.6668                 9.7222                 1.4861

                     28                     29                     30
                      A                      A                      A
 Frequencies --    936.5131               977.1027              1018.3068
 Red. masses --      1.4280                 1.9290                 1.5536
 Frc consts  --      0.7379                 1.0851                 0.9492
 IR Inten    --     73.8736                 4.0591                 4.4790

                     31                     32                     33
                      A                      A                      A
 Frequencies --   1066.1860              1081.1086              1104.2557
 Red. masses --      1.4858                 1.6006                 2.1148
 Frc consts  --      0.9951                 1.1022                 1.5194
 IR Inten    --      1.1113                 5.0683                 0.9264

                     34                     35                     36
                      A                      A                      A
 Frequencies --   1112.2447              1123.0888              1146.9030
 Red. masses --      1.4675                 2.1226                 1.8821
 Frc consts  --      1.0696                 1.5774                 1.4586
 IR Inten    --     10.1667                10.1915                 7.5852

                     37                     38                     39
                      A                      A                      A
 Frequencies --   1165.0827              1189.3719              1244.7534
 Red. masses --      2.0298                 1.9914                 2.4635
 Frc consts  --      1.6234                 1.6597                 2.2489
 IR Inten    --     49.8384                15.7204                 3.3890

                     40                     41                     42
                      A                      A                      A
 Frequencies --   1265.1101              1306.5219              1351.0029
 Red. masses --      1.6475                 1.5767                 1.5836
 Frc consts  --      1.5535                 1.5857                 1.7030
 IR Inten    --     39.5803                 4.6334                10.2364

                     43                     44                     45
                      A                      A                      A
 Frequencies --   1365.0075              1392.7949              1419.1139
 Red. masses --      1.8020                 1.7276                 1.3157
 Frc consts  --      1.9782                 1.9745                 1.5611
 IR Inten    --     25.8136                 2.9504                 2.5014

                     46                     47                     48
                      A                      A                      A
 Frequencies --   1430.3330              1435.8977              1460.3930
 Red. masses --      1.2693                 1.4239                 1.9747
 Frc consts  --      1.5300                 1.7297                 2.4813
 IR Inten    --      0.5755                 8.1594                24.9103

                     49                     50                     51
                      A                      A                      A
 Frequencies --   1509.1318              1513.8056              1523.9890
 Red. masses --      1.0542                 1.0703                 1.0457
 Frc consts  --      1.4146                 1.4451                 1.4309
 IR Inten    --      4.3774                 7.8153                 5.7291

                     52                     53                     54
                      A                      A                      A
 Frequencies --   1527.3801              1577.5797              1631.4217
 Red. masses --      1.0528                 6.8044                 4.6253
 Frc consts  --      1.4471                 9.9775                 7.2531
 IR Inten    --      1.5083                61.4340                56.2898

                     55                     56                     57
                      A                      A                      A
 Frequencies --   1655.2330              1674.6113              3007.1526
 Red. masses --      6.7676                 6.1920                 1.0813
 Frc consts  --     10.9245                10.2307                 5.7609
 IR Inten    --      7.6653                10.4158                19.7455

                     58                     59                     60
                      A                      A                      A
 Frequencies --   3027.0527              3042.7836              3076.5357
 Red. masses --      1.0370                 1.0344                 1.0998
 Frc consts  --      5.5987                 5.6427                 6.1334
 IR Inten    --     41.4769                42.4601                22.3811

                     61                     62                     63
                      A                      A                      A
 Frequencies --   3110.5045              3113.7323              3114.9028
 Red. masses --      1.0994                 1.0940                 1.0892
 Frc consts  --      6.2672                 6.2493                 6.2267
 IR Inten    --      4.9559                38.0618                33.1477

                     64                     65                     66
                      A                      A                      A
 Frequencies --   3115.9183              3117.4211              3147.7725
 Red. masses --      1.1003                 1.0960                 1.0890
 Frc consts  --      6.2939                 6.2754                 6.3573
 IR Inten    --     10.9002                49.0580                34.6303

                     67                     68                     69
                      A                      A                      A
 Frequencies --   3247.8954              3271.9964              3630.0311
 Red. masses --      1.0901                 1.1030                 1.0782
 Frc consts  --      6.7749                 6.9578                 8.3710
 IR Inten    --      2.5505                 8.7445                31.8860

 - Thermochemistry -
 -------------------
 Temperature   298.150 Kelvin.  Pressure   1.00000 Atm.
 Atom     1 has atomic number  6 and mass  12.00000

 Molecular mass:   159.10480 amu.
 Principal axes and moments of inertia in atomic units:
                           1         2         3
     Eigenvalues --  1253.644952133.904382976.98474
           X            0.99968   0.02443  -0.00618
           Y           -0.02429   0.99949   0.02074
           Z            0.00669  -0.02058   0.99977
 This molecule is an asymmetric top.
 Rotational symmetry number  1.
 Warning -- assumption of classical behavior for rotation
           may cause significant error
 Rotational temperatures (Kelvin)      0.06909     0.04059     0.02909
 Rotational constants (GHZ):           1.43960     0.84575     0.60623
 Zero-point vibrational energy     557851.1 (Joules/Mol)
                                  133.32960 (Kcal/Mol)
 Warning -- explicit consideration of  17 degrees of freedom as
           vibrations may cause significant error
 Vibrational temperatures:    125.66   160.98   225.51   268.24   273.83
          (Kelvin)            349.69   409.52   424.37   523.56   541.56
                              606.95   635.72   710.42   749.49   798.40
                              836.23   882.70  1021.54  1039.60  1058.46
                             1096.09  1149.90  1210.94  1229.08  1255.58
                             1284.45  1328.32  1347.43  1405.83  1465.12
                             1534.00  1555.47  1588.78  1600.27  1615.87
                             1650.14  1676.29  1711.24  1790.92  1820.21
                             1879.79  1943.79  1963.94  2003.92  2041.79
                             2057.93  2065.94  2101.18  2171.30  2178.03
                             2192.68  2197.56  2269.79  2347.25  2381.51
                             2409.39  4326.62  4355.25  4377.89  4426.45
                             4475.32  4479.97  4481.65  4483.11  4485.27
                             4528.94  4673.00  4707.67  5222.81

 Zero-point correction=                           0.212474 (Hartree/Particle)
 Thermal correction to Energy=                    0.223317
 Thermal correction to Enthalpy=                  0.224262
 Thermal correction to Gibbs Free Energy=         0.176736
 Sum of electronic and zero-point Energies=           -481.477983
 Sum of electronic and thermal Energies=              -481.467139
 Sum of electronic and thermal Enthalpies=            -481.466195
 Sum of electronic and thermal Free Energies=         -481.513721

                     E (Thermal)             CV                S
                      KCal/Mol        Cal/Mol-Kelvin    Cal/Mol-Kelvin
 Total                  140.134             43.554            100.027
 Electronic               0.000              0.000              0.000
 Translational            0.889              2.981             41.102
 Rotational               0.889              2.981             30.455
 Vibrational            138.356             37.593             28.469
 Vibration     1          0.601              1.958              3.719
 Vibration     2          0.607              1.940              3.236
 Vibration     3          0.620              1.895              2.589
 Vibration     4          0.632              1.858              2.263
 Vibration     5          0.634              1.853              2.225
 Vibration     6          0.659              1.774              1.780
 Vibration     7          0.683              1.702              1.506
 Vibration     8          0.689              1.683              1.445
 Vibration     9          0.737              1.547              1.105
 Vibration    10          0.747              1.520              1.054
 Vibration    11          0.784              1.423              0.886
 Vibration    12          0.802              1.379              0.821
 Vibration    13          0.849              1.264              0.674
 Vibration    14          0.876              1.204              0.608
 Vibration    15          0.910              1.129              0.534
 Vibration    16          0.938              1.072              0.483
 Vibration    17          0.973              1.003              0.427

                           ! Non-Optimized Parameters !
 Normal termination of Gaussian 16 at Wed Dec  9 17:03:12 2020.

 ----------------------------------------------------------------------
 # B3LYP/6-311++G(d,p) empiricaldispersion=gd3bj scf=xqc pop=npa geom=c
 heck
 ----------------------------------------------------------------------

 ---------------------------------------
 CID_135246104_JID_2294_Energie_neutraal
 ---------------------------------------
 Structure from the checkpoint file:  "JID_2294.chk"
 Charge =  0 Multiplicity = 1

 SCF Done:  E(RB3LYP) =  -481.819997464     A.U. after   16 cycles
 Normal termination of Gaussian 16 at Wed Dec  9 17:06:20 2020.

 ----------------------------------------------------------------------
 # B3LYP/6-311++G(d,p) empiricaldispersion=gd3bj scf=xqc pop=npa geom=c
 heck
 ----------------------------------------------------------------------

 -------------------------------------
 CID_135246104_JID_2294_Energie_kation
 -------------------------------------
 Structure from the checkpoint file:  "JID_2294.chk"
 Charge =  1 Multiplicity = 2

 SCF Done:  E(UB3LYP) =  -481.573638006     A.U. after   25 cycles
 Normal termination of Gaussian 16 at Wed Dec  9 17:13:16 2020.
 Gaussian 16:  ES64L-G16RevA.03 25-Dec-2016

 ----------------------------------------------------------------------
 # B3LYP/6-311++G(d,p) empiricaldispersion=gd3bj scf=xqc pop=npa geom=c
 heck
 ----------------------------------------------------------------------

 ------------------------------------
 CID_135246104_JID_2294_Energie_anion
 ------------------------------------
 Structure from the checkpoint file:  "JID_2294.chk"
 Charge = -1 Multiplicity = 2

                         Standard orientation:
 ---------------------------------------------------------------------
 Center     Atomic      Atomic             Coordinates (Angstroms)
 Number     Number       Type             X           Y           Z
 ---------------------------------------------------------------------
      1          6           0       -2.629786   -1.922958   -0.563408
      2          6           0       -1.853711   -0.803024    0.140799
      3          6           0       -1.495749    0.363106   -0.727875
      4          6           0       -1.008993    1.522061   -0.222741
      5          6           0        0.388920    1.737952   -0.580776
      6          6           0        1.172960    0.626746   -0.392515
      7          6           0        2.620199    0.541148   -0.501952
      8          6           0        3.026968   -0.616167    0.071117
      9          7           0        1.956163   -1.315303    0.607461
     10          6           0        0.736936   -0.682621    0.249572
     11          6           0       -0.455958   -1.253512    0.578729
     12          6           0       -1.564118    2.229344    0.987385
     13          1           0       -2.108101   -2.232252   -1.476467
     14          1           0       -3.631880   -1.577362   -0.842012
     15          1           0       -2.736260   -2.804679    0.079236
     16          1           0       -2.408704   -0.500263    1.042510
     17          1           0       -1.026277    0.027324   -1.654179
     18          1           0        0.848034    2.710053   -0.759691
     19          1           0        3.257283    1.309137   -0.917306
     20          1           0        4.029442   -1.010355    0.180327
     21          1           0        1.987798   -2.318998    0.714078
     22          1           0       -0.416241   -2.119302    1.244010
     23          1           0       -2.588788    1.907918    1.201383
     24          1           0       -0.947474    2.047682    1.878180
     25          1           0       -1.577976    3.315773    0.827683
 ---------------------------------------------------------------------

 SCF Done:  E(UB3LYP) =  -481.823492188     A.U. after   31 cycles

 The electronic state is 2-A.
 Alpha  occ. eigenvalues --  -14.18727 -10.05155 -10.04757 -10.03540 -10.02867
 Alpha  occ. eigenvalues --  -10.02537 -10.01622 -10.00779 -10.00595  -9.99997
 Alpha  occ. eigenvalues --   -9.99213  -9.98965  -0.81070  -0.68838  -0.64415
 Alpha  occ. eigenvalues --   -0.61342  -0.59561  -0.54647  -0.54036  -0.47820
 Alpha  occ. eigenvalues --   -0.45437  -0.42830  -0.39128  -0.35562  -0.34753
 Alpha  occ. eigenvalues --   -0.31717  -0.30217  -0.28690  -0.28281  -0.27614
 Alpha  occ. eigenvalues --   -0.27501  -0.25825  -0.25142  -0.23811  -0.22935
 Alpha  occ. eigenvalues --   -0.21938  -0.20108  -0.18890  -0.17594  -0.13085
 Alpha  occ. eigenvalues --   -0.11398  -0.06564  -0.03019   0.05052
 Alpha virt. eigenvalues --    0.08445   0.09187   0.09821   0.10419   0.11377
 Alpha virt. eigenvalues --    0.11544   0.12658   0.13166   0.13701   0.14014
 Alpha virt. eigenvalues --    0.14462   0.15566   0.15979   0.16169   0.16772

  Beta  occ. eigenvalues --  -14.18730 -10.05134 -10.04484 -10.03552 -10.02847
  Beta  occ. eigenvalues --  -10.02511 -10.01449 -10.00833 -10.00652  -9.99681
  Beta  occ. eigenvalues --   -9.98955  -9.98661  -0.80866  -0.68495  -0.64102
  Beta  occ. eigenvalues --   -0.61198  -0.59243  -0.54388  -0.53726  -0.47222
  Beta  occ. eigenvalues --   -0.45208  -0.42691  -0.38881  -0.35250  -0.34464
  Beta  occ. eigenvalues --   -0.31454  -0.30069  -0.28523  -0.28169  -0.27557
  Beta  occ. eigenvalues --   -0.27301  -0.25697  -0.24779  -0.23569  -0.22663
  Beta  occ. eigenvalues --   -0.21760  -0.19884  -0.18632  -0.17339  -0.12278
  Beta  occ. eigenvalues --   -0.10212  -0.05685  -0.01698
  Beta virt. eigenvalues --    0.08499   0.09145   0.09510   0.10453   0.10791
  Beta virt. eigenvalues --    0.11519   0.11559   0.12672   0.13068   0.13707
  Beta virt. eigenvalues --    0.13999   0.14557   0.15691   0.16076   0.16593

 Mulliken charges and spin densities:
               1          2
     1  C   -0.498608  -0.103881
     2  C    0.448152  -0.075898
     3  C   -0.610114   0.216158
     4  C    0.918405   0.001315
     5  C   -1.410871   0.228462
     6  C    1.096562   0.171888
     7  C    0.209103  -0.249040
     8  C   -0.393137   0.336776
     9  N    0.012662  -0.042050
    10  C   -0.222556  -0.479634
    11  C   -0.975539   0.488367
    12  C   -0.623058  -0.025546
    13  H    0.099883   0.024261
    14  H    0.098768  -0.001945
    15  H    0.041375   0.067545
    16  H    0.116365   0.014783
    17  H    0.146339  -0.012971
    18  H    0.090658  -0.010785
    19  H    0.103166   0.003138
    20  H    0.001699   0.094730
    21  H    0.019477   0.223584
    22  H    0.011883   0.086432
    23  H    0.069193   0.026914
    24  H    0.152497  -0.009047
    25  H    0.097694   0.026443
 Sum of Mulliken charges =  -1.00000   1.00000

 Dipole moment (field-independent basis, Debye):
    X=             -0.2071    Y=             -0.2060    Z=              1.2755  Tot=              1.3086
 Quadrupole moment (field-independent basis, Debye-Ang):
   XX=           -100.1106   YY=            -94.8401   ZZ=            -87.3579
   XY=              2.1429   XZ=             -1.7565   YZ=              0.4459

 Summary of Natural Population Analysis:

                                       Natural Population
                Natural  -----------------------------------------------
    Atom  No    Charge         Core      Valence    Rydberg      Total
 -----------------------------------------------------------------------
      C    1   -0.27814      0.99966     2.27131    0.00717     3.27814
      C    2   -0.14202      0.99956     2.13128    0.01118     3.14202
      C    3   -0.03158      0.99940     2.01808    0.01409     3.03158
      C    4   -0.04609      0.99943     2.03601    0.01065     3.04609
      C    5   -0.07151      0.99943     2.06233    0.00975     3.07151
      C    6   -0.00354      0.99948     1.99252    0.01154     3.00354
      C    7   -0.17607      0.99951     2.16606    0.01050     3.17607
      C    8    0.06014      0.99956     1.92713    0.01317     2.93986
      N    9   -0.30857      0.99967     2.79789    0.01100     3.80857
      C   10    0.07298      0.99948     1.91568    0.01186     2.92702
      C   11   -0.05823      0.99949     2.04817    0.01057     3.05823
      C   12   -0.29274      0.99963     2.28772    0.00539     3.29274
      H   13    0.09539      0.00000     0.40317    0.00144     0.40461
      H   14    0.09098      0.00000     0.40771    0.00131     0.40902
      H   15    0.08998      0.00000     0.40860    0.00141     0.41002
      H   16    0.09518      0.00000     0.40292    0.00190     0.40482
      H   17    0.08600      0.00000     0.41237    0.00164     0.41400
      H   18    0.08198      0.00000     0.41637    0.00165     0.41802
      H   19    0.09664      0.00000     0.40260    0.00076     0.40336
      H   20    0.08544      0.00000     0.41379    0.00077     0.41456
      H   21    0.18751      0.00000     0.30958    0.00291     0.31249
      H   22    0.08451      0.00000     0.41426    0.00124     0.41549
      H   23    0.09366      0.00000     0.40500    0.00134     0.40634
      H   24    0.09468      0.00000     0.40377    0.00156     0.40532
      H   25    0.09343      0.00000     0.40526    0.00130     0.40657
 =======================================================================
   * Total *    0.00000     11.99429    30.85959    0.14612    43.00000

 Normal termination of Gaussian 16 at Wed Dec  9 17:21:34 2020.
