 Gaussian 16, Revision A.03,

 -----------------------------------------------------------
 # opt freq B3LYP/6-31G(d) empiricaldispersion=gd3bj scf=xqc
 -----------------------------------------------------------

 ------------------------------
 CID_80919817_JID_8495_neutraal
 ------------------------------
 Symbolic Z-matrix:
 Charge =  0 Multiplicity = 1

 SCF Done:  E(RB3LYP) =  -818.928539619     A.U. after   14 cycles
 SCF Done:  E(RB3LYP) =  -818.937628127     A.U. after   13 cycles
 SCF Done:  E(RB3LYP) =  -818.941122411     A.U. after   13 cycles
 SCF Done:  E(RB3LYP) =  -818.943012985     A.U. after   13 cycles
 SCF Done:  E(RB3LYP) =  -818.941575412     A.U. after   14 cycles
 SCF Done:  E(RB3LYP) =  -818.944799944     A.U. after   12 cycles
 SCF Done:  E(RB3LYP) =  -818.945546622     A.U. after   12 cycles
 SCF Done:  E(RB3LYP) =  -818.945817496     A.U. after   12 cycles
 SCF Done:  E(RB3LYP) =  -818.945887331     A.U. after   10 cycles
 SCF Done:  E(RB3LYP) =  -818.945912502     A.U. after   11 cycles
 SCF Done:  E(RB3LYP) =  -818.945966379     A.U. after    8 cycles
 SCF Done:  E(RB3LYP) =  -818.945967271     A.U. after    9 cycles
 SCF Done:  E(RB3LYP) =  -818.945967487     A.U. after    7 cycles
 SCF Done:  E(RB3LYP) =  -818.945967613     A.U. after    7 cycles
 SCF Done:  E(RB3LYP) =  -818.945967630     A.U. after    6 cycles
 Optimization completed.
    -- Stationary point found.
 Normal termination of Gaussian 16 at Fri Dec 11 21:14:24 2020.

 --------------------------------------------------------------------
 #N Geom=AllCheck Guess=TCheck SCRF=Check GenChk RB3LYP/6-31G(d) Freq
 --------------------------------------------------------------------

 Structure from the checkpoint file:  "JID_8495.chk"
 ------------------------------
 CID_80919817_JID_8495_neutraal
 ------------------------------
 Charge =  0 Multiplicity = 1

 SCF Done:  E(RB3LYP) =  -818.945967630     A.U. after    1 cycles

  Exact polarizability: 166.799  16.003 150.504  -9.547  13.864 150.973
 Approx polarizability: 242.388  31.646 221.650 -27.225  22.485 241.924

                      1                      2                      3
                      A                      A                      A
 Frequencies --     36.5543                45.5740                58.4314
 Red. masses --      3.7679                 4.1823                 1.0556
 Frc consts  --      0.0030                 0.0051                 0.0021
 IR Inten    --      0.1979                 0.2318                 0.2217

                      4                      5                      6
                      A                      A                      A
 Frequencies --     62.2571                78.0599                83.1053
 Red. masses --      3.7460                 3.4836                 2.8038
 Frc consts  --      0.0086                 0.0125                 0.0114
 IR Inten    --      0.6813                 0.2367                 0.3447

                      7                      8                      9
                      A                      A                      A
 Frequencies --    108.9886               128.8962               147.8053
 Red. masses --      1.7185                 2.9022                 3.3566
 Frc consts  --      0.0120                 0.0284                 0.0432
 IR Inten    --      0.0175                 0.0366                 3.7586

                     10                     11                     12
                      A                      A                      A
 Frequencies --    154.7821               186.6015               195.2709
 Red. masses --      1.2855                 1.7081                 2.6993
 Frc consts  --      0.0181                 0.0350                 0.0606
 IR Inten    --     17.1566                 0.4117                 1.2216

                     13                     14                     15
                      A                      A                      A
 Frequencies --    218.0048               239.4151               245.3753
 Red. masses --      1.9161                 3.9006                 2.6719
 Frc consts  --      0.0537                 0.1317                 0.0948
 IR Inten    --      6.0354                 5.1689                 0.8938

                     16                     17                     18
                      A                      A                      A
 Frequencies --    271.3006               307.1183               325.1532
 Red. masses --      3.7064                 2.1839                 3.4972
 Frc consts  --      0.1607                 0.1214                 0.2178
 IR Inten    --      2.2928                 0.3087                 4.5508

                     19                     20                     21
                      A                      A                      A
 Frequencies --    343.4148               353.5594               369.1448
 Red. masses --      2.6828                 3.8968                 2.2760
 Frc consts  --      0.1864                 0.2870                 0.1827
 IR Inten    --     11.0641                 5.8560                 4.8307

                     22                     23                     24
                      A                      A                      A
 Frequencies --    408.8790               481.4939               512.6255
 Red. masses --      3.7626                 3.3639                 2.9119
 Frc consts  --      0.3706                 0.4595                 0.4508
 IR Inten    --     32.8892                34.7840                 6.4079

                     25                     26                     27
                      A                      A                      A
 Frequencies --    527.2441               560.2487               574.8512
 Red. masses --      2.0616                 4.2844                 2.8046
 Frc consts  --      0.3377                 0.7923                 0.5460
 IR Inten    --     95.0935                11.1814                11.4415

                     28                     29                     30
                      A                      A                      A
 Frequencies --    586.7256               646.5167               652.7188
 Red. masses --      3.8024                 3.7328                 2.8654
 Frc consts  --      0.7712                 0.9193                 0.7193
 IR Inten    --      7.0530                 2.1790                 0.5418

                     31                     32                     33
                      A                      A                      A
 Frequencies --    711.2222               726.8076               769.9520
 Red. masses --      4.5029                 3.8074                 1.3916
 Frc consts  --      1.3420                 1.1850                 0.4861
 IR Inten    --      7.6420                 3.8300                 5.2362

                     34                     35                     36
                      A                      A                      A
 Frequencies --    800.5056               807.8087               870.4804
 Red. masses --      5.3302                 5.3255                 2.7790
 Frc consts  --      2.0124                 2.0475                 1.2406
 IR Inten    --     10.8426                30.3297                17.3407

                     37                     38                     39
                      A                      A                      A
 Frequencies --    884.2262               887.0497               911.4347
 Red. masses --      2.4384                 1.7026                 2.6616
 Frc consts  --      1.1233                 0.7893                 1.3027
 IR Inten    --      7.8583                 3.2726                 0.7397

                     40                     41                     42
                      A                      A                      A
 Frequencies --    929.7467               972.5646               988.7454
 Red. masses --      2.2369                 2.1760                 1.7564
 Frc consts  --      1.1393                 1.2127                 1.0117
 IR Inten    --     44.8684                 0.3002                 9.7521

                     43                     44                     45
                      A                      A                      A
 Frequencies --    993.8321              1000.9148              1023.5069
 Red. masses --      2.2509                 2.2632                 2.5254
 Frc consts  --      1.3099                 1.3359                 1.5587
 IR Inten    --     49.2279                67.8214                 9.2207

                     46                     47                     48
                      A                      A                      A
 Frequencies --   1065.5533              1070.8652              1072.5955
 Red. masses --      1.6109                 1.9572                 1.4642
 Frc consts  --      1.0777                 1.3223                 0.9925
 IR Inten    --      6.4696                 0.9515                 0.1951

                     49                     50                     51
                      A                      A                      A
 Frequencies --   1076.2796              1083.6598              1096.2306
 Red. masses --      1.6301                 2.8243                 3.1338
 Frc consts  --      1.1126                 1.9541                 2.2188
 IR Inten    --      5.3169                56.4300                17.0382

                     52                     53                     54
                      A                      A                      A
 Frequencies --   1139.9613              1148.7433              1189.0351
 Red. masses --      1.5956                 2.9748                 1.9539
 Frc consts  --      1.2217                 2.3128                 1.6276
 IR Inten    --      0.6931                61.5695                17.9430

                     55                     56                     57
                      A                      A                      A
 Frequencies --   1199.8349              1203.6768              1232.9984
 Red. masses --      3.5401                 2.5653                 1.2438
 Frc consts  --      3.0027                 2.1898                 1.1141
 IR Inten    --     79.6783                10.2905                 1.9520

                     58                     59                     60
                      A                      A                      A
 Frequencies --   1240.3619              1257.0828              1276.9005
 Red. masses --      1.3633                 2.8272                 1.1796
 Frc consts  --      1.2358                 2.6323                 1.1332
 IR Inten    --      5.7595               138.6835                 0.9370

                     61                     62                     63
                      A                      A                      A
 Frequencies --   1297.5087              1302.1562              1321.4602
 Red. masses --      1.5951                 5.5896                 1.1806
 Frc consts  --      1.5822                 5.5841                 1.2147
 IR Inten    --      8.7829                21.8298                19.8645

                     64                     65                     66
                      A                      A                      A
 Frequencies --   1323.4587              1338.8964              1347.6535
 Red. masses --      1.4198                 1.2872                 1.2766
 Frc consts  --      1.4652                 1.3596                 1.3660
 IR Inten    --     17.7264                 1.0402                 6.8890

                     67                     68                     69
                      A                      A                      A
 Frequencies --   1375.2247              1381.7683              1388.0862
 Red. masses --      1.3244                 1.4287                 1.8072
 Frc consts  --      1.4757                 1.6071                 2.0516
 IR Inten    --     18.2242                11.4582                35.7396

                     70                     71                     72
                      A                      A                      A
 Frequencies --   1409.2731              1415.3575              1428.1757
 Red. masses --      1.5845                 1.5001                 1.5744
 Frc consts  --      1.8542                 1.7705                 1.8920
 IR Inten    --     16.4770                24.6409                23.5888

                     73                     74                     75
                      A                      A                      A
 Frequencies --   1435.6196              1445.5959              1451.9759
 Red. masses --      1.6450                 1.6482                 1.7299
 Frc consts  --      1.9975                 2.0293                 2.1487
 IR Inten    --     31.8436                25.3686                17.6876

                     76                     77                     78
                      A                      A                      A
 Frequencies --   1473.8179              1497.0874              1504.3430
 Red. masses --      2.8595                 1.5439                 1.1035
 Frc consts  --      3.6595                 2.0388                 1.4713
 IR Inten    --     62.6317                31.9540                 7.5097

                     79                     80                     81
                      A                      A                      A
 Frequencies --   1509.0851              1516.8437              1520.3093
 Red. masses --      1.0957                 1.1430                 1.4222
 Frc consts  --      1.4702                 1.5495                 1.9368
 IR Inten    --      9.8623                25.8699                59.3922

                     82                     83                     84
                      A                      A                      A
 Frequencies --   1521.5254              1529.5289              1534.7687
 Red. masses --      1.1155                 1.0961                 1.1104
 Frc consts  --      1.5215                 1.5108                 1.5410
 IR Inten    --     23.0141                 5.7174                19.7224

                     85                     86                     87
                      A                      A                      A
 Frequencies --   1536.5659              1538.9968              1558.4985
 Red. masses --      1.1377                 1.0873                 1.1127
 Frc consts  --      1.5826                 1.5172                 1.5923
 IR Inten    --     25.5677                 0.9653                 3.1323

                     88                     89                     90
                      A                      A                      A
 Frequencies --   1619.4072              1637.0088              1749.0155
 Red. masses --      4.8234                 7.1001                 1.0615
 Frc consts  --      7.4527                11.2104                 1.9131
 IR Inten    --    411.1525               139.4846                22.6348

                     91                     92                     93
                      A                      A                      A
 Frequencies --   2905.3646              2912.2204              2923.7783
 Red. masses --      1.0746                 1.0737                 1.0735
 Frc consts  --      5.3444                 5.3651                 5.4066
 IR Inten    --     54.8734                36.3978               248.9351

                     94                     95                     96
                      A                      A                      A
 Frequencies --   3023.7720              3047.8811              3053.1085
 Red. masses --      1.0424                 1.0677                 1.0440
 Frc consts  --      5.6156                 5.8439                 5.7340
 IR Inten    --     30.8526                30.4096                11.3414

                     97                     98                     99
                      A                      A                      A
 Frequencies --   3064.4262              3075.8913              3083.0812
 Red. masses --      1.1001                 1.0622                 1.0714
 Frc consts  --      6.0865                 5.9212                 6.0004
 IR Inten    --     34.3526                10.0663                58.7651

                    100                    101                    102
                      A                      A                      A
 Frequencies --   3089.1178              3097.8413              3105.4160
 Red. masses --      1.0748                 1.0861                 1.0868
 Frc consts  --      6.0429                 6.1410                 6.1752
 IR Inten    --     37.2164                 7.2816                19.9103

                    103                    104                    105
                      A                      A                      A
 Frequencies --   3114.7766              3118.4437              3126.3195
 Red. masses --      1.1069                 1.0919                 1.0989
 Frc consts  --      6.3272                 6.2562                 6.3282
 IR Inten    --      1.3660                18.0317                45.7127

                    106                    107                    108
                      A                      A                      A
 Frequencies --   3134.9443              3154.1743              3167.1844
 Red. masses --      1.1067                 1.0945                 1.1033
 Frc consts  --      6.4082                 6.4154                 6.5204
 IR Inten    --     55.8183                 5.6151                 8.3393

                    109                    110                    111
                      A                      A                      A
 Frequencies --   3429.9367              3504.7497              3617.9612
 Red. masses --      1.0492                 1.0919                 1.0770
 Frc consts  --      7.2728                 7.9024                 8.3059
 IR Inten    --      5.1156                 0.7176                30.3838

 - Thermochemistry -
 -------------------
 Temperature   298.150 Kelvin.  Pressure   1.00000 Atm.
 Atom     1 has atomic number  6 and mass  12.00000

 Molecular mass:   251.17461 amu.
 Principal axes and moments of inertia in atomic units:
                           1         2         3
     Eigenvalues --  3484.622414660.660024981.99411
           X            0.99989  -0.00104   0.01459
           Y           -0.00155   0.98436   0.17614
           Z           -0.01454  -0.17614   0.98426
 This molecule is an asymmetric top.
 Rotational symmetry number  1.
 Warning -- assumption of classical behavior for rotation
           may cause significant error
 Rotational temperatures (Kelvin)      0.02486     0.01858     0.01739
 Rotational constants (GHZ):           0.51792     0.38723     0.36225
 Zero-point vibrational energy     892426.7 (Joules/Mol)
                                  213.29510 (Kcal/Mol)
 Warning -- explicit consideration of  28 degrees of freedom as
           vibrations may cause significant error
 Vibrational temperatures:     52.59    65.57    84.07    89.57   112.31
          (Kelvin)            119.57   156.81   185.45   212.66   222.70
                              268.48   280.95   313.66   344.46   353.04
                              390.34   441.87   467.82   494.10   508.69
                              531.12   588.29   692.76   737.55   758.59
                              806.07   827.08   844.17   930.19   939.12
                             1023.29  1045.71  1107.79  1151.75  1162.26
                             1252.43  1272.20  1276.27  1311.35  1337.70
                             1399.30  1422.58  1429.90  1440.09  1472.60
                             1533.09  1540.74  1543.23  1548.53  1559.14
                             1577.23  1640.15  1652.79  1710.76  1726.29
                             1731.82  1774.01  1784.60  1808.66  1837.18
                             1866.83  1873.51  1901.29  1904.16  1926.37
                             1938.97  1978.64  1988.06  1997.15  2027.63
                             2036.38  2054.83  2065.54  2079.89  2089.07
                             2120.50  2153.97  2164.41  2171.24  2182.40
                             2187.39  2189.14  2200.65  2208.19  2210.78
                             2214.27  2242.33  2329.97  2355.29  2516.44
                             4180.17  4190.04  4206.66  4350.53  4385.22
                             4392.74  4409.03  4425.52  4435.87  4444.55
                             4457.10  4468.00  4481.47  4486.74  4498.08
                             4510.49  4538.15  4556.87  4934.91  5042.55
                             5205.44

 Zero-point correction=                           0.339907 (Hartree/Particle)
 Thermal correction to Energy=                    0.358467
 Thermal correction to Enthalpy=                  0.359411
 Thermal correction to Gibbs Free Energy=         0.292774
 Sum of electronic and zero-point Energies=           -818.606060
 Sum of electronic and thermal Energies=              -818.587500
 Sum of electronic and thermal Enthalpies=            -818.586556
 Sum of electronic and thermal Free Energies=         -818.653193

                     E (Thermal)             CV                S
                      KCal/Mol        Cal/Mol-Kelvin    Cal/Mol-Kelvin
 Total                  224.942             68.830            140.250
 Electronic               0.000              0.000              0.000
 Translational            0.889              2.981             42.463
 Rotational               0.889              2.981             32.759
 Vibrational            223.164             62.868             65.028
 Vibration     1          0.594              1.982              5.438
 Vibration     2          0.595              1.979              5.001
 Vibration     3          0.596              1.974              4.509
 Vibration     4          0.597              1.972              4.384
 Vibration     5          0.599              1.964              3.939
 Vibration     6          0.600              1.961              3.816
 Vibration     7          0.606              1.942              3.287
 Vibration     8          0.611              1.924              2.962
 Vibration     9          0.617              1.905              2.700
 Vibration    10          0.620              1.897              2.613
 Vibration    11          0.632              1.858              2.261
 Vibration    12          0.636              1.846              2.177
 Vibration    13          0.646              1.814              1.976
 Vibration    14          0.657              1.780              1.807
 Vibration    15          0.660              1.770              1.764
 Vibration    16          0.675              1.726              1.588
 Vibration    17          0.697              1.660              1.378
 Vibration    18          0.709              1.625              1.284
 Vibration    19          0.722              1.589              1.196
 Vibration    20          0.730              1.568              1.150
 Vibration    21          0.741              1.536              1.083
 Vibration    22          0.773              1.451              0.931
 Vibration    23          0.838              1.291              0.706
 Vibration    24          0.868              1.222              0.627
 Vibration    25          0.882              1.190              0.593
 Vibration    26          0.916              1.117              0.523
 Vibration    27          0.931              1.086              0.495
 Vibration    28          0.944              1.060              0.473

 Optimization completed.
    -- Stationary point found.
 Normal termination of Gaussian 16 at Fri Dec 11 21:36:37 2020.

 ----------------------------------------------------------------------
 # B3LYP/6-311++G(d,p) empiricaldispersion=gd3bj scf=xqc pop=npa geom=c
 heck
 ----------------------------------------------------------------------

 --------------------------------------
 CID_80919817_JID_8495_Energie_neutraal
 --------------------------------------
 Structure from the checkpoint file:  "JID_8495.chk"
 Charge =  0 Multiplicity = 1

 SCF Done:  E(RB3LYP) =  -819.175673864     A.U. after   15 cycles
 Normal termination of Gaussian 16 at Fri Dec 11 21:46:21 2020.

 ----------------------------------------------------------------------
 # B3LYP/6-311++G(d,p) empiricaldispersion=gd3bj scf=xqc pop=npa geom=c
 heck
 ----------------------------------------------------------------------

 ------------------------------------
 CID_80919817_JID_8495_Energie_kation
 ------------------------------------
 Structure from the checkpoint file:  "JID_8495.chk"
 Charge =  1 Multiplicity = 2

 SCF Done:  E(UB3LYP) =  -818.903376024     A.U. after   22 cycles
 Normal termination of Gaussian 16 at Fri Dec 11 22:07:08 2020.
 Gaussian 16:  ES64L-G16RevA.03 25-Dec-2016

 ----------------------------------------------------------------------
 # B3LYP/6-311++G(d,p) empiricaldispersion=gd3bj scf=xqc pop=npa geom=c
 heck
 ----------------------------------------------------------------------

 -----------------------------------
 CID_80919817_JID_8495_Energie_anion
 -----------------------------------
 Structure from the checkpoint file:  "JID_8495.chk"
 Charge = -1 Multiplicity = 2

                         Standard orientation:
 ---------------------------------------------------------------------
 Center     Atomic      Atomic             Coordinates (Angstroms)
 Number     Number       Type             X           Y           Z
 ---------------------------------------------------------------------
      1          6           0        0.576841   -2.500196   -1.258780
      2          6           0        0.728275   -1.452005   -0.193042
      3          6           0        1.755257   -0.483618   -0.228474
      4          7           0        1.932588    0.426944    0.740176
      5          6           0        1.076454    0.377789    1.772445
      6          7           0        0.032451   -0.442704    1.882500
      7          6           0       -0.153203   -1.303501    0.873442
      8          8           0       -1.262270   -2.100532    0.980566
      9          6           0       -2.366059   -1.784068    0.116871
     10          6           0       -2.821506   -0.332141    0.245350
     11          7           0       -1.837877    0.575826   -0.301731
     12          6           0       -1.800634    1.925658    0.240352
     13          6           0       -0.722463    2.614988   -0.616703
     14          6           0       -0.716306    1.813067   -1.950636
     15          6           0       -1.783940    0.721095   -1.747611
     16          6           0        1.291637    1.378690    2.874968
     17          7           0        2.612303   -0.414515   -1.306635
     18          7           0        3.793146    0.363823   -1.248434
     19          1           0       -0.158769   -3.247303   -0.955453
     20          1           0        1.522624   -3.030769   -1.437179
     21          1           0        0.261010   -2.072976   -2.220517
     22          1           0       -2.110993   -2.014580   -0.925523
     23          1           0       -3.163092   -2.463562    0.429547
     24          1           0       -3.816002   -0.225656   -0.234750
     25          1           0       -2.942000   -0.109664    1.310162
     26          1           0       -1.553372    1.890212    1.305983
     27          1           0       -2.774055    2.444816    0.131170
     28          1           0       -0.942177    3.676272   -0.764887
     29          1           0        0.253255    2.537059   -0.130030
     30          1           0       -0.943232    2.437879   -2.819455
     31          1           0        0.263359    1.355676   -2.116011
     32          1           0       -2.761631    1.041834   -2.162904
     33          1           0       -1.517968   -0.225153   -2.230369
     34          1           0        2.355649    1.470323    3.111489
     35          1           0        0.943240    2.369031    2.554528
     36          1           0        0.731348    1.086749    3.765078
     37          1           0        2.734695   -1.257552   -1.849454
     38          1           0        3.520557    1.321984   -1.468504
     39          1           0        4.081308    0.399465   -0.267674
 ---------------------------------------------------------------------

 SCF Done:  E(UB3LYP) =  -819.162857615     A.U. after   33 cycles
 SCF Done:  E(UB3LYP) =  -819.162857615     a.u. after    1 cycles

 The electronic state is 2-A.
 Alpha  occ. eigenvalues --  -19.04469 -14.26179 -14.24061 -14.20587 -14.20519
 Alpha  occ. eigenvalues --  -14.20055 -10.16574 -10.15498 -10.14545 -10.13097
 Alpha  occ. eigenvalues --  -10.10377 -10.09455 -10.09192 -10.08507 -10.07511
 Alpha  occ. eigenvalues --  -10.07464 -10.06758 -10.06612  -0.97016  -0.91424
 Alpha  occ. eigenvalues --   -0.86998  -0.84180  -0.78128  -0.73462  -0.69744
 Alpha  occ. eigenvalues --   -0.67851  -0.65333  -0.63522  -0.62782  -0.58245
 Alpha  occ. eigenvalues --   -0.55919  -0.53455  -0.50389  -0.48503  -0.47482
 Alpha  occ. eigenvalues --   -0.45642  -0.43980  -0.41566  -0.41015  -0.40220
 Alpha  occ. eigenvalues --   -0.39602  -0.37544  -0.37391  -0.35141  -0.34754
 Alpha  occ. eigenvalues --   -0.33710  -0.33083  -0.32785  -0.31669  -0.30969
 Alpha  occ. eigenvalues --   -0.30376  -0.30105  -0.29485  -0.28856  -0.28191
 Alpha  occ. eigenvalues --   -0.26607  -0.25583  -0.24624  -0.24107  -0.22831
 Alpha  occ. eigenvalues --   -0.22270  -0.20923  -0.19972  -0.18581  -0.17385
 Alpha  occ. eigenvalues --   -0.15998  -0.13570  -0.11438   0.04280
 Alpha virt. eigenvalues --    0.06323   0.06553   0.07003   0.07284   0.07879
 Alpha virt. eigenvalues --    0.08664   0.08738   0.09015   0.09571   0.09929
 Alpha virt. eigenvalues --    0.10567   0.11178   0.11631   0.11853   0.11975

  Beta  occ. eigenvalues --  -19.04469 -14.26159 -14.24041 -14.20568 -14.20505
  Beta  occ. eigenvalues --  -14.20058 -10.16557 -10.15500 -10.14527 -10.13075
  Beta  occ. eigenvalues --  -10.10368 -10.09449 -10.09170 -10.08503 -10.07504
  Beta  occ. eigenvalues --  -10.07413 -10.06746 -10.06595  -0.97004  -0.91399
  Beta  occ. eigenvalues --   -0.86975  -0.84155  -0.78109  -0.73426  -0.69718
  Beta  occ. eigenvalues --   -0.67806  -0.65293  -0.63490  -0.62749  -0.58189
  Beta  occ. eigenvalues --   -0.55881  -0.53415  -0.50347  -0.48466  -0.47425
  Beta  occ. eigenvalues --   -0.45615  -0.43953  -0.41527  -0.40984  -0.40186
  Beta  occ. eigenvalues --   -0.39574  -0.37502  -0.37357  -0.35093  -0.34719
  Beta  occ. eigenvalues --   -0.33671  -0.33032  -0.32734  -0.31641  -0.30942
  Beta  occ. eigenvalues --   -0.30362  -0.30070  -0.29443  -0.28821  -0.28158
  Beta  occ. eigenvalues --   -0.26580  -0.25555  -0.24594  -0.24075  -0.22808
  Beta  occ. eigenvalues --   -0.22248  -0.20889  -0.19947  -0.18559  -0.17323
  Beta  occ. eigenvalues --   -0.15984  -0.13530  -0.11358
  Beta virt. eigenvalues --    0.06325   0.06966   0.07214   0.07331   0.07619
  Beta virt. eigenvalues --    0.08218   0.08819   0.09117   0.09370   0.09804
  Beta virt. eigenvalues --    0.10356   0.10966   0.11567   0.11720   0.12100

 Mulliken charges and spin densities:
               1          2
     1  C    2.590627  -3.031261
     2  C   -0.922424   1.350660
     3  C   -0.106578  -0.001503
     4  N   -0.188228   0.175274
     5  C   -0.653873   0.181384
     6  N    0.039779   0.086435
     7  C   -0.398319  -0.400948
     8  O   -0.034713   0.004162
     9  C   -0.063435  -0.301227
    10  C   -0.032593  -0.124906
    11  N    0.173165   0.079756
    12  C    0.024293  -0.254158
    13  C   -0.089973  -0.303793
    14  C   -0.318385  -0.052382
    15  C    0.754962  -0.994378
    16  C    0.403883  -0.902287
    17  N   -0.202176   0.150777
    18  N   -0.451964   0.230991
    19  H   -0.166618   0.351985
    20  H   -0.243978   0.398414
    21  H   -0.471762   0.691952
    22  H   -0.024283   0.202227
    23  H   -0.294388   0.463846
    24  H   -0.169495   0.263266
    25  H    0.203741  -0.015998
    26  H    0.112625   0.024491
    27  H   -0.017627   0.146994
    28  H   -0.255175   0.427122
    29  H   -0.016899   0.141037
    30  H   -0.473044   0.651164
    31  H    0.043526   0.120028
    32  H   -0.002315   0.145444
    33  H   -0.112321   0.201908
    34  H    0.086157   0.062458
    35  H    0.046670   0.115322
    36  H    0.110802   0.048915
    37  H   -0.072019   0.373913
    38  H    0.057545   0.198219
    39  H    0.134809   0.094694
 Sum of Mulliken charges =  -1.00000   1.00000

 Dipole moment (field-independent basis, Debye):
    X=             -0.1606    Y=              1.9574    Z=              5.3030  Tot=              5.6550
 Quadrupole moment (field-independent basis, Debye-Ang):
   XX=           -161.9306   YY=           -164.5695   ZZ=           -161.9487
   XY=              2.6221   XZ=              2.8172   YZ=             -1.1972

 Summary of Natural Population Analysis:

                                       Natural Population
                Natural  -----------------------------------------------
    Atom  No    Charge         Core      Valence    Rydberg      Total
 -----------------------------------------------------------------------
      C    1   -0.29914      0.99964     2.29260    0.00689     3.29914
      C    2   -0.08777      0.99939     2.07775    0.01063     3.08777
      C    3    0.21142      0.99949     1.77288    0.01622     2.78858
      N    4   -0.29435      0.99964     2.78345    0.01126     3.79435
      C    5    0.22661      0.99963     1.75525    0.01852     2.77339
      N    6   -0.27680      0.99962     2.76777    0.00941     3.77680
      C    7    0.29313      0.99936     1.68778    0.01973     2.70687
      O    8   -0.29095      0.99985     3.28220    0.00890     4.29095
      C    9   -0.01017      0.99954     1.99825    0.01238     3.01017
      C   10   -0.09459      0.99961     2.08477    0.01021     3.09459
      N   11   -0.29213      0.99970     2.77708    0.01535     3.79213
      C   12   -0.07925      0.99963     2.06976    0.00987     3.07925
      C   13   -0.19674      0.99963     2.18905    0.00805     3.19674
      C   14   -0.19426      0.99963     2.18649    0.00814     3.19426
      C   15   -0.08061      0.99962     2.06984    0.01115     3.08061
      C   16   -0.30118      0.99963     2.29658    0.00498     3.30118
      N   17   -0.22186      0.99965     2.70915    0.01306     3.72186
      N   18   -0.31453      0.99978     2.80460    0.01016     3.81453
      H   19    0.11199      0.00000     0.38664    0.00136     0.38801
      H   20    0.10315      0.00000     0.39515    0.00170     0.39685
      H   21    0.10909      0.00000     0.38832    0.00258     0.39091
      H   22    0.08602      0.00000     0.41215    0.00183     0.41398
      H   23    0.09200      0.00000     0.40683    0.00116     0.40800
      H   24    0.08639      0.00000     0.41219    0.00142     0.41361
      H   25    0.10300      0.00000     0.39577    0.00123     0.39700
      H   26    0.09949      0.00000     0.39940    0.00111     0.40051
      H   27    0.07697      0.00000     0.42175    0.00128     0.42303
      H   28    0.09652      0.00000     0.40237    0.00112     0.40348
      H   29    0.10273      0.00000     0.39546    0.00181     0.39727
      H   30    0.09800      0.00000     0.40077    0.00123     0.40200
      H   31    0.10241      0.00000     0.39562    0.00197     0.39759
      H   32    0.07762      0.00000     0.42067    0.00172     0.42238
      H   33    0.09859      0.00000     0.39928    0.00214     0.40141
      H   34    0.10459      0.00000     0.39448    0.00093     0.39541
      H   35    0.10745      0.00000     0.39156    0.00099     0.39255
      H   36    0.10617      0.00000     0.39296    0.00086     0.39383
      H   37    0.19166      0.00000     0.30462    0.00372     0.30834
      H   38    0.17409      0.00000     0.32370    0.00221     0.32591
      H   39    0.17523      0.00000     0.32239    0.00238     0.32477
 =======================================================================
   * Total *   -0.00000     17.99303    49.76732    0.23965    68.00000

 Normal termination of Gaussian 16 at Fri Dec 11 22:37:53 2020.
