 Gaussian 16, Revision A.03,

 -----------------------------------------------------------
 # opt freq B3LYP/6-31G(d) empiricaldispersion=gd3bj scf=xqc
 -----------------------------------------------------------

 -------------------------------
 CID_106378878_JID_9228_neutraal
 -------------------------------
 Symbolic Z-matrix:
 Charge =  0 Multiplicity = 1

 SCF Done:  E(RB3LYP) =  -855.896107923     A.U. after   14 cycles
 SCF Done:  E(RB3LYP) =  -855.903038817     A.U. after   12 cycles
 SCF Done:  E(RB3LYP) =  -855.905289722     A.U. after   12 cycles
 SCF Done:  E(RB3LYP) =  -855.906955402     A.U. after   12 cycles
 SCF Done:  E(RB3LYP) =  -855.907532937     A.U. after   12 cycles
 SCF Done:  E(RB3LYP) =  -855.907888592     A.U. after   12 cycles
 SCF Done:  E(RB3LYP) =  -855.907990745     A.U. after   12 cycles
 SCF Done:  E(RB3LYP) =  -855.908028153     A.U. after   11 cycles
 SCF Done:  E(RB3LYP) =  -855.908062278     A.U. after   10 cycles
 SCF Done:  E(RB3LYP) =  -855.908076710     A.U. after   11 cycles
 SCF Done:  E(RB3LYP) =  -855.909403645     A.U. after    9 cycles
 SCF Done:  E(RB3LYP) =  -855.909404028     A.U. after    9 cycles
 SCF Done:  E(RB3LYP) =  -855.909404107     A.U. after    7 cycles
 SCF Done:  E(RB3LYP) =  -855.909404123     A.U. after    6 cycles
 SCF Done:  E(RB3LYP) =  -855.909404134     A.U. after    7 cycles
 Optimization completed on the basis of negligible forces.
    -- Stationary point found.
 Normal termination of Gaussian 16 at Mon Dec 14 14:03:11 2020.

 --------------------------------------------------------------------
 #N Geom=AllCheck Guess=TCheck SCRF=Check GenChk RB3LYP/6-31G(d) Freq
 --------------------------------------------------------------------

 Structure from the checkpoint file:  "JID_9228.chk"
 -------------------------------
 CID_106378878_JID_9228_neutraal
 -------------------------------
 Charge =  0 Multiplicity = 1

 SCF Done:  E(RB3LYP) =  -855.909404134     A.U. after    1 cycles

  Exact polarizability: 190.842  -1.068 181.814   7.156  -9.886 137.384
 Approx polarizability: 241.643  -8.269 300.839  19.877 -28.823 209.416

                      1                      2                      3
                      A                      A                      A
 Frequencies --      8.6280                14.1248                21.0920
 Red. masses --      3.7257                 3.4815                 3.6176
 Frc consts  --      0.0002                 0.0004                 0.0009
 IR Inten    --      0.2405                 0.1637                 0.7532

                      4                      5                      6
                      A                      A                      A
 Frequencies --     40.9451                91.3028               109.5348
 Red. masses --      4.4460                 4.0083                 1.0493
 Frc consts  --      0.0044                 0.0197                 0.0074
 IR Inten    --      0.1478                 1.4164                 0.2250

                      7                      8                      9
                      A                      A                      A
 Frequencies --    124.2073               128.2272               142.6164
 Red. masses --      3.7535                 4.2566                 1.0276
 Frc consts  --      0.0341                 0.0412                 0.0123
 IR Inten    --      1.0864                 0.2694                 0.0136

                     10                     11                     12
                      A                      A                      A
 Frequencies --    172.3849               188.2432               216.8865
 Red. masses --      3.9603                 3.7286                 4.9211
 Frc consts  --      0.0693                 0.0778                 0.1364
 IR Inten    --      4.5962                 1.5818                 3.6440

                     13                     14                     15
                      A                      A                      A
 Frequencies --    226.0774               230.8840               255.4465
 Red. masses --      4.2580                 1.0618                 2.3755
 Frc consts  --      0.1282                 0.0333                 0.0913
 IR Inten    --      0.9798                 0.0338                 1.2642

                     16                     17                     18
                      A                      A                      A
 Frequencies --    261.0636               275.7300               285.9363
 Red. masses --      1.1861                 2.9948                 3.1939
 Frc consts  --      0.0476                 0.1342                 0.1539
 IR Inten    --      0.7964                 0.3667                 3.8920

                     19                     20                     21
                      A                      A                      A
 Frequencies --    296.4463               320.4732               366.0250
 Red. masses --      2.2643                 3.8982                 2.8636
 Frc consts  --      0.1172                 0.2359                 0.2260
 IR Inten    --      2.8020                 6.0947                 4.7225

                     22                     23                     24
                      A                      A                      A
 Frequencies --    406.8963               421.0641               454.5527
 Red. masses --      2.1988                 1.4262                 2.7490
 Frc consts  --      0.2145                 0.1490                 0.3347
 IR Inten    --     14.5678                77.6890                 1.5761

                     25                     26                     27
                      A                      A                      A
 Frequencies --    486.1261               511.4454               516.7625
 Red. masses --      3.2305                 1.4419                 1.8501
 Frc consts  --      0.4498                 0.2222                 0.2911
 IR Inten    --     27.7419               266.7536                 4.0758

                     28                     29                     30
                      A                      A                      A
 Frequencies --    548.1687               571.6229               604.1441
 Red. masses --      3.6839                 4.2841                 2.0241
 Frc consts  --      0.6522                 0.8248                 0.4353
 IR Inten    --     12.0221                20.5310                63.2245

                     31                     32                     33
                      A                      A                      A
 Frequencies --    632.2019               643.2379               662.8985
 Red. masses --      4.5150                 4.5383                 4.6054
 Frc consts  --      1.0632                 1.1063                 1.1924
 IR Inten    --      9.7988                 8.8081                 1.1900

                     34                     35                     36
                      A                      A                      A
 Frequencies --    681.4748               703.9272               707.7435
 Red. masses --      2.5148                 3.7905                 4.3032
 Frc consts  --      0.6881                 1.1066                 1.2700
 IR Inten    --      8.6608                11.5694                 6.9286

                     37                     38                     39
                      A                      A                      A
 Frequencies --    754.0188               788.2891               819.2182
 Red. masses --      6.0004                 1.8186                 5.8843
 Frc consts  --      2.0100                 0.6658                 2.3267
 IR Inten    --      2.1712                15.7038                 6.9662

                     40                     41                     42
                      A                      A                      A
 Frequencies --    827.2291               880.1928               930.0886
 Red. masses --      6.9127                 2.8292                 2.4109
 Frc consts  --      2.7871                 1.2914                 1.2288
 IR Inten    --     71.0309                 0.7039                 1.3139

                     43                     44                     45
                      A                      A                      A
 Frequencies --    946.9819               972.0321               979.7583
 Red. masses --      1.1608                 2.6273                 1.5372
 Frc consts  --      0.6133                 1.4626                 0.8694
 IR Inten    --      2.1044                11.4281                 0.0520

                     46                     47                     48
                      A                      A                      A
 Frequencies --    990.9349              1000.1344              1015.6229
 Red. masses --      2.0453                 8.7136                 3.2160
 Frc consts  --      1.1833                 5.1353                 1.9545
 IR Inten    --      4.0297                10.2318                 6.4961

                     49                     50                     51
                      A                      A                      A
 Frequencies --   1031.3551              1063.5403              1078.7787
 Red. masses --      2.8369                 2.5202                 1.4200
 Frc consts  --      1.7779                 1.6795                 0.9736
 IR Inten    --     17.9247                 3.9481                 1.9526

                     52                     53                     54
                      A                      A                      A
 Frequencies --   1084.8968              1098.2542              1114.0951
 Red. masses --      1.5117                 2.0592                 1.5255
 Frc consts  --      1.0483                 1.4634                 1.1156
 IR Inten    --      0.0897                74.7465                 4.9888

                     55                     56                     57
                      A                      A                      A
 Frequencies --   1131.8030              1160.3193              1172.5020
 Red. masses --      2.3654                 2.5545                 2.4961
 Frc consts  --      1.7853                 2.0263                 2.0218
 IR Inten    --      0.1353                10.2347                11.6918

                     58                     59                     60
                      A                      A                      A
 Frequencies --   1210.7230              1229.9450              1259.1018
 Red. masses --      1.8724                 3.8782                 1.8510
 Frc consts  --      1.6171                 3.4566                 1.7290
 IR Inten    --      1.1021                25.2000                58.0068

                     61                     62                     63
                      A                      A                      A
 Frequencies --   1266.0420              1308.8011              1338.6760
 Red. masses --      2.1865                 3.5927                 2.2001
 Frc consts  --      2.0649                 3.6259                 2.3230
 IR Inten    --     87.9003                25.3466                 2.2960

                     64                     65                     66
                      A                      A                      A
 Frequencies --   1361.7909              1369.8844              1378.0027
 Red. masses --      1.9337                 1.3084                 2.0759
 Frc consts  --      2.1128                 1.4467                 2.3225
 IR Inten    --     11.1737                 1.8758                21.5477

                     67                     68                     69
                      A                      A                      A
 Frequencies --   1398.9741              1415.0350              1417.7614
 Red. masses --      1.9883                 1.9639                 1.2406
 Frc consts  --      2.2927                 2.3169                 1.4692
 IR Inten    --      9.5874                40.4100                 2.5858

                     70                     71                     72
                      A                      A                      A
 Frequencies --   1440.5098              1451.3283              1452.4110
 Red. masses --      1.3126                 1.4281                 1.4118
 Frc consts  --      1.6048                 1.7724                 1.7547
 IR Inten    --      0.9718                 2.3519                 1.0222

                     73                     74                     75
                      A                      A                      A
 Frequencies --   1472.3026              1490.4134              1502.6591
 Red. masses --      2.8559                 1.3855                 1.0427
 Frc consts  --      3.6474                 1.8134                 1.3872
 IR Inten    --    142.6111                 7.5736                 2.5092

                     76                     77                     78
                      A                      A                      A
 Frequencies --   1506.4087              1511.9383              1515.9946
 Red. masses --      1.0427                 2.0697                 1.0433
 Frc consts  --      1.3941                 2.7875                 1.4127
 IR Inten    --      7.7328                65.8817                 1.0241

                     79                     80                     81
                      A                      A                      A
 Frequencies --   1520.6876              1521.5078              1523.4786
 Red. masses --      1.0795                 1.0654                 1.0485
 Frc consts  --      1.4708                 1.4531                 1.4337
 IR Inten    --      3.5100                 3.9931                 0.5196

                     82                     83                     84
                      A                      A                      A
 Frequencies --   1529.7668              1545.5426              1563.1975
 Red. masses --      1.0517                 1.1082                 2.7039
 Frc consts  --      1.4501                 1.5597                 3.8928
 IR Inten    --      5.7640                27.6291               136.5726

                     85                     86                     87
                      A                      A                      A
 Frequencies --   1624.2472              1624.4731              1645.4626
 Red. masses --      5.6749                 8.0715                 3.3659
 Frc consts  --      8.8209                12.5497                 5.3695
 IR Inten    --    231.6897                84.2113               391.1070

                     88                     89                     90
                      A                      A                      A
 Frequencies --   1673.0513              1696.4391              3046.8467
 Red. masses --      1.5592                 7.4399                 1.0382
 Frc consts  --      2.5713                12.6151                 5.6784
 IR Inten    --    410.9157                20.7112                27.1061

                     91                     92                     93
                      A                      A                      A
 Frequencies --   3046.8941              3050.5824              3053.2176
 Red. masses --      1.0346                 1.0356                 1.0366
 Frc consts  --      5.6591                 5.6779                 5.6932
 IR Inten    --     33.6977                31.4641                27.7247

                     94                     95                     96
                      A                      A                      A
 Frequencies --   3078.1886              3087.4601              3097.9229
 Red. masses --      1.0850                 1.0623                 1.1017
 Frc consts  --      6.0570                 5.9661                 6.2298
 IR Inten    --      8.2346                21.8615                14.1711

                     97                     98                     99
                      A                      A                      A
 Frequencies --   3108.0400              3112.0724              3114.7575
 Red. masses --      1.1015                 1.1029                 1.1024
 Frc consts  --      6.2692                 6.2935                 6.3016
 IR Inten    --     15.8929                18.8744                57.8138

                    100                    101                    102
                      A                      A                      A
 Frequencies --   3129.0235              3133.4992              3135.4947
 Red. masses --      1.1025                 1.1015                 1.1010
 Frc consts  --      6.3599                 6.3720                 6.3778
 IR Inten    --      5.0884                17.4830                48.9459

                    103                    104                    105
                      A                      A                      A
 Frequencies --   3142.8982              3143.9649              3236.7155
 Red. masses --      1.1036                 1.0987                 1.0911
 Frc consts  --      6.4226                 6.3984                 6.7346
 IR Inten    --      5.8575                13.4400                 7.7771

                    106                    107                    108
                      A                      A                      A
 Frequencies --   3576.0314              3596.7861              3691.0740
 Red. masses --      1.0464                 1.0759                 1.1011
 Frc consts  --      7.8842                 8.2005                 8.8382
 IR Inten    --     39.0930                28.4264                21.4125

 - Thermochemistry -
 -------------------
 Temperature   298.150 Kelvin.  Pressure   1.00000 Atm.
 Atom     1 has atomic number  6 and mass  12.00000

 Molecular mass:   261.15896 amu.
 Principal axes and moments of inertia in atomic units:
                           1         2         3
     Eigenvalues --  3008.636769075.476409834.67109
           X            0.99988   0.01454  -0.00564
           Y           -0.01437   0.99947   0.02908
           Z            0.00606  -0.02900   0.99956
 This molecule is an asymmetric top.
 Rotational symmetry number  1.
 Warning -- assumption of classical behavior for rotation
           may cause significant error
 Rotational temperatures (Kelvin)      0.02879     0.00954     0.00881
 Rotational constants (GHZ):           0.59985     0.19886     0.18351
 Zero-point vibrational energy     840476.0 (Joules/Mol)
                                  200.87859 (Kcal/Mol)
 Warning -- explicit consideration of  30 degrees of freedom as
           vibrations may cause significant error
 Vibrational temperatures:     12.41    20.32    30.35    58.91   131.36
          (Kelvin)            157.60   178.71   184.49   205.19   248.02
                              270.84   312.05   325.27   332.19   367.53
                              375.61   396.71   411.40   426.52   461.09
                              526.63   585.43   605.82   654.00   699.43
                              735.86   743.51   788.69   822.44   869.23
                              909.60   925.48   953.76   980.49  1012.79
                             1018.29  1084.86  1134.17  1178.67  1190.20
                             1266.40  1338.19  1362.50  1398.54  1409.65
                             1425.73  1438.97  1461.25  1483.89  1530.20
                             1552.12  1560.92  1580.14  1602.93  1628.41
                             1669.44  1686.97  1741.96  1769.62  1811.57
                             1821.55  1883.07  1926.06  1959.31  1970.96
                             1982.64  2012.81  2035.92  2039.84  2072.57
                             2088.14  2089.70  2118.32  2144.37  2161.99
                             2167.39  2175.34  2181.18  2187.93  2189.11
                             2191.95  2200.99  2223.69  2249.09  2336.93
                             2337.25  2367.45  2407.15  2440.80  4383.73
                             4383.80  4389.11  4392.90  4428.83  4442.17
                             4457.22  4471.78  4477.58  4481.44  4501.97
                             4508.41  4511.28  4521.93  4523.46  4656.91
                             5145.11  5174.97  5310.63

 Zero-point correction=                           0.320120 (Hartree/Particle)
 Thermal correction to Energy=                    0.339678
 Thermal correction to Enthalpy=                  0.340623
 Thermal correction to Gibbs Free Energy=         0.268811
 Sum of electronic and zero-point Energies=           -855.589284
 Sum of electronic and thermal Energies=              -855.569726
 Sum of electronic and thermal Enthalpies=            -855.568782
 Sum of electronic and thermal Free Energies=         -855.640593

                     E (Thermal)             CV                S
                      KCal/Mol        Cal/Mol-Kelvin    Cal/Mol-Kelvin
 Total                  213.151             72.480            151.141
 Electronic               0.000              0.000              0.000
 Translational            0.889              2.981             42.579
 Rotational               0.889              2.981             33.951
 Vibrational            211.374             66.518             74.611
 Vibration     1          0.593              1.987              8.304
 Vibration     2          0.593              1.986              7.325
 Vibration     3          0.593              1.985              6.529
 Vibration     4          0.594              1.981              5.213
 Vibration     5          0.602              1.955              3.632
 Vibration     6          0.606              1.942              3.277
 Vibration     7          0.610              1.929              3.034
 Vibration     8          0.611              1.925              2.972
 Vibration     9          0.616              1.911              2.768
 Vibration    10          0.626              1.876              2.409
 Vibration    11          0.633              1.856              2.245
 Vibration    12          0.646              1.815              1.985
 Vibration    13          0.650              1.801              1.910
 Vibration    14          0.653              1.794              1.872
 Vibration    15          0.666              1.754              1.693
 Vibration    16          0.669              1.744              1.655
 Vibration    17          0.677              1.718              1.560
 Vibration    18          0.684              1.700              1.498
 Vibration    19          0.690              1.680              1.437
 Vibration    20          0.706              1.634              1.308
 Vibration    21          0.739              1.542              1.096
 Vibration    22          0.772              1.455              0.938
 Vibration    23          0.784              1.424              0.888
 Vibration    24          0.813              1.351              0.782
 Vibration    25          0.842              1.281              0.694
 Vibration    26          0.867              1.225              0.630
 Vibration    27          0.872              1.213              0.618
 Vibration    28          0.903              1.144              0.548
 Vibration    29          0.928              1.093              0.501
 Vibration    30          0.963              1.023              0.443

 Optimization completed.
    -- Stationary point found.
 Normal termination of Gaussian 16 at Mon Dec 14 14:21:33 2020.

 ----------------------------------------------------------------------
 # B3LYP/6-311++G(d,p) empiricaldispersion=gd3bj scf=xqc pop=npa geom=c
 heck
 ----------------------------------------------------------------------

 ---------------------------------------
 CID_106378878_JID_9228_Energie_neutraal
 ---------------------------------------
 Structure from the checkpoint file:  "JID_9228.chk"
 Charge =  0 Multiplicity = 1

 SCF Done:  E(RB3LYP) =  -856.148487778     A.U. after   15 cycles
 Normal termination of Gaussian 16 at Mon Dec 14 14:29:57 2020.

 ----------------------------------------------------------------------
 # B3LYP/6-311++G(d,p) empiricaldispersion=gd3bj scf=xqc pop=npa geom=c
 heck
 ----------------------------------------------------------------------

 -------------------------------------
 CID_106378878_JID_9228_Energie_kation
 -------------------------------------
 Structure from the checkpoint file:  "JID_9228.chk"
 Charge =  1 Multiplicity = 2

 SCF Done:  E(UB3LYP) =  -855.863094363     A.U. after   29 cycles
 Normal termination of Gaussian 16 at Mon Dec 14 14:52:17 2020.
 Gaussian 16:  ES64L-G16RevA.03 25-Dec-2016

 ----------------------------------------------------------------------
 # B3LYP/6-311++G(d,p) empiricaldispersion=gd3bj scf=xqc pop=npa geom=c
 heck
 ----------------------------------------------------------------------

 ------------------------------------
 CID_106378878_JID_9228_Energie_anion
 ------------------------------------
 Structure from the checkpoint file:  "JID_9228.chk"
 Charge = -1 Multiplicity = 2

                         Standard orientation:
 ---------------------------------------------------------------------
 Center     Atomic      Atomic             Coordinates (Angstroms)
 Number     Number       Type             X           Y           Z
 ---------------------------------------------------------------------
      1          6           0       -4.646123    1.661108    1.328582
      2          6           0       -3.710547    0.845440    0.499445
      3          6           0       -3.369435   -0.469063    0.609225
      4          8           0       -2.469273   -0.746053   -0.401581
      5          6           0       -2.313426    0.433165   -1.067973
      6          7           0       -3.022426    1.403868   -0.581965
      7          6           0       -1.310482    0.489663   -2.180273
      8          7           0        0.026488    0.877701   -1.759461
      9          6           0        0.854917    0.086367   -0.998159
     10          7           0        1.899781    0.738691   -0.447687
     11          6           0        2.761793    0.005374    0.260791
     12          7           0        2.694570   -1.313093    0.478540
     13          6           0        1.638297   -1.950014   -0.065304
     14          6           0        0.667756   -1.288755   -0.826128
     15          7           0        1.543475   -3.293701    0.214163
     16          6           0        3.931032    0.745558    0.879549
     17          6           0        4.793541    1.401997   -0.209490
     18          6           0        3.430059    1.787762    1.891879
     19          6           0       -3.731725   -1.584506    1.519229
     20          1           0       -5.455578    2.071470    0.714001
     21          1           0       -4.123044    2.508961    1.785380
     22          1           0       -5.093217    1.063871    2.128748
     23          1           0       -1.262261   -0.478495   -2.687641
     24          1           0       -1.653920    1.228400   -2.907660
     25          1           0        0.176183    1.864864   -1.591096
     26          1           0       -0.194699   -1.814898   -1.213940
     27          1           0        2.399332   -3.705800    0.561631
     28          1           0        1.013857   -3.869667   -0.424559
     29          1           0        4.527404   -0.007077    1.405763
     30          1           0        4.199099    2.123719   -0.778407
     31          1           0        5.645478    1.926268    0.238696
     32          1           0        5.182711    0.654678   -0.910136
     33          1           0        2.845454    1.315353    2.689224
     34          1           0        4.274562    2.313234    2.352526
     35          1           0        2.791913    2.523535    1.392305
     36          1           0       -4.202687   -2.412479    0.975228
     37          1           0       -2.847895   -1.983635    2.031261
     38          1           0       -4.435662   -1.232715    2.277966
 ---------------------------------------------------------------------

 SCF Done:  E(UB3LYP) =  -856.139313716     A.U. after   33 cycles
 SCF Done:  E(UB3LYP) =  -856.139313715     a.u. after    1 cycles

 The electronic state is 2-A.
 Alpha  occ. eigenvalues --  -19.10252 -14.24623 -14.22639 -14.21806 -14.20200
 Alpha  occ. eigenvalues --  -14.20125 -10.16753 -10.15884 -10.15552 -10.14315
 Alpha  occ. eigenvalues --  -10.13906 -10.13752 -10.10922 -10.08981 -10.08441
 Alpha  occ. eigenvalues --  -10.08228 -10.07669 -10.07561 -10.07159  -1.03741
 Alpha  occ. eigenvalues --   -0.90097  -0.86174  -0.83118  -0.82178  -0.76038
 Alpha  occ. eigenvalues --   -0.72128  -0.71264  -0.66730  -0.64738  -0.64362
 Alpha  occ. eigenvalues --   -0.60156  -0.57850  -0.56459  -0.53702  -0.51178
 Alpha  occ. eigenvalues --   -0.49096  -0.48246  -0.46548  -0.44036  -0.41637
 Alpha  occ. eigenvalues --   -0.40538  -0.39484  -0.37796  -0.37257  -0.35829
 Alpha  occ. eigenvalues --   -0.35612  -0.34998  -0.34872  -0.34588  -0.33657
 Alpha  occ. eigenvalues --   -0.32700  -0.31957  -0.31586  -0.31334  -0.31068
 Alpha  occ. eigenvalues --   -0.30249  -0.29765  -0.28612  -0.27302  -0.26589
 Alpha  occ. eigenvalues --   -0.26286  -0.25031  -0.22338  -0.21531  -0.20296
 Alpha  occ. eigenvalues --   -0.20132  -0.16387  -0.15078  -0.14037  -0.13325
 Alpha  occ. eigenvalues --    0.03929
 Alpha virt. eigenvalues --    0.05786   0.06276   0.06816   0.07516   0.07729
 Alpha virt. eigenvalues --    0.07997   0.08506   0.08671   0.09050   0.09168
 Alpha virt. eigenvalues --    0.09589   0.09809   0.10518   0.10824   0.11051

  Beta  occ. eigenvalues --  -19.10243 -14.24620 -14.22578 -14.21797 -14.20196
  Beta  occ. eigenvalues --  -14.20121 -10.16745 -10.15884 -10.15539 -10.14306
  Beta  occ. eigenvalues --  -10.13890 -10.13748 -10.10921 -10.08981 -10.08394
  Beta  occ. eigenvalues --  -10.08198 -10.07665 -10.07559 -10.07141  -1.03728
  Beta  occ. eigenvalues --   -0.90083  -0.86152  -0.83102  -0.82136  -0.76008
  Beta  occ. eigenvalues --   -0.72108  -0.71246  -0.66703  -0.64695  -0.64324
  Beta  occ. eigenvalues --   -0.60149  -0.57807  -0.56420  -0.53667  -0.51150
  Beta  occ. eigenvalues --   -0.49067  -0.48210  -0.46524  -0.44004  -0.41603
  Beta  occ. eigenvalues --   -0.40501  -0.39426  -0.37767  -0.37224  -0.35799
  Beta  occ. eigenvalues --   -0.35583  -0.34976  -0.34850  -0.34559  -0.33619
  Beta  occ. eigenvalues --   -0.32670  -0.31927  -0.31550  -0.31299  -0.31039
  Beta  occ. eigenvalues --   -0.30241  -0.29731  -0.28582  -0.27287  -0.26556
  Beta  occ. eigenvalues --   -0.26278  -0.25027  -0.22320  -0.21499  -0.20275
  Beta  occ. eigenvalues --   -0.20119  -0.16374  -0.15053  -0.13997  -0.13291
  Beta virt. eigenvalues --    0.05957   0.06370   0.06938   0.07231   0.07629
  Beta virt. eigenvalues --    0.08033   0.08308   0.08594   0.08736   0.09031
  Beta virt. eigenvalues --    0.09502   0.09757   0.10345   0.10536   0.10985

 Mulliken charges and spin densities:
               1          2
     1  C    0.710354  -1.239649
     2  C   -0.271530   0.503467
     3  C   -0.780053   1.207734
     4  O    0.083418   0.028135
     5  C   -0.891316   0.830126
     6  N    0.026587   0.057166
     7  C    0.427470  -1.474452
     8  N    0.092953   0.038070
     9  C   -0.453347  -0.091649
    10  N   -0.086706   0.074725
    11  C   -0.392787  -0.114179
    12  N    0.005727  -0.085298
    13  C   -0.188765  -0.103523
    14  C    0.878291  -0.249692
    15  N   -0.343075   0.071650
    16  C    0.119233  -0.103370
    17  C   -0.476319  -0.077536
    18  C   -0.461319  -0.091118
    19  C    1.591823  -2.178467
    20  H   -0.067136   0.221201
    21  H   -0.018392   0.174698
    22  H   -0.205334   0.333510
    23  H   -0.291958   0.508192
    24  H    0.092343   0.092078
    25  H    0.247714   0.033514
    26  H    0.071627   0.160383
    27  H    0.014050   0.261400
    28  H   -0.545909   0.811299
    29  H    0.155955   0.009259
    30  H    0.151761   0.004347
    31  H    0.119183   0.016630
    32  H    0.077897   0.058021
    33  H    0.095886   0.039367
    34  H    0.125874   0.007875
    35  H    0.149533   0.007408
    36  H   -0.373354   0.543105
    37  H   -0.071778   0.237115
    38  H   -0.318600   0.478455
 Sum of Mulliken charges =  -1.00000   1.00000

 Dipole moment (field-independent basis, Debye):
    X=              4.9461    Y=              6.5657    Z=             -0.9844  Tot=              8.2789
 Quadrupole moment (field-independent basis, Debye-Ang):
   XX=           -191.9337   YY=           -174.8377   ZZ=           -148.4986
   XY=              1.1371   XZ=             11.0905   YZ=             -2.3897

 Summary of Natural Population Analysis:

                                       Natural Population
                Natural  -----------------------------------------------
    Atom  No    Charge         Core      Valence    Rydberg      Total
 -----------------------------------------------------------------------
      C    1   -0.29359      0.99963     2.28895    0.00501     3.29359
      C    2    0.03737      0.99946     1.95048    0.01269     2.96263
      C    3    0.13793      0.99939     1.84851    0.01416     2.86207
      O    4   -0.23816      0.99985     3.23024    0.00807     4.23816
      C    5    0.25841      0.99959     1.72258    0.01942     2.74159
      N    6   -0.25393      0.99967     2.74529    0.00898     3.75393
      C    7   -0.11690      0.99957     2.10551    0.01182     3.11690
      N    8   -0.30307      0.99967     2.79377    0.00963     3.80307
      C    9    0.21866      0.99953     1.76653    0.01527     2.78134
      N   10   -0.29759      0.99963     2.78822    0.00974     3.79759
      C   11    0.23825      0.99959     1.74178    0.02038     2.76175
      N   12   -0.29274      0.99964     2.78328    0.00981     3.79274
      C   13    0.21882      0.99955     1.76608    0.01555     2.78118
      C   14   -0.19344      0.99946     2.18521    0.00877     3.19344
      N   15   -0.38414      0.99970     2.87482    0.00962     3.88414
      C   16   -0.12948      0.99957     2.12029    0.00961     3.12948
      C   17   -0.28122      0.99965     2.27697    0.00460     3.28122
      C   18   -0.28117      0.99965     2.27692    0.00459     3.28117
      C   19   -0.30646      0.99963     2.30125    0.00557     3.30646
      H   20    0.10441      0.00000     0.39410    0.00149     0.39559
      H   21    0.10482      0.00000     0.39373    0.00146     0.39518
      H   22    0.10601      0.00000     0.39265    0.00134     0.39399
      H   23    0.10955      0.00000     0.38896    0.00149     0.39045
      H   24    0.11109      0.00000     0.38795    0.00096     0.38891
      H   25    0.19376      0.00000     0.30373    0.00251     0.30624
      H   26    0.11371      0.00000     0.38353    0.00276     0.38629
      H   27    0.19249      0.00000     0.30495    0.00256     0.30751
      H   28    0.19582      0.00000     0.29467    0.00952     0.30418
      H   29    0.10202      0.00000     0.39633    0.00165     0.39798
      H   30    0.10398      0.00000     0.39503    0.00098     0.39602
      H   31    0.09318      0.00000     0.40600    0.00082     0.40682
      H   32    0.10000      0.00000     0.39926    0.00075     0.40000
      H   33    0.10128      0.00000     0.39799    0.00073     0.39872
      H   34    0.09302      0.00000     0.40619    0.00080     0.40698
      H   35    0.10395      0.00000     0.39507    0.00099     0.39605
      H   36    0.11146      0.00000     0.38661    0.00192     0.38854
      H   37    0.11146      0.00000     0.38717    0.00137     0.38854
      H   38    0.11043      0.00000     0.38794    0.00163     0.38957
 =======================================================================
   * Total *   -0.00000     18.99245    50.76855    0.23900    70.00000

 Normal termination of Gaussian 16 at Mon Dec 14 15:17:36 2020.
