 Gaussian 16, Revision A.03,

 -----------------------------------------------------------
 # opt freq B3LYP/6-31G(d) empiricaldispersion=gd3bj scf=xqc
 -----------------------------------------------------------

 ------------------------------
 CID_45099570_JID_2501_neutraal
 ------------------------------
 Symbolic Z-matrix:
 Charge =  0 Multiplicity = 1

 SCF Done:  E(RB3LYP) =  -535.831424952     A.U. after   13 cycles
 SCF Done:  E(RB3LYP) =  -535.836644116     A.U. after   11 cycles
 SCF Done:  E(RB3LYP) =  -535.837561284     A.U. after   11 cycles
 SCF Done:  E(RB3LYP) =  -535.837864820     A.U. after   10 cycles
 SCF Done:  E(RB3LYP) =  -535.837376325     A.U. after   11 cycles
 SCF Done:  E(RB3LYP) =  -535.838052769     A.U. after   10 cycles
 SCF Done:  E(RB3LYP) =  -535.838074013     A.U. after   10 cycles
 SCF Done:  E(RB3LYP) =  -535.838093822     A.U. after    9 cycles
 SCF Done:  E(RB3LYP) =  -535.838096848     A.U. after    8 cycles
 SCF Done:  E(RB3LYP) =  -535.838097412     A.U. after    9 cycles
 SCF Done:  E(RB3LYP) =  -535.838097205     A.U. after    8 cycles
 SCF Done:  E(RB3LYP) =  -535.838097372     A.U. after    7 cycles
 SCF Done:  E(RB3LYP) =  -535.838097329     A.U. after    7 cycles
 Optimization completed.
    -- Stationary point found.

 1\1\GINC-NODE362\FOpt\RB3LYP\6-31G(d)\C8H20N4\VSC10255\09-Dec-2020\0\\
 # opt freq B3LYP/6-31G(d) empiricaldispersion=gd3bj scf=xqc\\CID_45099
 570_JID_2501_neutraal\\0,1\C,0.9489594215,-0.051045553,0.2036703474\N,
 0.4545571205,1.3064359468,0.0207653138\C,-0.8952755007,1.3145665357,-0
 .5396370084\N,0.670500724,2.0573190273,1.2114929569\C,1.0666064415,3.4
 443907466,0.9674512495\C,-0.1005604981,4.4450787779,0.9815939103\N,-0.
 9335555391,4.3685924352,2.2027377296\C,-1.4292802182,2.9757223291,2.26
 97339625\C,-0.3078827447,1.9238162258,2.3002555646\N,-0.0988032476,4.6

 Normal termination of Gaussian 16 at Wed Dec  9 17:04:26 2020.

 --------------------------------------------------------------------
 #N Geom=AllCheck Guess=TCheck SCRF=Check GenChk RB3LYP/6-31G(d) Freq
 --------------------------------------------------------------------

 Structure from the checkpoint file:  "JID_2501.chk"
 ------------------------------
 CID_45099570_JID_2501_neutraal
 ------------------------------
 Charge =  0 Multiplicity = 1

 SCF Done:  E(RB3LYP) =  -535.838097329     A.U. after    1 cycles

  Exact polarizability: 137.998   1.113 104.809  -4.869   0.170  94.618
 Approx polarizability: 166.034   1.049 153.526  -8.565   0.295 143.229

                      1                      2                      3
                      A                      A                      A
 Frequencies --     28.5577                82.0689               100.7828
 Red. masses --      2.6754                 3.2909                 2.7680
 Frc consts  --      0.0013                 0.0131                 0.0166
 IR Inten    --      0.5394                 0.2413                 0.3959

                      4                      5                      6
                      A                      A                      A
 Frequencies --    135.3295               162.7703               236.3766
 Red. masses --      2.8752                 3.9933                 1.1603
 Frc consts  --      0.0310                 0.0623                 0.0382
 IR Inten    --      0.1395                 0.2285                 0.2560

                      7                      8                      9
                      A                      A                      A
 Frequencies --    244.3090               260.0154               291.4669
 Red. masses --      1.1329                 1.1792                 1.4251
 Frc consts  --      0.0398                 0.0470                 0.0713
 IR Inten    --      0.2393                 0.2149                 1.5222

                     10                     11                     12
                      A                      A                      A
 Frequencies --    293.8593               312.7028               338.8783
 Red. masses --      1.4217                 2.2790                 2.6316
 Frc consts  --      0.0723                 0.1313                 0.1781
 IR Inten    --      1.2541                 3.2220                 3.4060

                     13                     14                     15
                      A                      A                      A
 Frequencies --    396.1353               415.5993               446.3615
 Red. masses --      2.4235                 2.3710                 2.1489
 Frc consts  --      0.2241                 0.2413                 0.2523
 IR Inten    --      0.1748                 6.7484                 3.0838

                     16                     17                     18
                      A                      A                      A
 Frequencies --    462.5216               492.8873               497.3025
 Red. masses --      2.0174                 2.5295                 2.3051
 Frc consts  --      0.2543                 0.3621                 0.3359
 IR Inten    --      1.2199                 4.9677                 3.3353

                     19                     20                     21
                      A                      A                      A
 Frequencies --    502.8338               551.3655               566.4770
 Red. masses --      2.1404                 3.1792                 3.7598
 Frc consts  --      0.3189                 0.5694                 0.7109
 IR Inten    --      2.2719                 3.4045                 4.6656

                     22                     23                     24
                      A                      A                      A
 Frequencies --    670.5533               708.0577               749.2138
 Red. masses --      1.9310                 3.4534                 3.9948
 Frc consts  --      0.5116                 1.0201                 1.3212
 IR Inten    --     23.0441                 7.6830                 3.7983

                     25                     26                     27
                      A                      A                      A
 Frequencies --    822.9119               859.6527               898.0323
 Red. masses --      1.6578                 3.3952                 2.7347
 Frc consts  --      0.6614                 1.4783                 1.2994
 IR Inten    --      0.1912                 4.0317                 1.8471

                     28                     29                     30
                      A                      A                      A
 Frequencies --    912.3457               970.6102              1010.8728
 Red. masses --      3.2807                 3.0683                 2.9891
 Frc consts  --      1.6089                 1.7031                 1.7996
 IR Inten    --     58.7758                 8.2022                 0.7096

                     31                     32                     33
                      A                      A                      A
 Frequencies --   1030.1434              1035.4637              1039.6750
 Red. masses --      2.5815                 1.7323                 1.8523
 Frc consts  --      1.6141                 1.0943                 1.1797
 IR Inten    --      9.0084                 5.7561                 6.2972

                     34                     35                     36
                      A                      A                      A
 Frequencies --   1059.3392              1074.7268              1113.6681
 Red. masses --      1.7808                 2.2043                 1.4519
 Frc consts  --      1.1775                 1.5001                 1.0609
 IR Inten    --     33.9179                10.6855                 0.3306

                     37                     38                     39
                      A                      A                      A
 Frequencies --   1125.2752              1141.8394              1169.5342
 Red. masses --      1.2303                 2.2386                 2.2608
 Frc consts  --      0.9178                 1.7197                 1.8219
 IR Inten    --      4.1351                14.4427                 0.3042

                     40                     41                     42
                      A                      A                      A
 Frequencies --   1180.1512              1204.5173              1212.3713
 Red. masses --      2.0813                 1.5988                 1.8146
 Frc consts  --      1.7079                 1.3667                 1.5714
 IR Inten    --      6.7898                 3.5444                 0.1115

                     43                     44                     45
                      A                      A                      A
 Frequencies --   1232.0335              1253.4118              1254.7784
 Red. masses --      1.5897                 2.5852                 1.6999
 Frc consts  --      1.4217                 2.3930                 1.5769
 IR Inten    --      7.7764                 4.7454                 0.8156

                     46                     47                     48
                      A                      A                      A
 Frequencies --   1284.4639              1289.9883              1313.3139
 Red. masses --      1.9952                 1.5181                 1.9363
 Frc consts  --      1.9394                 1.4884                 1.9677
 IR Inten    --     10.6063                 5.4773                 0.0304

                     49                     50                     51
                      A                      A                      A
 Frequencies --   1338.3978              1370.9383              1373.1768
 Red. masses --      1.2999                 1.5536                 1.3591
 Frc consts  --      1.3720                 1.7203                 1.5099
 IR Inten    --      0.8186                 2.6262                 0.6795

                     52                     53                     54
                      A                      A                      A
 Frequencies --   1398.9695              1410.1123              1420.5810
 Red. masses --      1.2355                 1.2819                 1.3217
 Frc consts  --      1.4246                 1.5019                 1.5715
 IR Inten    --     10.0546                 6.4871                17.9471

                     55                     56                     57
                      A                      A                      A
 Frequencies --   1451.6457              1455.6518              1482.4247
 Red. masses --      1.1637                 1.1639                 1.1605
 Frc consts  --      1.4448                 1.4531                 1.5026
 IR Inten    --      1.4896                 0.7350                 1.9164

                     58                     59                     60
                      A                      A                      A
 Frequencies --   1485.2292              1488.7841              1499.2880
 Red. masses --      1.1588                 1.0937                 1.0897
 Frc consts  --      1.5061                 1.4282                 1.4432
 IR Inten    --      0.3864                 3.7245                 7.7356

                     61                     62                     63
                      A                      A                      A
 Frequencies --   1502.5998              1508.2089              1521.1347
 Red. masses --      1.0641                 1.0591                 1.0727
 Frc consts  --      1.4155                 1.4195                 1.4624
 IR Inten    --      0.4454                 7.2559                12.3302

                     64                     65                     66
                      A                      A                      A
 Frequencies --   1524.4240              1527.4288              1530.6740
 Red. masses --      1.0585                 1.0613                 1.0512
 Frc consts  --      1.4492                 1.4589                 1.4511
 IR Inten    --      4.5561                 8.4728                 7.0891

                     67                     68                     69
                      A                      A                      A
 Frequencies --   1540.7668              1541.8278              1544.9591
 Red. masses --      1.0526                 1.0701                 1.0532
 Frc consts  --      1.4723                 1.4988                 1.4811
 IR Inten    --      9.1846                11.1713                 8.6703

                     70                     71                     72
                      A                      A                      A
 Frequencies --   1563.5220              2947.4277              2962.0899
 Red. masses --      1.0556                 1.0607                 1.0603
 Frc consts  --      1.5204                 5.4291                 5.4814
 IR Inten    --      4.2814                55.9658                85.4913

                     73                     74                     75
                      A                      A                      A
 Frequencies --   2979.2989              2989.8428              3048.6907
 Red. masses --      1.0557                 1.0565                 1.0674
 Frc consts  --      5.5209                 5.5644                 5.8454
 IR Inten    --     42.4068               103.7863                31.7577

                     76                     77                     78
                      A                      A                      A
 Frequencies --   3061.1739              3077.8319              3079.5216
 Red. masses --      1.0618                 1.0648                 1.0732
 Frc consts  --      5.8621                 5.9432                 5.9964
 IR Inten    --     27.7612                14.0992                26.3270

                     79                     80                     81
                      A                      A                      A
 Frequencies --   3086.3470              3089.7141              3104.7646
 Red. masses --      1.0662                 1.0740                 1.0916
 Frc consts  --      5.9840                 6.0406                 6.1996
 IR Inten    --     36.3555                66.3481                 6.0075

                     82                     83                     84
                      A                      A                      A
 Frequencies --   3106.7561              3112.4529              3119.2789
 Red. masses --      1.0867                 1.0818                 1.0974
 Frc consts  --      6.1799                 6.1743                 6.2909
 IR Inten    --     23.9121                36.0110                32.2564

                     85                     86                     87
                      A                      A                      A
 Frequencies --   3126.2737              3128.8481              3140.4893
 Red. masses --      1.1016                 1.0992                 1.1017
 Frc consts  --      6.3434                 6.3403                 6.4022
 IR Inten    --     53.8220                50.2506                49.4634

                     88                     89                     90
                      A                      A                      A
 Frequencies --   3146.1522              3148.0088              3153.5908
 Red. masses --      1.1017                 1.0985                 1.0999
 Frc consts  --      6.4247                 6.4136                 6.4446
 IR Inten    --     27.9592                28.4295                20.4227

 - Thermochemistry -
 -------------------
 Temperature   298.150 Kelvin.  Pressure   1.00000 Atm.
 Atom     1 has atomic number  6 and mass  12.00000

 Molecular mass:   172.16880 amu.
 Principal axes and moments of inertia in atomic units:
                           1         2         3
     Eigenvalues --   888.190193306.394433478.15945
           X            0.99996   0.00697  -0.00639
           Y           -0.00692   0.99994   0.00877
           Z            0.00645  -0.00872   0.99994
 This molecule is an asymmetric top.
 Rotational symmetry number  1.
 Warning -- assumption of classical behavior for rotation
           may cause significant error
 Rotational temperatures (Kelvin)      0.09752     0.02620     0.02490
 Rotational constants (GHZ):           2.03193     0.54583     0.51888
 Zero-point vibrational energy     774730.6 (Joules/Mol)
                                  185.16506 (Kcal/Mol)
 Warning -- explicit consideration of  21 degrees of freedom as
           vibrations may cause significant error
 Vibrational temperatures:     41.09   118.08   145.00   194.71   234.19
          (Kelvin)            340.09   351.51   374.10   419.36   422.80
                              449.91   487.57   569.95   597.95   642.21
                              665.47   709.15   715.51   723.47   793.29
                              815.03   964.78  1018.74  1077.95  1183.99
                             1236.85  1292.07  1312.66  1396.49  1454.42
                             1482.15  1489.80  1495.86  1524.15  1546.29
                             1602.32  1619.02  1642.85  1682.70  1697.97
                             1733.03  1744.33  1772.62  1803.38  1805.35
                             1848.06  1856.01  1889.57  1925.66  1972.47
                             1975.70  2012.81  2028.84  2043.90  2088.59
                             2094.36  2132.88  2136.91  2142.03  2157.14
                             2161.91  2169.98  2188.57  2193.31  2197.63
                             2202.30  2216.82  2218.35  2222.85  2249.56
                             4240.69  4261.79  4286.55  4301.72  4386.39
                             4404.35  4428.31  4430.74  4440.56  4445.41
                             4467.06  4469.93  4478.13  4487.95  4498.01
                             4501.71  4518.46  4526.61  4529.28  4537.31

 Zero-point correction=                           0.295079 (Hartree/Particle)
 Thermal correction to Energy=                    0.308005
 Thermal correction to Enthalpy=                  0.308950
 Thermal correction to Gibbs Free Energy=         0.256307
 Sum of electronic and zero-point Energies=           -535.543018
 Sum of electronic and thermal Energies=              -535.530092
 Sum of electronic and thermal Enthalpies=            -535.529148
 Sum of electronic and thermal Free Energies=         -535.581790

                     E (Thermal)             CV                S
                      KCal/Mol        Cal/Mol-Kelvin    Cal/Mol-Kelvin
 Total                  193.276             50.652            110.796
 Electronic               0.000              0.000              0.000
 Translational            0.889              2.981             41.337
 Rotational               0.889              2.981             30.702
 Vibrational            191.499             44.691             38.756
 Vibration     1          0.593              1.984              5.927
 Vibration     2          0.600              1.961              3.841
 Vibration     3          0.604              1.948              3.439
 Vibration     4          0.613              1.918              2.869
 Vibration     5          0.623              1.888              2.517
 Vibration     6          0.655              1.785              1.830
 Vibration     7          0.660              1.772              1.771
 Vibration     8          0.668              1.746              1.662
 Vibration     9          0.687              1.690              1.465
 Vibration    10          0.689              1.685              1.452
 Vibration    11          0.701              1.649              1.348
 Vibration    12          0.719              1.598              1.217
 Vibration    13          0.763              1.478              0.977
 Vibration    14          0.779              1.436              0.907
 Vibration    15          0.806              1.369              0.807
 Vibration    16          0.820              1.333              0.759
 Vibration    17          0.849              1.266              0.676
 Vibration    18          0.853              1.256              0.665
 Vibration    19          0.858              1.244              0.651
 Vibration    20          0.907              1.137              0.541
 Vibration    21          0.922              1.104              0.511

 Optimization completed.
    -- Stationary point found.

 1\1\GINC-NODE362\Freq\RB3LYP\6-31G(d)\C8H20N4\VSC10255\09-Dec-2020\0\\
 #N Geom=AllCheck Guess=TCheck SCRF=Check GenChk RB3LYP/6-31G(d) Freq\\
 CID_45099570_JID_2501_neutraal\\0,1\C,0.9489594215,-0.051045553,0.2036
 703474\N,0.4545571205,1.3064359468,0.0207653138\C,-0.8952755007,1.3145
 665357,-0.5396370084\N,0.670500724,2.0573190273,1.2114929569\C,1.06660
 64415,3.4443907466,0.9674512495\C,-0.1005604981,4.4450787779,0.9815939
 103\N,-0.9335555391,4.3685924352,2.2027377296\C,-1.4292802182,2.975722
 3291,2.2697339625\C,-0.3078827447,1.9238162258,2.3002555646\N,-0.09880

 Normal termination of Gaussian 16 at Wed Dec  9 17:12:49 2020.

 ----------------------------------------------------------------------
 # B3LYP/6-311++G(d,p) empiricaldispersion=gd3bj scf=xqc pop=npa geom=c
 heck
 ----------------------------------------------------------------------

 --------------------------------------
 CID_45099570_JID_2501_Energie_neutraal
 --------------------------------------
 Structure from the checkpoint file:  "JID_2501.chk"
 Charge =  0 Multiplicity = 1

 SCF Done:  E(RB3LYP) =  -535.987276239     A.U. after   13 cycles
 Normal termination of Gaussian 16 at Wed Dec  9 17:15:55 2020.

 ----------------------------------------------------------------------
 # B3LYP/6-311++G(d,p) empiricaldispersion=gd3bj scf=xqc pop=npa geom=c
 heck
 ----------------------------------------------------------------------

 ------------------------------------
 CID_45099570_JID_2501_Energie_kation
 ------------------------------------
 Structure from the checkpoint file:  "JID_2501.chk"
 Charge =  1 Multiplicity = 2

 SCF Done:  E(UB3LYP) =  -535.740581364     A.U. after   21 cycles
 Normal termination of Gaussian 16 at Wed Dec  9 17:22:24 2020.
 Gaussian 16:  ES64L-G16RevA.03 25-Dec-2016

 -----------------------------------
 CID_45099570_JID_2501_Energie_anion
 -----------------------------------
 Structure from the checkpoint file:  "JID_2501.chk"
 Charge = -1 Multiplicity = 2

                         Standard orientation:
 ---------------------------------------------------------------------
 Center     Atomic      Atomic             Coordinates (Angstroms)
 Number     Number       Type             X           Y           Z
 ---------------------------------------------------------------------
      1          6           0       -3.502380   -0.229072   -1.007384
      2          7           0       -2.515533    0.353076   -0.108562
      3          6           0       -2.713143   -0.096133    1.268146
      4          7           0       -1.213548    0.197605   -0.664398
      5          6           0       -0.339330    1.349781   -0.443810
      6          6           0        0.569063    1.224705    0.790302
      7          7           0        1.366097   -0.022270    0.817032
      8          6           0        0.387336   -1.131173    0.765266
      9          6           0       -0.527600   -1.087759   -0.470039
     10          7           0        2.245418   -0.088742   -0.384737
     11          6           0        3.147819    1.062308   -0.364096
     12          6           0        3.052828   -1.305035   -0.280036
     13          1           0       -4.506393    0.041962   -0.661412
     14          1           0       -3.453105   -1.333298   -1.064101
     15          1           0       -3.344818    0.175205   -2.009050
     16          1           0       -2.597245   -1.186622    1.407742
     17          1           0       -2.018504    0.418223    1.935541
     18          1           0       -3.730922    0.169185    1.573888
     19          1           0        0.297162    1.459335   -1.331001
     20          1           0       -0.979017    2.232492   -0.368844
     21          1           0       -0.025346    1.211128    1.709430
     22          1           0        1.232585    2.089486    0.870089
     23          1           0       -0.195720   -1.049184    1.686706
     24          1           0        0.911068   -2.089282    0.818015
     25          1           0       -1.276146   -1.885370   -0.421593
     26          1           0        0.084824   -1.269702   -1.360508
     27          1           0        3.635466    1.199506    0.616707
     28          1           0        3.917238    0.903458   -1.123845
     29          1           0        2.618487    1.980838   -0.628178
     30          1           0        3.535394   -1.404967    0.707218
     31          1           0        2.447194   -2.194777   -0.467565
     32          1           0        3.823185   -1.271035   -1.054681
 ---------------------------------------------------------------------

 SCF Done:  E(UB3LYP) =  -535.970097795     A.U. after   27 cycles

 The electronic state is 2-A.
 Alpha  occ. eigenvalues --  -14.23045 -14.22938 -14.22703 -14.21656 -10.08771
 Alpha  occ. eigenvalues --  -10.08580 -10.08527 -10.08418 -10.08401 -10.08325
 Alpha  occ. eigenvalues --  -10.08297 -10.08086  -0.88516  -0.86783  -0.75869
 Alpha  occ. eigenvalues --   -0.71831  -0.66055  -0.60717  -0.60445  -0.58136
 Alpha  occ. eigenvalues --   -0.54009  -0.53485  -0.48737  -0.44800  -0.41211
 Alpha  occ. eigenvalues --   -0.37816  -0.37503  -0.36746  -0.36617  -0.36524
 Alpha  occ. eigenvalues --   -0.33412  -0.32425  -0.31682  -0.31155  -0.30673
 Alpha  occ. eigenvalues --   -0.29288  -0.28981  -0.28391  -0.27294  -0.26929
 Alpha  occ. eigenvalues --   -0.26646  -0.24937  -0.24110  -0.23354  -0.18876
 Alpha  occ. eigenvalues --   -0.12587  -0.12061  -0.08039   0.04612
 Alpha virt. eigenvalues --    0.06323   0.07278   0.07883   0.08515   0.09227
 Alpha virt. eigenvalues --    0.09550   0.10121   0.10506   0.11242   0.11658
 Alpha virt. eigenvalues --    0.11897   0.12461   0.12698   0.13932   0.14247

  Beta  occ. eigenvalues --  -14.23035 -14.22939 -14.22695 -14.21656 -10.08756
  Beta  occ. eigenvalues --  -10.08564 -10.08497 -10.08385 -10.08383 -10.08294
  Beta  occ. eigenvalues --  -10.08289 -10.08058  -0.88502  -0.86768  -0.75847
  Beta  occ. eigenvalues --   -0.71811  -0.66028  -0.60667  -0.60393  -0.58099
  Beta  occ. eigenvalues --   -0.53953  -0.53439  -0.48683  -0.44749  -0.41176
  Beta  occ. eigenvalues --   -0.37784  -0.37469  -0.36713  -0.36588  -0.36484
  Beta  occ. eigenvalues --   -0.33373  -0.32396  -0.31656  -0.31128  -0.30641
  Beta  occ. eigenvalues --   -0.29253  -0.28948  -0.28355  -0.27261  -0.26896
  Beta  occ. eigenvalues --   -0.26612  -0.24913  -0.24082  -0.23329  -0.18852
  Beta  occ. eigenvalues --   -0.12561  -0.12019  -0.08019
  Beta virt. eigenvalues --    0.06751   0.07328   0.08112   0.08337   0.09290
  Beta virt. eigenvalues --    0.09760   0.09878   0.10598   0.10812   0.11614
  Beta virt. eigenvalues --    0.12142   0.12358   0.12855   0.12915   0.14309

 Mulliken charges and spin densities:
               1          2
     1  C    0.330224  -0.667242
     2  N   -0.311149   0.126693
     3  C    0.674452  -1.055875
     4  N    0.095615   0.104545
     5  C   -0.500679  -0.001978
     6  C    0.185482  -0.451342
     7  N    0.147009   0.153157
     8  C    0.303690  -0.640282
     9  C   -0.404622  -0.102392
    10  N   -0.410711   0.184918
    11  C    0.559277  -0.951901
    12  C    0.612420  -0.976364
    13  H   -0.209169   0.335952
    14  H   -0.156542   0.272228
    15  H   -0.026164   0.182374
    16  H   -0.243647   0.382424
    17  H   -0.164216   0.267168
    18  H   -0.296008   0.439420
    19  H    0.066799   0.115763
    20  H    0.024351   0.170430
    21  H   -0.003047   0.151518
    22  H   -0.054520   0.237937
    23  H    0.113305   0.045241
    24  H   -0.154079   0.346970
    25  H   -0.091693   0.256691
    26  H    0.105707   0.103120
    27  H   -0.135749   0.266956
    28  H   -0.163265   0.298090
    29  H   -0.267225   0.393478
    30  H   -0.113136   0.240380
    31  H   -0.311576   0.436075
    32  H   -0.201134   0.335845
 Sum of Mulliken charges =  -1.00000   1.00000

 Dipole moment (field-independent basis, Debye):
    X=              0.1298    Y=              1.4242    Z=             -0.3565  Tot=              1.4738
 Quadrupole moment (field-independent basis, Debye-Ang):
   XX=           -156.4373   YY=           -118.3923   ZZ=           -110.9964
   XY=             -1.4898   XZ=              4.2488   YZ=              0.2330

 Summary of Natural Population Analysis:

                                       Natural Population
                Natural  -----------------------------------------------
    Atom  No    Charge         Core      Valence    Rydberg      Total
 -----------------------------------------------------------------------
      C    1   -0.17512      0.99964     2.16644    0.00904     3.17512
      N    2   -0.18396      0.99973     2.66902    0.01521     3.68396
      C    3   -0.18677      0.99963     2.17827    0.00888     3.18677
      N    4   -0.19068      0.99972     2.67528    0.01568     3.69068
      C    5   -0.09685      0.99960     2.08564    0.01161     3.09685
      C    6   -0.10173      0.99960     2.09089    0.01124     3.10173
      N    7   -0.18955      0.99975     2.67636    0.01344     3.68955
      C    8   -0.10264      0.99960     2.09077    0.01228     3.10264
      C    9   -0.10751      0.99959     2.09636    0.01155     3.10751
      N   10   -0.20047      0.99974     2.68655    0.01417     3.70047
      C   11   -0.18346      0.99964     2.17433    0.00949     3.18346
      C   12   -0.18214      0.99964     2.17300    0.00950     3.18214
      H   13    0.09270      0.00000     0.40612    0.00118     0.40730
      H   14    0.07956      0.00000     0.41891    0.00153     0.42044
      H   15    0.09959      0.00000     0.39899    0.00143     0.40041
      H   16    0.08209      0.00000     0.41607    0.00184     0.41791
      H   17    0.09441      0.00000     0.40406    0.00153     0.40559
      H   18    0.09803      0.00000     0.40064    0.00133     0.40197
      H   19    0.09649      0.00000     0.40211    0.00140     0.40351
      H   20    0.10419      0.00000     0.39415    0.00166     0.39581
      H   21    0.09586      0.00000     0.40279    0.00135     0.40414
      H   22    0.09893      0.00000     0.39984    0.00123     0.40107
      H   23    0.09757      0.00000     0.40079    0.00163     0.40243
      H   24    0.09960      0.00000     0.39903    0.00137     0.40040
      H   25    0.10152      0.00000     0.39704    0.00145     0.39848
      H   26    0.10186      0.00000     0.39645    0.00169     0.39814
      H   27    0.08630      0.00000     0.41168    0.00202     0.41370
      H   28    0.09819      0.00000     0.40064    0.00117     0.40181
      H   29    0.09469      0.00000     0.40392    0.00139     0.40531
      H   30    0.08646      0.00000     0.41140    0.00214     0.41354
      H   31    0.09568      0.00000     0.40284    0.00148     0.40432
      H   32    0.09718      0.00000     0.40161    0.00121     0.40282
 =======================================================================
   * Total *    0.00000     11.99588    35.83199    0.17214    48.00000

 Normal termination of Gaussian 16 at Wed Dec  9 17:30:31 2020.
