 Gaussian 16, Revision A.03,

 -----------------------------------------------------------
 # opt freq B3LYP/6-31G(d) empiricaldispersion=gd3bj scf=xqc
 -----------------------------------------------------------

 -------------------------------
 CID_131183098_JID_4311_neutraal
 -------------------------------
 Symbolic Z-matrix:
 Charge =  0 Multiplicity = 1

 SCF Done:  E(RB3LYP) =  -597.298860729     A.U. after   13 cycles
 SCF Done:  E(RB3LYP) =  -597.303766022     A.U. after   11 cycles
 SCF Done:  E(RB3LYP) =  -597.304393875     A.U. after   10 cycles
 SCF Done:  E(RB3LYP) =  -597.304910936     A.U. after   10 cycles
 SCF Done:  E(RB3LYP) =  -597.305260896     A.U. after   10 cycles
 SCF Done:  E(RB3LYP) =  -597.305730315     A.U. after   11 cycles
 SCF Done:  E(RB3LYP) =  -597.305908894     A.U. after   11 cycles
 SCF Done:  E(RB3LYP) =  -597.306132999     A.U. after   10 cycles
 SCF Done:  E(RB3LYP) =  -597.306467450     A.U. after   10 cycles
 SCF Done:  E(RB3LYP) =  -597.306569012     A.U. after   10 cycles
 SCF Done:  E(RB3LYP) =  -597.307381840     A.U. after    9 cycles
 SCF Done:  E(RB3LYP) =  -597.307386826     A.U. after    8 cycles
 SCF Done:  E(RB3LYP) =  -597.307390221     A.U. after    8 cycles
 SCF Done:  E(RB3LYP) =  -597.307389985     A.U. after    7 cycles
 SCF Done:  E(RB3LYP) =  -597.307389867     A.U. after    5 cycles
 SCF Done:  E(RB3LYP) =  -597.307389560     A.U. after    6 cycles
 Optimization completed.
    -- Stationary point found.
 Normal termination of Gaussian 16 at Thu Dec 10 09:47:50 2020.

 --------------------------------------------------------------------
 #N Geom=AllCheck Guess=TCheck SCRF=Check GenChk RB3LYP/6-31G(d) Freq
 --------------------------------------------------------------------

 Structure from the checkpoint file:  "JID_4311.chk"
 -------------------------------
 CID_131183098_JID_4311_neutraal
 -------------------------------
 Charge =  0 Multiplicity = 1

 SCF Done:  E(RB3LYP) =  -597.307389560     A.U. after    1 cycles

  Exact polarizability: 159.765  -1.288 122.562   1.233   0.416 115.915
 Approx polarizability: 185.686  -1.030 183.462   1.523   1.795 175.678

                      1                      2                      3
                      A                      A                      A
 Frequencies --     23.9738                44.0630                59.6287
 Red. masses --      3.7742                 3.1055                 2.5727
 Frc consts  --      0.0013                 0.0036                 0.0054
 IR Inten    --      0.0824                 0.2873                 0.4790

                      4                      5                      6
                      A                      A                      A
 Frequencies --    111.4375               131.2341               152.2339
 Red. masses --      3.0733                 2.8491                 1.7952
 Frc consts  --      0.0225                 0.0289                 0.0245
 IR Inten    --      1.2970                 0.7965                 0.2846

                      7                      8                      9
                      A                      A                      A
 Frequencies --    177.2485               212.4991               234.6454
 Red. masses --      2.7647                 1.8327                 2.5490
 Frc consts  --      0.0512                 0.0488                 0.0827
 IR Inten    --      0.9471                 1.2802                 0.4327

                     10                     11                     12
                      A                      A                      A
 Frequencies --    249.2597               311.5452               316.4421
 Red. masses --      1.7487                 2.9277                 1.9223
 Frc consts  --      0.0640                 0.1674                 0.1134
 IR Inten    --      0.5646                 1.4390                 3.9132

                     13                     14                     15
                      A                      A                      A
 Frequencies --    337.1897               390.8879               407.2987
 Red. masses --      2.5708                 1.8509                 2.1591
 Frc consts  --      0.1722                 0.1666                 0.2110
 IR Inten    --      1.8669                 3.8650                 0.3648

                     16                     17                     18
                      A                      A                      A
 Frequencies --    417.4224               491.7037               502.8216
 Red. masses --      2.1095                 3.0939                 2.9715
 Frc consts  --      0.2166                 0.4407                 0.4427
 IR Inten    --      4.4286                 6.5188                17.0796

                     19                     20                     21
                      A                      A                      A
 Frequencies --    510.4799               548.4002               663.8003
 Red. masses --      2.1836                 2.6645                 2.1844
 Frc consts  --      0.3353                 0.4721                 0.5671
 IR Inten    --      3.2722                 2.4999                 5.7374

                     22                     23                     24
                      A                      A                      A
 Frequencies --    736.7951               741.6335               782.2513
 Red. masses --      2.0344                 1.5729                 1.9005
 Frc consts  --      0.6507                 0.5097                 0.6852
 IR Inten    --     33.8003               115.3872                23.5325

                     25                     26                     27
                      A                      A                      A
 Frequencies --    801.9192               833.7619               863.7710
 Red. masses --      2.3454                 2.3930                 2.3981
 Frc consts  --      0.8886                 0.9801                 1.0542
 IR Inten    --     15.8784                 2.8476                30.4348

                     28                     29                     30
                      A                      A                      A
 Frequencies --    869.9908               891.7680               910.0318
 Red. masses --      2.3552                 2.2015                 2.4213
 Frc consts  --      1.0503                 1.0315                 1.1815
 IR Inten    --     21.4182                 3.6574                 9.4118

                     31                     32                     33
                      A                      A                      A
 Frequencies --    924.2582               934.4070               947.9251
 Red. masses --      1.7575                 1.6205                 2.1580
 Frc consts  --      0.8846                 0.8336                 1.1425
 IR Inten    --     10.2477                 1.4071                 1.2669

                     34                     35                     36
                      A                      A                      A
 Frequencies --    981.8575               985.0985              1016.4773
 Red. masses --      1.8811                 1.8147                 1.8410
 Frc consts  --      1.0684                 1.0376                 1.1207
 IR Inten    --      7.7249                 8.8217                 1.4621

                     37                     38                     39
                      A                      A                      A
 Frequencies --   1026.5652              1050.5944              1072.8010
 Red. masses --      2.0345                 2.4334                 1.7114
 Frc consts  --      1.2632                 1.5824                 1.1605
 IR Inten    --      6.5771                11.5836                 7.2489

                     40                     41                     42
                      A                      A                      A
 Frequencies --   1083.8793              1100.1979              1114.9813
 Red. masses --      1.7205                 1.6399                 1.8059
 Frc consts  --      1.1909                 1.1695                 1.3227
 IR Inten    --     14.7586                 2.5070                10.5357

                     43                     44                     45
                      A                      A                      A
 Frequencies --   1124.1947              1153.2475              1157.5304
 Red. masses --      1.9734                 2.4287                 1.9297
 Frc consts  --      1.4694                 1.9031                 1.5234
 IR Inten    --      2.0281                29.8630                 7.4510

                     46                     47                     48
                      A                      A                      A
 Frequencies --   1167.3376              1174.8277              1196.9724
 Red. masses --      1.7775                 1.9256                 1.8267
 Frc consts  --      1.4271                 1.5659                 1.5420
 IR Inten    --      5.6917                52.1893                22.9066

                     49                     50                     51
                      A                      A                      A
 Frequencies --   1198.6421              1207.4524              1225.4765
 Red. masses --      1.4102                 2.1143                 1.3258
 Frc consts  --      1.1938                 1.8162                 1.1731
 IR Inten    --      5.3068                10.3269                17.4249

                     52                     53                     54
                      A                      A                      A
 Frequencies --   1236.5633              1247.8236              1291.0520
 Red. masses --      1.5100                 1.4002                 1.3595
 Frc consts  --      1.3604                 1.2845                 1.3351
 IR Inten    --      7.3968                 6.9842                 6.7892

                     55                     56                     57
                      A                      A                      A
 Frequencies --   1312.1768              1321.4144              1322.3257
 Red. masses --      1.3551                 1.3222                 1.3178
 Frc consts  --      1.3747                 1.3603                 1.3576
 IR Inten    --      4.2290                 4.9735                 1.3908

                     58                     59                     60
                      A                      A                      A
 Frequencies --   1338.5005              1345.6198              1352.6113
 Red. masses --      1.3500                 1.3119                 1.4133
 Frc consts  --      1.4251                 1.3995                 1.5235
 IR Inten    --     19.7113                 2.0276                 8.3153

                     61                     62                     63
                      A                      A                      A
 Frequencies --   1359.3600              1367.2186              1387.2765
 Red. masses --      1.2887                 1.3243                 1.4113
 Frc consts  --      1.4031                 1.4585                 1.6003
 IR Inten    --     16.9953                24.3214                 1.9902

                     64                     65                     66
                      A                      A                      A
 Frequencies --   1388.4390              1402.6654              1406.5302
 Red. masses --      1.4095                 1.4157                 1.3553
 Frc consts  --      1.6009                 1.6411                 1.5798
 IR Inten    --      7.1837                 3.4287                 7.8885

                     67                     68                     69
                      A                      A                      A
 Frequencies --   1413.8824              1442.1364              1445.6116
 Red. masses --      1.4026                 1.3185                 1.4815
 Frc consts  --      1.6521                 1.6157                 1.8242
 IR Inten    --      7.5324                21.0911                 0.7204

                     70                     71                     72
                      A                      A                      A
 Frequencies --   1479.6859              1501.6451              1505.5202
 Red. masses --      1.1487                 1.2829                 1.1302
 Frc consts  --      1.4818                 1.7044                 1.5093
 IR Inten    --      0.3767                 2.7772                 9.6730

                     73                     74                     75
                      A                      A                      A
 Frequencies --   1508.7933              1513.1375              1517.0458
 Red. masses --      1.0967                 1.1839                 1.1142
 Frc consts  --      1.4710                 1.5971                 1.5109
 IR Inten    --      4.7046                 8.5330                 3.2359

                     76                     77                     78
                      A                      A                      A
 Frequencies --   1520.8332              1521.3387              1525.0275
 Red. masses --      1.1065                 1.0642                 1.0882
 Frc consts  --      1.5079                 1.4512                 1.4911
 IR Inten    --      7.5990                 7.9684                 2.1938

                     79                     80                     81
                      A                      A                      A
 Frequencies --   1536.3600              1541.0229              1551.2442
 Red. masses --      1.1107                 1.0852                 1.0507
 Frc consts  --      1.5447                 1.5184                 1.4897
 IR Inten    --      2.4679                 2.3964                 7.5908

                     82                     83                     84
                      A                      A                      A
 Frequencies --   1560.1611              2908.6717              2915.0360
 Red. masses --      1.1010                 1.0743                 1.0735
 Frc consts  --      1.5790                 5.3552                 5.3746
 IR Inten    --      5.5030                35.1898                89.3705

                     85                     86                     87
                      A                      A                      A
 Frequencies --   2915.8652              2934.2935              2966.2724
 Red. masses --      1.0727                 1.0730                 1.0591
 Frc consts  --      5.3736                 5.4431                 5.4907
 IR Inten    --    121.7370                94.4143                74.8407

                     88                     89                     90
                      A                      A                      A
 Frequencies --   3023.7716              3029.1217              3039.3902
 Red. masses --      1.0727                 1.0613                 1.0799
 Frc consts  --      5.7789                 5.7376                 5.8774
 IR Inten    --      9.0700                25.3608                35.2316

                     91                     92                     93
                      A                      A                      A
 Frequencies --   3049.1708              3054.3878              3059.3018
 Red. masses --      1.0841                 1.0680                 1.0642
 Frc consts  --      5.9385                 5.8707                 5.8682
 IR Inten    --     85.2210                41.2249                35.7378

                     94                     95                     96
                      A                      A                      A
 Frequencies --   3067.0403              3069.6025              3078.4531
 Red. masses --      1.0792                 1.0866                 1.0957
 Frc consts  --      5.9811                 6.0322                 6.1182
 IR Inten    --     41.8731                25.7199                30.1580

                     97                     98                     99
                      A                      A                      A
 Frequencies --   3081.2134              3085.2035              3102.8859
 Red. masses --      1.0879                 1.0979                 1.0886
 Frc consts  --      6.0855                 6.1572                 6.1753
 IR Inten    --     56.6174                46.5478                25.1961

                    100                    101                    102
                      A                      A                      A
 Frequencies --   3109.4808              3112.7242              3116.3015
 Red. masses --      1.1007                 1.1026                 1.0964
 Frc consts  --      6.2704                 6.2945                 6.2735
 IR Inten    --     46.9067                36.7806                47.3962

                    103                    104                    105
                      A                      A                      A
 Frequencies --   3148.8984              3499.7056              3501.9108
 Red. masses --      1.0893                 1.0747                 1.0736
 Frc consts  --      6.3640                 7.7551                 7.7574
 IR Inten    --     10.3921                 1.3098                 2.3509

 - Thermochemistry -
 -------------------
 Temperature   298.150 Kelvin.  Pressure   1.00000 Atm.
 Atom     1 has atomic number  6 and mass  12.00000

 Molecular mass:   197.18920 amu.
 Principal axes and moments of inertia in atomic units:
                           1         2         3
     Eigenvalues --  1070.779995814.743045918.63856
           X            1.00000   0.00074   0.00287
           Y           -0.00069   0.99984  -0.01809
           Z           -0.00289   0.01809   0.99983
 This molecule is an asymmetric top.
 Rotational symmetry number  1.
 Warning -- assumption of classical behavior for rotation
           may cause significant error
 Rotational temperatures (Kelvin)      0.08089     0.01490     0.01463
 Rotational constants (GHZ):           1.68545     0.31037     0.30493
 Zero-point vibrational energy     906784.8 (Joules/Mol)
                                  216.72678 (Kcal/Mol)
 Warning -- explicit consideration of  20 degrees of freedom as
           vibrations may cause significant error
 Vibrational temperatures:     34.49    63.40    85.79   160.33   188.82
          (Kelvin)            219.03   255.02   305.74   337.60   358.63
                              448.24   455.29   485.14   562.40   586.01
                              600.58   707.45   723.45   734.47   789.03
                              955.06  1060.08  1067.05  1125.49  1153.78
                             1199.60  1242.77  1251.72  1283.06  1309.33
                             1329.80  1344.40  1363.85  1412.67  1417.34
                             1462.48  1477.00  1511.57  1543.52  1559.46
                             1582.94  1604.21  1617.47  1659.27  1665.43
                             1679.54  1690.32  1722.18  1724.58  1737.25
                             1763.19  1779.14  1795.34  1857.54  1887.93
                             1901.22  1902.53  1925.80  1936.05  1946.11
                             1955.82  1967.12  1995.98  1997.65  2018.12
                             2023.68  2034.26  2074.91  2079.91  2128.94
                             2160.53  2166.11  2170.82  2177.07  2182.69
                             2188.14  2188.87  2194.17  2210.48  2217.19
                             2231.89  2244.72  4184.93  4194.09  4195.28
                             4221.79  4267.80  4350.53  4358.23  4373.00
                             4387.08  4394.58  4401.65  4412.79  4416.47
                             4429.21  4433.18  4438.92  4464.36  4473.85
                             4478.52  4483.66  4530.56  5035.30  5038.47

 Zero-point correction=                           0.345376 (Hartree/Particle)
 Thermal correction to Energy=                    0.359475
 Thermal correction to Enthalpy=                  0.360419
 Thermal correction to Gibbs Free Energy=         0.303564
 Sum of electronic and zero-point Energies=           -596.962013
 Sum of electronic and thermal Energies=              -596.947914
 Sum of electronic and thermal Enthalpies=            -596.946970
 Sum of electronic and thermal Free Energies=         -597.003826

                     E (Thermal)             CV                S
                      KCal/Mol        Cal/Mol-Kelvin    Cal/Mol-Kelvin
 Total                  225.574             54.971            119.663
 Electronic               0.000              0.000              0.000
 Translational            0.889              2.981             41.742
 Rotational               0.889              2.981             31.977
 Vibrational            223.797             49.009             45.943
 Vibration     1          0.593              1.985              6.274
 Vibration     2          0.595              1.980              5.068
 Vibration     3          0.597              1.974              4.469
 Vibration     4          0.607              1.940              3.244
 Vibration     5          0.612              1.922              2.928
 Vibration     6          0.619              1.900              2.644
 Vibration     7          0.628              1.870              2.357
 Vibration     8          0.644              1.822              2.022
 Vibration     9          0.654              1.788              1.843
 Vibration    10          0.662              1.764              1.736
 Vibration    11          0.700              1.652              1.354
 Vibration    12          0.703              1.642              1.328
 Vibration    13          0.718              1.601              1.225
 Vibration    14          0.759              1.490              0.997
 Vibration    15          0.772              1.454              0.936
 Vibration    16          0.780              1.432              0.901
 Vibration    17          0.847              1.268              0.679
 Vibration    18          0.858              1.244              0.651
 Vibration    19          0.866              1.227              0.632
 Vibration    20          0.904              1.143              0.547

                           ! Non-Optimized Parameters !
 Normal termination of Gaussian 16 at Thu Dec 10 10:00:50 2020.

 ----------------------------------------------------------------------
 # B3LYP/6-311++G(d,p) empiricaldispersion=gd3bj scf=xqc pop=npa geom=c
 heck
 ----------------------------------------------------------------------

 ---------------------------------------
 CID_131183098_JID_4311_Energie_neutraal
 ---------------------------------------
 Structure from the checkpoint file:  "JID_4311.chk"
 Charge =  0 Multiplicity = 1

 SCF Done:  E(RB3LYP) =  -597.476816239     A.U. after   13 cycles
 Normal termination of Gaussian 16 at Thu Dec 10 10:06:56 2020.

 ----------------------------------------------------------------------
 # B3LYP/6-311++G(d,p) empiricaldispersion=gd3bj scf=xqc pop=npa geom=c
 heck
 ----------------------------------------------------------------------

 -------------------------------------
 CID_131183098_JID_4311_Energie_kation
 -------------------------------------
 Structure from the checkpoint file:  "JID_4311.chk"
 Charge =  1 Multiplicity = 2

 SCF Done:  E(UB3LYP) =  -597.208620060     A.U. after   25 cycles
 Normal termination of Gaussian 16 at Thu Dec 10 10:23:21 2020.
 Gaussian 16:  ES64L-G16RevA.03 25-Dec-2016

 ----------------------------------------------------------------------
 # B3LYP/6-311++G(d,p) empiricaldispersion=gd3bj scf=xqc pop=npa geom=c
 heck
 ----------------------------------------------------------------------

 ------------------------------------
 CID_131183098_JID_4311_Energie_anion
 ------------------------------------
 Structure from the checkpoint file:  "JID_4311.chk"
 Charge = -1 Multiplicity = 2

                         Standard orientation:
 ---------------------------------------------------------------------
 Center     Atomic      Atomic             Coordinates (Angstroms)
 Number     Number       Type             X           Y           Z
 ---------------------------------------------------------------------
      1          6           0       -4.862610    0.714615   -0.335517
      2          7           0       -3.931612    0.609236    0.779887
      3          6           0       -2.993433   -0.504505    0.697404
      4          6           0       -2.030597   -0.548435   -0.506730
      5          6           0       -1.134346   -1.820766   -0.446516
      6          6           0        0.304725   -1.281119   -0.431421
      7          7           0        0.140975    0.030082    0.195174
      8          6           0       -1.012102    0.610644   -0.479030
      9          6           0        1.289586    0.916244    0.378714
     10          6           0        2.116610    1.274009   -0.885420
     11          6           0        3.184346    0.231190   -1.256051
     12          6           0        4.003766   -0.176510   -0.030557
     13          7           0        3.098267   -0.660443    1.011158
     14          6           0        2.222080    0.409574    1.490152
     15          1           0       -5.450553   -0.209332   -0.395719
     16          1           0       -4.401787    0.877884   -1.326080
     17          1           0       -5.559025    1.539206   -0.148881
     18          1           0       -3.422392    1.483326    0.889339
     19          1           0       -2.385885   -0.500118    1.611384
     20          1           0       -3.581991   -1.432654    0.710366
     21          1           0       -2.608162   -0.523489   -1.436394
     22          1           0       -1.309034   -2.499136   -1.287069
     23          1           0       -1.339061   -2.379280    0.474368
     24          1           0        1.016566   -1.890274    0.126871
     25          1           0        0.673422   -1.199915   -1.471770
     26          1           0       -0.784132    0.943553   -1.511273
     27          1           0       -1.373358    1.490475    0.069600
     28          1           0        0.853086    1.852377    0.751359
     29          1           0        1.445187    1.453697   -1.733557
     30          1           0        2.622431    2.229373   -0.686226
     31          1           0        2.717729   -0.665377   -1.674320
     32          1           0        3.849789    0.640661   -2.026580
     33          1           0        4.704088   -0.978542   -0.289189
     34          1           0        4.605301    0.691930    0.308830
     35          1           0        3.635369   -1.030652    1.791880
     36          1           0        2.802174    1.276215    1.867368
     37          1           0        1.608684    0.028306    2.312008
 ---------------------------------------------------------------------

 SCF Done:  E(UB3LYP) =  -597.463003423     A.U. after   28 cycles

 The electronic state is 2-A.
 Alpha  occ. eigenvalues --  -14.20223 -14.19678 -14.19421 -10.09480 -10.09306
 Alpha  occ. eigenvalues --  -10.09287 -10.08741 -10.08732 -10.08518 -10.08358
 Alpha  occ. eigenvalues --  -10.07272 -10.06889 -10.06202 -10.06177  -0.83649
 Alpha  occ. eigenvalues --   -0.80928  -0.80291  -0.70072  -0.66898  -0.64099
 Alpha  occ. eigenvalues --   -0.62609  -0.59188  -0.54596  -0.53360  -0.52250
 Alpha  occ. eigenvalues --   -0.48081  -0.46448  -0.44488  -0.41148  -0.40948
 Alpha  occ. eigenvalues --   -0.38468  -0.37256  -0.35852  -0.35195  -0.34442
 Alpha  occ. eigenvalues --   -0.33071  -0.32170  -0.32013  -0.30799  -0.30076
 Alpha  occ. eigenvalues --   -0.28911  -0.28535  -0.27846  -0.26771  -0.26220
 Alpha  occ. eigenvalues --   -0.24968  -0.24626  -0.23586  -0.22959  -0.22658
 Alpha  occ. eigenvalues --   -0.21873  -0.20849  -0.13227  -0.12913  -0.10668
 Alpha  occ. eigenvalues --    0.04256
 Alpha virt. eigenvalues --    0.05870   0.07081   0.07347   0.07861   0.08324
 Alpha virt. eigenvalues --    0.08613   0.09590   0.09908   0.10352   0.10542
 Alpha virt. eigenvalues --    0.10851   0.11547   0.12148   0.12334   0.13094

  Beta  occ. eigenvalues --  -14.20211 -14.19673 -14.19396 -10.09474 -10.09284
  Beta  occ. eigenvalues --  -10.09278 -10.08719 -10.08707 -10.08501 -10.08352
  Beta  occ. eigenvalues --  -10.07266 -10.06885 -10.06185 -10.06163  -0.83633
  Beta  occ. eigenvalues --   -0.80902  -0.80262  -0.70047  -0.66864  -0.64069
  Beta  occ. eigenvalues --   -0.62583  -0.59145  -0.54546  -0.53306  -0.52215
  Beta  occ. eigenvalues --   -0.48041  -0.46417  -0.44442  -0.41080  -0.40906
  Beta  occ. eigenvalues --   -0.38428  -0.37227  -0.35826  -0.35170  -0.34407
  Beta  occ. eigenvalues --   -0.33045  -0.32128  -0.31982  -0.30762  -0.30048
  Beta  occ. eigenvalues --   -0.28878  -0.28509  -0.27816  -0.26752  -0.26190
  Beta  occ. eigenvalues --   -0.24940  -0.24608  -0.23564  -0.22934  -0.22639
  Beta  occ. eigenvalues --   -0.21835  -0.20812  -0.13173  -0.12889  -0.10629
  Beta virt. eigenvalues --    0.06255   0.06811   0.07552   0.07927   0.08298
  Beta virt. eigenvalues --    0.08756   0.08982   0.09942   0.10348   0.10559
  Beta virt. eigenvalues --    0.10829   0.11144   0.11893   0.12344   0.12607

 Mulliken charges and spin densities:
               1          2
     1  C    0.410270  -0.795274
     2  N   -0.204199   0.146903
     3  C   -0.351792  -0.477582
     4  C    0.208724   0.418521
     5  C    0.094675  -0.873920
     6  C   -0.270043   0.047903
     7  N    0.358547  -0.020562
     8  C    0.002434  -0.616813
     9  C   -1.289513   1.462377
    10  C    1.364351  -1.905918
    11  C   -0.779536   0.616381
    12  C    0.793229  -1.195491
    13  N   -0.368694   0.212268
    14  C    0.583188  -1.162288
    15  H   -0.010598   0.140051
    16  H   -0.236907   0.353423
    17  H   -0.300523   0.443449
    18  H    0.154765   0.058686
    19  H    0.155121   0.041041
    20  H    0.146160   0.008083
    21  H    0.114635   0.111167
    22  H    0.026972   0.111682
    23  H    0.060912   0.081941
    24  H    0.179076   0.029577
    25  H   -0.027392   0.096708
    26  H   -0.011209   0.103061
    27  H   -0.300914   0.437642
    28  H   -0.175485   0.354790
    29  H   -0.166947   0.306986
    30  H   -0.130829   0.288171
    31  H    0.191831  -0.066854
    32  H   -0.364019   0.538143
    33  H   -0.424037   0.585526
    34  H   -0.098189   0.211833
    35  H   -0.092089   0.352237
    36  H   -0.315308   0.442500
    37  H    0.073334   0.113651
 Sum of Mulliken charges =  -1.00000   1.00000

 Dipole moment (field-independent basis, Debye):
    X=             -2.3171    Y=             -3.2572    Z=             -0.3799  Tot=              4.0153
 Quadrupole moment (field-independent basis, Debye-Ang):
   XX=           -189.3788   YY=           -127.8839   ZZ=           -126.3623
   XY=              6.4746   XZ=             -2.1508   YZ=              2.6325

 Summary of Natural Population Analysis:

                                       Natural Population
                Natural  -----------------------------------------------
    Atom  No    Charge         Core      Valence    Rydberg      Total
 -----------------------------------------------------------------------
      C    1   -0.18124      0.99966     2.17271    0.00887     3.18124
      N    2   -0.34011      0.99976     2.82737    0.01298     3.84011
      C    3   -0.08295      0.99960     2.07203    0.01132     3.08295
      C    4   -0.12580      0.99959     2.11540    0.01081     3.12580
      C    5   -0.18835      0.99962     2.18137    0.00736     3.18835
      C    6   -0.08600      0.99962     2.07729    0.00908     3.08600
      N    7   -0.28504      0.99970     2.77259    0.01275     3.78504
      C    8   -0.08149      0.99960     2.06970    0.01219     3.08149
      C    9   -0.00519      0.99957     1.99047    0.01515     3.00519
      C   10   -0.20067      0.99960     2.19232    0.00875     3.20067
      C   11   -0.19571      0.99962     2.18741    0.00868     3.19571
      C   12   -0.08550      0.99962     2.07443    0.01145     3.08550
      N   13   -0.34388      0.99974     2.83174    0.01240     3.84388
      C   14   -0.08827      0.99959     2.07623    0.01245     3.08827
      H   15    0.08882      0.00000     0.41021    0.00097     0.41118
      H   16    0.08046      0.00000     0.41791    0.00162     0.41954
      H   17    0.09456      0.00000     0.40447    0.00097     0.40544
      H   18    0.17219      0.00000     0.32504    0.00277     0.32781
      H   19    0.09754      0.00000     0.40091    0.00155     0.40246
      H   20    0.08787      0.00000     0.41100    0.00113     0.41213
      H   21    0.09729      0.00000     0.40126    0.00145     0.40271
      H   22    0.09719      0.00000     0.40184    0.00097     0.40281
      H   23    0.09516      0.00000     0.40360    0.00124     0.40484
      H   24    0.10918      0.00000     0.38913    0.00169     0.39082
      H   25    0.07514      0.00000     0.42307    0.00179     0.42486
      H   26    0.08168      0.00000     0.41659    0.00172     0.41832
      H   27    0.09289      0.00000     0.40504    0.00207     0.40711
      H   28    0.09859      0.00000     0.39939    0.00202     0.40141
      H   29    0.10182      0.00000     0.39693    0.00125     0.39818
      H   30    0.09918      0.00000     0.39922    0.00160     0.40082
      H   31    0.09571      0.00000     0.40237    0.00192     0.40429
      H   32    0.09801      0.00000     0.40097    0.00103     0.40199
      H   33    0.09482      0.00000     0.40384    0.00134     0.40518
      H   34    0.07611      0.00000     0.42185    0.00204     0.42389
      H   35    0.17628      0.00000     0.32054    0.00319     0.32372
      H   36    0.07975      0.00000     0.41861    0.00164     0.42025
      H   37    0.09995      0.00000     0.39847    0.00158     0.40005
 =======================================================================
   * Total *   -0.00000     13.99490    40.81331    0.19179    55.00000

 Normal termination of Gaussian 16 at Thu Dec 10 10:41:55 2020.
