 Gaussian 16, Revision A.03,

 -----------------------------------------------------------
 # opt freq B3LYP/6-31G(d) empiricaldispersion=gd3bj scf=xqc
 -----------------------------------------------------------

 ------------------------------
 CID_65679016_JID_4774_neutraal
 ------------------------------
 Symbolic Z-matrix:
 Charge =  0 Multiplicity = 1

 SCF Done:  E(RB3LYP) =  -701.457137905     A.U. after   14 cycles
 SCF Done:  E(RB3LYP) =  -701.405845714     A.U. after   15 cycles
 SCF Done:  E(RB3LYP) =  -701.462026196     A.U. after   13 cycles
 SCF Done:  E(RB3LYP) =  -701.462750838     A.U. after   13 cycles
 SCF Done:  E(RB3LYP) =  -701.463087941     A.U. after   12 cycles
 SCF Done:  E(RB3LYP) =  -701.463495646     A.U. after   12 cycles
 SCF Done:  E(RB3LYP) =  -701.463083859     A.U. after   12 cycles
 SCF Done:  E(RB3LYP) =  -701.463631904     A.U. after   11 cycles
 SCF Done:  E(RB3LYP) =  -701.463692911     A.U. after   12 cycles
 SCF Done:  E(RB3LYP) =  -701.463801535     A.U. after   11 cycles
 SCF Done:  E(RB3LYP) =  -701.464659289     A.U. after   10 cycles
 SCF Done:  E(RB3LYP) =  -701.464669410     A.U. after   11 cycles
 SCF Done:  E(RB3LYP) =  -701.464666923     A.U. after   11 cycles
 SCF Done:  E(RB3LYP) =  -701.464671748     A.U. after   11 cycles
 SCF Done:  E(RB3LYP) =  -701.464671816     A.U. after    8 cycles
 SCF Done:  E(RB3LYP) =  -701.464672015     A.U. after    8 cycles
 Optimization completed.
    -- Stationary point found.
 Normal termination of Gaussian 16 at Thu Dec 10 10:43:23 2020.

 --------------------------------------------------------------------
 #N Geom=AllCheck Guess=TCheck SCRF=Check GenChk RB3LYP/6-31G(d) Freq
 --------------------------------------------------------------------

 Structure from the checkpoint file:  "JID_4774.chk"
 ------------------------------
 CID_65679016_JID_4774_neutraal
 ------------------------------
 Charge =  0 Multiplicity = 1

 SCF Done:  E(RB3LYP) =  -701.464672015     A.U. after    1 cycles

  Exact polarizability: 110.644  -5.715  83.750  -1.584   1.496 103.000
 Approx polarizability: 160.133 -17.450 121.833  -6.444   7.706 188.194

                      1                      2                      3
                      A                      A                      A
 Frequencies --     44.5112                53.9362                72.0426
 Red. masses --      4.6367                 9.1106                 5.9324
 Frc consts  --      0.0054                 0.0156                 0.0181
 IR Inten    --      6.0731                 6.9398                 4.9439

                      4                      5                      6
                      A                      A                      A
 Frequencies --     87.2806               119.4710               123.3479
 Red. masses --      4.7754                 9.2498                 5.8718
 Frc consts  --      0.0214                 0.0778                 0.0526
 IR Inten    --      4.4624                 3.7570                 0.3823

                      7                      8                      9
                      A                      A                      A
 Frequencies --    188.3452               219.1849               243.9147
 Red. masses --      4.8724                 4.8512                 4.8306
 Frc consts  --      0.1018                 0.1373                 0.1693
 IR Inten    --      1.7662                 1.0895                 7.4681

                     10                     11                     12
                      A                      A                      A
 Frequencies --    275.8118               331.8961               430.6986
 Red. masses --      2.8190                 2.3777                 4.0227
 Frc consts  --      0.1263                 0.1543                 0.4397
 IR Inten    --      1.0291                 2.3856                 4.8275

                     13                     14                     15
                      A                      A                      A
 Frequencies --    436.5313               483.4034               538.8021
 Red. masses --      3.2061                 3.1899                 2.8021
 Frc consts  --      0.3600                 0.4392                 0.4793
 IR Inten    --      4.4068                 8.8270                18.6309

                     16                     17                     18
                      A                      A                      A
 Frequencies --    569.1918               576.8000               621.4039
 Red. masses --      2.4322                 2.6854                 1.5917
 Frc consts  --      0.4643                 0.5264                 0.3621
 IR Inten    --     86.6468                15.9019               143.3789

                     19                     20                     21
                      A                      A                      A
 Frequencies --    660.1741               682.4967               701.0636
 Red. masses --      2.4410                 2.3393                 3.5887
 Frc consts  --      0.6268                 0.6420                 1.0392
 IR Inten    --     37.9120                 8.0018                 8.3527

                     22                     23                     24
                      A                      A                      A
 Frequencies --    708.7230               729.1064               788.5895
 Red. masses --      2.4250                 2.1980                 2.0780
 Frc consts  --      0.7177                 0.6884                 0.7614
 IR Inten    --     16.8203                91.8515                34.4322

                     25                     26                     27
                      A                      A                      A
 Frequencies --    791.2721               812.2480               831.8467
 Red. masses --      1.4355                 2.1122                 1.3513
 Frc consts  --      0.5296                 0.8210                 0.5509
 IR Inten    --     32.2646               106.0364                14.9881

                     28                     29                     30
                      A                      A                      A
 Frequencies --    835.5460               944.1427               963.0519
 Red. masses --      2.8923                 5.8208                 2.1122
 Frc consts  --      1.1897                 3.0571                 1.1542
 IR Inten    --      6.1954                15.0823                19.6950

                     31                     32                     33
                      A                      A                      A
 Frequencies --    998.8605              1008.4505              1017.6756
 Red. masses --      2.0288                 2.2942                 3.7235
 Frc consts  --      1.1926                 1.3746                 2.2721
 IR Inten    --      5.3317                 2.8689                13.7481

                     34                     35                     36
                      A                      A                      A
 Frequencies --   1060.9889              1124.6134              1148.5619
 Red. masses --      2.9164                 2.3097                 2.2844
 Frc consts  --      1.9343                 1.7211                 1.7755
 IR Inten    --     11.8996                10.3818                 8.2373

                     37                     38                     39
                      A                      A                      A
 Frequencies --   1155.0757              1162.7570              1216.5670
 Red. masses --      1.7918                 1.4950                 1.7147
 Frc consts  --      1.4085                 1.1909                 1.4952
 IR Inten    --      2.1901                74.2350               152.5326

                     40                     41                     42
                      A                      A                      A
 Frequencies --   1237.7810              1261.0340              1273.6318
 Red. masses --      1.3290                 1.8550                 1.4107
 Frc consts  --      1.1997                 1.7380                 1.3482
 IR Inten    --     33.4581                 8.6329                16.9799

                     43                     44                     45
                      A                      A                      A
 Frequencies --   1279.6642              1331.6688              1339.6044
 Red. masses --      1.6413                 1.5648                 1.4317
 Frc consts  --      1.5836                 1.6350                 1.5137
 IR Inten    --      2.6249                45.0732                 7.3782

                     46                     47                     48
                      A                      A                      A
 Frequencies --   1361.2814              1398.7840              1412.4374
 Red. masses --      1.9357                 2.2843                 2.0957
 Frc consts  --      2.1134                 2.6333                 2.4633
 IR Inten    --     10.5369                45.4479                29.9414

                     49                     50                     51
                      A                      A                      A
 Frequencies --   1431.2328              1462.3180              1487.7634
 Red. masses --      2.0335                 2.6815                 1.5129
 Frc consts  --      2.4542                 3.3784                 1.9731
 IR Inten    --     74.8979                24.6020                23.6452

                     52                     53                     54
                      A                      A                      A
 Frequencies --   1503.6751              1506.3083              1512.0989
 Red. masses --      2.0559                 1.4024                 1.1906
 Frc consts  --      2.7388                 1.8748                 1.6039
 IR Inten    --     10.0184                 1.9661                57.1096

                     55                     56                     57
                      A                      A                      A
 Frequencies --   1528.5990              1614.6380              1775.0707
 Red. masses --      1.0877                 4.0079                 7.8579
 Frc consts  --      1.4974                 6.1563                14.5878
 IR Inten    --     24.2814                10.1020               239.9680

                     58                     59                     60
                      A                      A                      A
 Frequencies --   1829.6459              3072.5816              3072.8965
 Red. masses --      9.7083                 1.0663                 1.0664
 Frc consts  --     19.1482                 5.9313                 5.9329
 IR Inten    --    191.3215                23.6256                12.7098

                     61                     62                     63
                      A                      A                      A
 Frequencies --   3093.2194              3125.0643              3141.4245
 Red. masses --      1.0624                 1.0990                 1.1001
 Frc consts  --      5.9888                 6.3237                 6.3965
 IR Inten    --      7.6249                 3.3436                 0.6133

                     64                     65                     66
                      A                      A                      A
 Frequencies --   3152.6079              3265.4232              3275.3448
 Red. masses --      1.0994                 1.0961                 1.0981
 Frc consts  --      6.4380                 6.8865                 6.9409
 IR Inten    --      9.4995                 4.9435                 0.9268

                     67                     68                     69
                      A                      A                      A
 Frequencies --   3537.8110              3618.9275              3649.7183
 Red. masses --      1.0747                 1.0816                 1.0641
 Frc consts  --      7.9249                 8.3459                 8.3514
 IR Inten    --      9.5028                58.0728                66.3089

 - Thermochemistry -
 -------------------
 Temperature   298.150 Kelvin.  Pressure   1.00000 Atm.
 Atom     1 has atomic number  6 and mass  12.00000

 Molecular mass:   197.08004 amu.
 Principal axes and moments of inertia in atomic units:
                           1         2         3
     Eigenvalues --  1894.579552689.695283399.51126
           X            0.99950   0.03094   0.00620
           Y           -0.03076   0.99917  -0.02670
           Z           -0.00702   0.02650   0.99962
 This molecule is an asymmetric top.
 Rotational symmetry number  1.
 Warning -- assumption of classical behavior for rotation
           may cause significant error
 Rotational temperatures (Kelvin)      0.04572     0.03220     0.02548
 Rotational constants (GHZ):           0.95258     0.67098     0.53088
 Zero-point vibrational energy     528214.9 (Joules/Mol)
                                  126.24640 (Kcal/Mol)
 Warning -- explicit consideration of  17 degrees of freedom as
           vibrations may cause significant error
 Vibrational temperatures:     64.04    77.60   103.65   125.58   171.89
          (Kelvin)            177.47   270.99   315.36   350.94   396.83
                              477.52   619.68   628.07   695.51   775.22
                              818.94   829.89   894.06   949.84   981.96
                             1008.67  1019.69  1049.02  1134.60  1138.46
                             1168.64  1196.84  1202.16  1358.41  1385.62
                             1437.14  1450.94  1464.21  1526.53  1618.07
                             1652.52  1661.90  1672.95  1750.37  1780.89
                             1814.35  1832.47  1841.15  1915.97  1927.39
                             1958.58  2012.54  2032.18  2059.22  2103.95
                             2140.56  2163.45  2167.24  2175.57  2199.31
                             2323.10  2553.93  2632.45  4420.76  4421.21
                             4450.45  4496.27  4519.81  4535.90  4698.22
                             4712.49  5090.12  5206.83  5251.13

 Zero-point correction=                           0.201186 (Hartree/Particle)
 Thermal correction to Energy=                    0.213966
 Thermal correction to Enthalpy=                  0.214910
 Thermal correction to Gibbs Free Energy=         0.160973
 Sum of electronic and zero-point Energies=           -701.263486
 Sum of electronic and thermal Energies=              -701.250706
 Sum of electronic and thermal Enthalpies=            -701.249762
 Sum of electronic and thermal Free Energies=         -701.303699

                     E (Thermal)             CV                S
                      KCal/Mol        Cal/Mol-Kelvin    Cal/Mol-Kelvin
 Total                  134.265             47.582            113.520
 Electronic               0.000              0.000              0.000
 Translational            0.889              2.981             41.740
 Rotational               0.889              2.981             31.227
 Vibrational            132.488             41.620             40.553
 Vibration     1          0.595              1.980              5.047
 Vibration     2          0.596              1.976              4.668
 Vibration     3          0.598              1.967              4.097
 Vibration     4          0.601              1.958              3.720
 Vibration     5          0.609              1.933              3.109
 Vibration     6          0.610              1.930              3.047
 Vibration     7          0.633              1.856              2.244
 Vibration     8          0.647              1.812              1.966
 Vibration     9          0.659              1.773              1.774
 Vibration    10          0.677              1.718              1.560
 Vibration    11          0.714              1.612              1.251
 Vibration    12          0.792              1.403              0.856
 Vibration    13          0.797              1.391              0.838
 Vibration    14          0.840              1.287              0.701
 Vibration    15          0.894              1.164              0.568
 Vibration    16          0.925              1.098              0.506
 Vibration    17          0.933              1.081              0.491

 Optimization completed.
    -- Stationary point found.
 Normal termination of Gaussian 16 at Thu Dec 10 10:51:15 2020.

 ----------------------------------------------------------------------
 # B3LYP/6-311++G(d,p) empiricaldispersion=gd3bj scf=xqc pop=npa geom=c
 heck
 ----------------------------------------------------------------------

 --------------------------------------
 CID_65679016_JID_4774_Energie_neutraal
 --------------------------------------
 Structure from the checkpoint file:  "JID_4774.chk"
 Charge =  0 Multiplicity = 1

 SCF Done:  E(RB3LYP) =  -701.680600797     A.U. after   15 cycles
 Normal termination of Gaussian 16 at Thu Dec 10 10:53:57 2020.

 ----------------------------------------------------------------------
 # B3LYP/6-311++G(d,p) empiricaldispersion=gd3bj scf=xqc pop=npa geom=c
 heck
 ----------------------------------------------------------------------

 ------------------------------------
 CID_65679016_JID_4774_Energie_kation
 ------------------------------------
 Structure from the checkpoint file:  "JID_4774.chk"
 Charge =  1 Multiplicity = 2

 SCF Done:  E(UB3LYP) =  -701.362620607     A.U. after   23 cycles
 Normal termination of Gaussian 16 at Thu Dec 10 10:59:31 2020.
 Gaussian 16:  ES64L-G16RevA.03 25-Dec-2016

 ----------------------------------------------------------------------
 # B3LYP/6-311++G(d,p) empiricaldispersion=gd3bj scf=xqc pop=npa geom=c
 heck
 ----------------------------------------------------------------------

 -----------------------------------
 CID_65679016_JID_4774_Energie_anion
 -----------------------------------
 Structure from the checkpoint file:  "JID_4774.chk"
 Charge = -1 Multiplicity = 2

                         Standard orientation:
 ---------------------------------------------------------------------
 Center     Atomic      Atomic             Coordinates (Angstroms)
 Number     Number       Type             X           Y           Z
 ---------------------------------------------------------------------
      1          6           0       -2.290133   -0.271192    0.881986
      2          6           0       -1.104925   -0.910237    0.603217
      3          7           0       -1.138990   -1.130911   -0.764505
      4          6           0       -2.307279   -0.605663   -1.237505
      5          7           0       -3.029970   -0.079673   -0.268398
      6          6           0        0.088460   -1.271488    1.451877
      7          7           0        1.215545   -1.744510    0.648239
      8          6           0        1.941719   -0.931842   -0.203540
      9          8           0        2.297226   -1.343088   -1.302726
     10          6           0        2.348350    0.453395    0.284920
     11          6           0        1.647845    1.584518   -0.493094
     12          6           0        0.276506    1.882825    0.082044
     13          8           0        0.049311    1.996384    1.268955
     14          8           0       -0.664755    2.002475   -0.872983
     15          1           0       -2.640131    0.084501    1.841161
     16          1           0       -0.376390   -1.490299   -1.324262
     17          1           0       -2.568954   -0.627965   -2.286097
     18          1           0        0.395371   -0.395607    2.029422
     19          1           0       -0.157631   -2.059154    2.172085
     20          1           0        1.067759   -2.655621    0.222306
     21          1           0        2.185065    0.589368    1.355726
     22          1           0        3.424173    0.511177    0.094986
     23          1           0        2.239891    2.501953   -0.395119
     24          1           0        1.581410    1.341106   -1.555484
     25          1           0       -1.534162    2.058146   -0.427477
 ---------------------------------------------------------------------

 SCF Done:  E(UB3LYP) =  -701.672909101     A.U. after   32 cycles

 The electronic state is 2-A.
 Alpha  occ. eigenvalues --  -19.06948 -19.00818 -18.98950 -14.27479 -14.23253
 Alpha  occ. eigenvalues --  -14.20505 -10.19894 -10.16733 -10.13240 -10.12081
 Alpha  occ. eigenvalues --  -10.11216 -10.08671 -10.08383 -10.07743  -1.00821
 Alpha  occ. eigenvalues --   -0.94018  -0.92383  -0.91794  -0.82458  -0.77782
 Alpha  occ. eigenvalues --   -0.69493  -0.67251  -0.60257  -0.58953  -0.52222
 Alpha  occ. eigenvalues --   -0.50886  -0.49945  -0.46835  -0.45074  -0.40512
 Alpha  occ. eigenvalues --   -0.39477  -0.38587  -0.38127  -0.37525  -0.35212
 Alpha  occ. eigenvalues --   -0.34166  -0.33829  -0.31930  -0.31875  -0.31060
 Alpha  occ. eigenvalues --   -0.30433  -0.30159  -0.27067  -0.26352  -0.25672
 Alpha  occ. eigenvalues --   -0.22383  -0.19736  -0.19300  -0.18200  -0.16819
 Alpha  occ. eigenvalues --   -0.15229  -0.13337   0.04442
 Alpha virt. eigenvalues --    0.06756   0.07653   0.08752   0.09393   0.09768
 Alpha virt. eigenvalues --    0.09894   0.10279   0.10800   0.10891   0.11538
 Alpha virt. eigenvalues --    0.12211   0.13322   0.14119   0.14247   0.15206

  Beta  occ. eigenvalues --  -19.06925 -19.00773 -18.98884 -14.27461 -14.23223
  Beta  occ. eigenvalues --  -14.20499 -10.19817 -10.16648 -10.13239 -10.12045
  Beta  occ. eigenvalues --  -10.11213 -10.08662 -10.08357 -10.07715  -1.00738
  Beta  occ. eigenvalues --   -0.93885  -0.92360  -0.91718  -0.82359  -0.77752
  Beta  occ. eigenvalues --   -0.69385  -0.67208  -0.60150  -0.58852  -0.52187
  Beta  occ. eigenvalues --   -0.50777  -0.49921  -0.46743  -0.45017  -0.40422
  Beta  occ. eigenvalues --   -0.39343  -0.38508  -0.37978  -0.37399  -0.35174
  Beta  occ. eigenvalues --   -0.34080  -0.33713  -0.31874  -0.31807  -0.30925
  Beta  occ. eigenvalues --   -0.30357  -0.30061  -0.27016  -0.26228  -0.25455
  Beta  occ. eigenvalues --   -0.22177  -0.19697  -0.19251  -0.18152  -0.16723
  Beta  occ. eigenvalues --   -0.15102  -0.13294
  Beta virt. eigenvalues --    0.07185   0.07856   0.08371   0.09060   0.10010
  Beta virt. eigenvalues --    0.10212   0.10248   0.10577   0.11066   0.11336
  Beta virt. eigenvalues --    0.11907   0.12527   0.13661   0.14253   0.14444

 Mulliken charges and spin densities:
               1          2
     1  C   -1.188566   0.550120
     2  C   -0.393216   1.009748
     3  N   -0.046090  -0.075410
     4  C   -0.077674   0.005715
     5  N   -0.150297  -0.004712
     6  C    2.031749  -2.698985
     7  N   -0.283949   0.191122
     8  C    0.320153  -0.549420
     9  O   -0.379207   0.092600
    10  C    0.525820  -0.590743
    11  C   -0.065765  -0.209481
    12  C    0.258686  -0.439118
    13  O   -0.235935   0.027104
    14  O   -0.096151   0.021773
    15  H    0.020518   0.118011
    16  H    0.144870   0.177883
    17  H    0.035883   0.105735
    18  H    0.296982  -0.099755
    19  H   -0.978164   1.210476
    20  H   -0.297688   0.612973
    21  H    0.184982  -0.010861
    22  H   -0.496563   0.718359
    23  H   -0.701318   0.914432
    24  H    0.327510  -0.116911
    25  H    0.243429   0.039348
 Sum of Mulliken charges =  -1.00000   1.00000

 Dipole moment (field-independent basis, Debye):
    X=             -4.2143    Y=              1.9149    Z=             -2.1868  Tot=              5.1195
 Quadrupole moment (field-independent basis, Debye-Ang):
   XX=           -137.7638   YY=           -132.5429   ZZ=           -107.6822
   XY=             -3.2566   XZ=              4.6939   YZ=              5.4481

 Summary of Natural Population Analysis:

                                       Natural Population
                Natural  -----------------------------------------------
    Atom  No    Charge         Core      Valence    Rydberg      Total
 -----------------------------------------------------------------------
      C    1   -0.03907      0.99950     2.02578    0.01379     3.03907
      C    2    0.05195      0.99952     1.93415    0.01438     2.94805
      N    3   -0.27292      0.99966     2.76447    0.00880     3.77292
      C    4    0.09780      0.99966     1.88596    0.01659     2.90220
      N    5   -0.26456      0.99973     2.75429    0.01053     3.76456
      C    6   -0.10474      0.99956     2.09350    0.01168     3.10474
      N    7   -0.32369      0.99968     2.81056    0.01345     3.82369
      C    8    0.35559      0.99966     1.62116    0.02359     2.64441
      O    9   -0.32061      0.99988     3.31497    0.00577     4.32061
      C   10   -0.23129      0.99957     2.22227    0.00945     3.23129
      C   11   -0.23594      0.99957     2.22694    0.00943     3.23594
      C   12    0.41463      0.99972     1.56007    0.02558     2.58537
      O   13   -0.31370      0.99987     3.30762    0.00622     4.31370
      O   14   -0.34554      0.99987     3.33934    0.00633     4.34554
      H   15    0.10000      0.00000     0.39889    0.00111     0.40000
      H   16    0.21364      0.00000     0.28414    0.00222     0.28636
      H   17    0.09227      0.00000     0.40670    0.00104     0.40773
      H   18    0.11510      0.00000     0.38337    0.00153     0.38490
      H   19    0.11195      0.00000     0.38391    0.00414     0.38805
      H   20    0.19202      0.00000     0.30056    0.00742     0.30798
      H   21    0.10949      0.00000     0.38905    0.00147     0.39051
      H   22    0.12050      0.00000     0.37657    0.00294     0.37950
      H   23    0.12050      0.00000     0.37529    0.00421     0.37950
      H   24    0.11171      0.00000     0.38697    0.00132     0.38829
      H   25    0.24491      0.00000     0.25166    0.00344     0.25509
 =======================================================================
   * Total *   -0.00000     13.99544    37.79816    0.20640    52.00000

 Normal termination of Gaussian 16 at Thu Dec 10 11:07:09 2020.
