 Gaussian 16, Revision A.03,

 -----------------------------------------------------------
 # opt freq B3LYP/6-31G(d) empiricaldispersion=gd3bj scf=xqc
 -----------------------------------------------------------

 ------------------------------
 CID_22249279_JID_4759_neutraal
 ------------------------------
 Symbolic Z-matrix:
 Charge =  0 Multiplicity = 1

 SCF Done:  E(RB3LYP) =  -669.260454515     A.U. after   15 cycles
 SCF Done:  E(RB3LYP) =  -669.262655599     A.U. after   14 cycles
 SCF Done:  E(RB3LYP) =  -669.262006614     A.U. after   14 cycles
 SCF Done:  E(RB3LYP) =  -669.259280713     A.U. after   14 cycles
 SCF Done:  E(RB3LYP) =  -669.258115138     A.U. after   14 cycles
 SCF Done:  E(RB3LYP) =  -669.262798103     A.U. after    9 cycles
 SCF Done:  E(RB3LYP) =  -669.263233186     A.U. after   14 cycles
 SCF Done:  E(RB3LYP) =  -669.263289283     A.U. after   11 cycles
 SCF Done:  E(RB3LYP) =  -669.263305325     A.U. after   12 cycles
 SCF Done:  E(RB3LYP) =  -669.263314922     A.U. after   11 cycles
 SCF Done:  E(RB3LYP) =  -669.263317514     A.U. after   11 cycles
 SCF Done:  E(RB3LYP) =  -669.263318014     A.U. after    8 cycles
 SCF Done:  E(RB3LYP) =  -669.263318119     A.U. after    8 cycles
 SCF Done:  E(RB3LYP) =  -669.263318145     A.U. after    8 cycles
 Optimization completed.
    -- Stationary point found.
 Normal termination of Gaussian 16 at Thu Dec 10 10:22:13 2020.

 --------------------------------------------------------------------
 #N Geom=AllCheck Guess=TCheck SCRF=Check GenChk RB3LYP/6-31G(d) Freq
 --------------------------------------------------------------------

 Structure from the checkpoint file:  "JID_4759.chk"
 ------------------------------
 CID_22249279_JID_4759_neutraal
 ------------------------------
 Charge =  0 Multiplicity = 1

 SCF Done:  E(RB3LYP) =  -669.263318145     A.U. after    1 cycles

  Exact polarizability: 172.539   2.704 122.092   3.154  -7.546  70.883
 Approx polarizability: 243.026  -0.237 229.376   5.407 -18.149 105.549

                      1                      2                      3
                      A                      A                      A
 Frequencies --     23.1757                63.1387                70.6860
 Red. masses --      4.8669                 7.4593                 4.9471
 Frc consts  --      0.0015                 0.0175                 0.0146
 IR Inten    --      0.2873                 0.0881                 0.3795

                      4                      5                      6
                      A                      A                      A
 Frequencies --    136.5537               160.7846               191.2459
 Red. masses --      3.9135                 3.5101                 4.5235
 Frc consts  --      0.0430                 0.0535                 0.0975
 IR Inten    --      1.2003                 3.4914                 4.0408

                      7                      8                      9
                      A                      A                      A
 Frequencies --    247.6814               252.4670               275.0776
 Red. masses --      3.0988                 1.4315                 2.5291
 Frc consts  --      0.1120                 0.0538                 0.1128
 IR Inten    --      4.8239                 3.9892                 0.7824

                     10                     11                     12
                      A                      A                      A
 Frequencies --    291.3423               326.5238               341.3769
 Red. masses --      2.5421                 1.3795                 2.2330
 Frc consts  --      0.1271                 0.0867                 0.1533
 IR Inten    --      9.6443                 2.8427                10.8250

                     13                     14                     15
                      A                      A                      A
 Frequencies --    365.1479               369.8133               396.0234
 Red. masses --      1.2594                 3.1317                 2.6886
 Frc consts  --      0.0989                 0.2523                 0.2484
 IR Inten    --     94.4942                20.3372                13.9256

                     16                     17                     18
                      A                      A                      A
 Frequencies --    421.8801               444.6698               528.5475
 Red. masses --      3.0299                 3.2985                 5.2272
 Frc consts  --      0.3177                 0.3843                 0.8604
 IR Inten    --      1.2419                 1.1210                 0.3289

                     19                     20                     21
                      A                      A                      A
 Frequencies --    545.6261               569.5786               597.6515
 Red. masses --      3.9428                 3.4209                 3.7764
 Frc consts  --      0.6916                 0.6539                 0.7947
 IR Inten    --      4.6204                11.2715                 3.6709

                     22                     23                     24
                      A                      A                      A
 Frequencies --    650.9964               717.0631               743.3872
 Red. masses --      7.0982                 3.7690                 6.2198
 Frc consts  --      1.7724                 1.1418                 2.0251
 IR Inten    --      0.3939                27.7678                16.1948

                     25                     26                     27
                      A                      A                      A
 Frequencies --    771.6324               847.0604               855.9801
 Red. masses --      5.1699                 2.7991                 1.2817
 Frc consts  --      1.8137                 1.1833                 0.5533
 IR Inten    --      5.6011                 2.0227                 0.9509

                     28                     29                     30
                      A                      A                      A
 Frequencies --    874.7553               884.6552               910.0068
 Red. masses --      5.1985                 1.7986                 1.8472
 Frc consts  --      2.3437                 0.8293                 0.9013
 IR Inten    --     38.0290                23.3976                12.9327

                     31                     32                     33
                      A                      A                      A
 Frequencies --    960.9945               984.3418               998.9205
 Red. masses --      1.4244                 1.3291                 1.5915
 Frc consts  --      0.7751                 0.7588                 0.9356
 IR Inten    --      2.7118                 0.9642                21.3294

                     34                     35                     36
                      A                      A                      A
 Frequencies --   1006.4863              1037.4143              1042.2637
 Red. masses --      1.3795                 1.7633                 1.9254
 Frc consts  --      0.8234                 1.1181                 1.2323
 IR Inten    --      5.3108                 0.7394                 8.0975

                     37                     38                     39
                      A                      A                      A
 Frequencies --   1088.7371              1130.7662              1139.4972
 Red. masses --      4.5538                 2.2146                 2.1571
 Frc consts  --      3.1803                 1.6684                 1.6502
 IR Inten    --     81.3849                13.5176                30.4699

                     40                     41                     42
                      A                      A                      A
 Frequencies --   1145.4300              1173.8994              1227.6638
 Red. masses --      1.8420                 1.7006                 1.8628
 Frc consts  --      1.4239                 1.3808                 1.6542
 IR Inten    --      8.7034                 7.5702                 4.3571

                     43                     44                     45
                      A                      A                      A
 Frequencies --   1232.0900              1248.4286              1317.2495
 Red. masses --      1.3483                 2.3048                 2.3084
 Frc consts  --      1.2059                 2.1165                 2.3599
 IR Inten    --      0.2291                 8.4358                16.8445

                     46                     47                     48
                      A                      A                      A
 Frequencies --   1343.3888              1373.5137              1400.0544
 Red. masses --      1.5484                 4.4047                11.8405
 Frc consts  --      1.6464                 4.8959                13.6744
 IR Inten    --      1.1280                 2.7989               402.5559

                     49                     50                     51
                      A                      A                      A
 Frequencies --   1413.4118              1425.1826              1427.5353
 Red. masses --      1.2381                 1.3207                 1.1904
 Frc consts  --      1.4573                 1.5805                 1.4293
 IR Inten    --      2.0276                 2.5162                35.9716

                     52                     53                     54
                      A                      A                      A
 Frequencies --   1454.3258              1459.0838              1518.9435
 Red. masses --      1.2436                 2.5982                 1.0645
 Frc consts  --      1.5498                 3.2590                 1.4471
 IR Inten    --     12.6714                 1.6447                 1.2887

                     55                     56                     57
                      A                      A                      A
 Frequencies --   1523.4675              1525.5077              1539.4473
 Red. masses --      1.0622                 1.0987                 1.1191
 Frc consts  --      1.4525                 1.5064                 1.5626
 IR Inten    --      0.6422                 2.6494                 9.6990

                     58                     59                     60
                      A                      A                      A
 Frequencies --   1546.8964              1551.0512              1614.0497
 Red. masses --      1.4038                 1.2974                10.0828
 Frc consts  --      1.9791                 1.8390                15.4762
 IR Inten    --      1.6467                20.8503               119.2650

                     61                     62                     63
                      A                      A                      A
 Frequencies --   1659.6345              1669.9552              3008.3148
 Red. masses --      5.6352                 9.1336                 1.0698
 Frc consts  --      9.1450                15.0073                 5.7042
 IR Inten    --     38.7923                87.5864                62.9818

                     64                     65                     66
                      A                      A                      A
 Frequencies --   3043.0358              3054.3255              3112.6837
 Red. masses --      1.0396                 1.0364                 1.0956
 Frc consts  --      5.6718                 5.6967                 6.2542
 IR Inten    --     30.3792                23.0607                14.8143

                     67                     68                     69
                      A                      A                      A
 Frequencies --   3113.8595              3121.3641              3127.0099
 Red. masses --      1.0972                 1.1015                 1.1021
 Frc consts  --      6.2680                 6.3231                 6.3495
 IR Inten    --     10.9697                52.9845                28.7163

                     70                     71                     72
                      A                      A                      A
 Frequencies --   3133.4060              3233.2451              3243.6415
 Red. masses --      1.1021                 1.0879                 1.0884
 Frc consts  --      6.3756                 6.7004                 6.7470
 IR Inten    --     20.0432                 6.0854                 1.5487

                     73                     74                     75
                      A                      A                      A
 Frequencies --   3253.0360              3255.4296              3755.5821
 Red. masses --      1.0932                 1.0941                 1.0661
 Frc consts  --      6.8159                 6.8317                 8.8593
 IR Inten    --      1.0145                 0.3216                20.3921

 - Thermochemistry -
 -------------------
 Temperature   298.150 Kelvin.  Pressure   1.00000 Atm.
 Atom     1 has atomic number  6 and mass  12.00000

 Molecular mass:   195.08954 amu.
 Principal axes and moments of inertia in atomic units:
                           1         2         3
     Eigenvalues --  1136.948275133.931535807.68419
           X            0.99997   0.00713   0.00385
           Y           -0.00707   0.99983  -0.01708
           Z           -0.00397   0.01705   0.99985
 This molecule is an asymmetric top.
 Rotational symmetry number  1.
 Warning -- assumption of classical behavior for rotation
           may cause significant error
 Rotational temperatures (Kelvin)      0.07618     0.01687     0.01491
 Rotational constants (GHZ):           1.58736     0.35153     0.31075
 Zero-point vibrational energy     583233.9 (Joules/Mol)
                                  139.39625 (Kcal/Mol)
 Warning -- explicit consideration of  21 degrees of freedom as
           vibrations may cause significant error
 Vibrational temperatures:     33.34    90.84   101.70   196.47   231.33
          (Kelvin)            275.16   356.36   363.24   395.78   419.18
                              469.79   491.17   525.37   532.08   569.79
                              606.99   639.78   760.46   785.03   819.50
                              859.89   936.64  1031.69  1069.57  1110.21
                             1218.73  1231.56  1258.58  1272.82  1309.30
                             1382.66  1416.25  1437.22  1448.11  1492.61
                             1499.59  1566.45  1626.92  1639.48  1648.02
                             1688.98  1766.33  1772.70  1796.21  1895.23
                             1932.84  1976.18  2014.37  2033.58  2050.52
                             2053.90  2092.45  2099.30  2185.42  2191.93
                             2194.87  2214.92  2225.64  2231.62  2322.26
                             2387.84  2402.69  4328.29  4378.25  4394.49
                             4478.46  4480.15  4490.95  4499.07  4508.27
                             4651.92  4666.88  4680.39  4683.84  5403.44

 Zero-point correction=                           0.222142 (Hartree/Particle)
 Thermal correction to Energy=                    0.235432
 Thermal correction to Enthalpy=                  0.236376
 Thermal correction to Gibbs Free Energy=         0.181701
 Sum of electronic and zero-point Energies=           -669.041176
 Sum of electronic and thermal Energies=              -669.027886
 Sum of electronic and thermal Enthalpies=            -669.026942
 Sum of electronic and thermal Free Energies=         -669.081618

                     E (Thermal)             CV                S
                      KCal/Mol        Cal/Mol-Kelvin    Cal/Mol-Kelvin
 Total                  147.736             50.904            115.074
 Electronic               0.000              0.000              0.000
 Translational            0.889              2.981             41.710
 Rotational               0.889              2.981             31.894
 Vibrational            145.958             44.943             41.469
 Vibration     1          0.593              1.985              6.342
 Vibration     2          0.597              1.972              4.357
 Vibration     3          0.598              1.968              4.134
 Vibration     4          0.614              1.917              2.852
 Vibration     5          0.622              1.890              2.541
 Vibration     6          0.634              1.852              2.216
 Vibration     7          0.661              1.767              1.747
 Vibration     8          0.664              1.759              1.713
 Vibration     9          0.677              1.719              1.564
 Vibration    10          0.687              1.690              1.466
 Vibration    11          0.710              1.622              1.277
 Vibration    12          0.721              1.593              1.206
 Vibration    13          0.738              1.544              1.100
 Vibration    14          0.742              1.534              1.081
 Vibration    15          0.763              1.479              0.977
 Vibration    16          0.784              1.423              0.886
 Vibration    17          0.804              1.373              0.812
 Vibration    18          0.884              1.187              0.590
 Vibration    19          0.901              1.149              0.553
 Vibration    20          0.926              1.097              0.505
 Vibration    21          0.956              1.037              0.454

 Optimization completed.
    -- Stationary point found.
 Normal termination of Gaussian 16 at Thu Dec 10 10:29:35 2020.

 ----------------------------------------------------------------------
 # B3LYP/6-311++G(d,p) empiricaldispersion=gd3bj scf=xqc pop=npa geom=c
 heck
 ----------------------------------------------------------------------

 --------------------------------------
 CID_22249279_JID_4759_Energie_neutraal
 --------------------------------------
 Structure from the checkpoint file:  "JID_4759.chk"
 Charge =  0 Multiplicity = 1

 SCF Done:  E(RB3LYP) =  -669.460936159     A.U. after   15 cycles
 Normal termination of Gaussian 16 at Thu Dec 10 10:33:06 2020.

 ----------------------------------------------------------------------
 # B3LYP/6-311++G(d,p) empiricaldispersion=gd3bj scf=xqc pop=npa geom=c
 heck
 ----------------------------------------------------------------------

 ------------------------------------
 CID_22249279_JID_4759_Energie_kation
 ------------------------------------
 Structure from the checkpoint file:  "JID_4759.chk"
 Charge =  1 Multiplicity = 2

 SCF Done:  E(UB3LYP) =  -669.120245471     A.U. after   33 cycles
 SCF Done:  E(UB3LYP) =  -669.120245471     a.u. after    2 cycles
 Normal termination of Gaussian 16 at Thu Dec 10 10:51:19 2020.
 Gaussian 16:  ES64L-G16RevA.03 25-Dec-2016

 ----------------------------------------------------------------------
 # B3LYP/6-311++G(d,p) empiricaldispersion=gd3bj scf=xqc pop=npa geom=c
 heck
 ----------------------------------------------------------------------

 -----------------------------------
 CID_22249279_JID_4759_Energie_anion
 -----------------------------------
 Structure from the checkpoint file:  "JID_4759.chk"
 Charge = -1 Multiplicity = 2

                         Standard orientation:
 ---------------------------------------------------------------------
 Center     Atomic      Atomic             Coordinates (Angstroms)
 Number     Number       Type             X           Y           Z
 ---------------------------------------------------------------------
      1          6           0        2.772717    0.061333    1.524926
      2          6           0        2.288217    0.401142    0.099304
      3          6           0        2.773340    1.816403   -0.257832
      4          6           0        2.956142   -0.564368   -0.921818
      5          8           0        2.872412   -1.947335   -0.602697
      6          6           0        0.761653    0.277486    0.045647
      7          6           0       -0.071770    1.391927   -0.134601
      8          6           0       -1.458523    1.268315   -0.156470
      9          6           0       -2.021262    0.007127    0.001858
     10          6           0       -1.229599   -1.125650    0.175405
     11          6           0        0.152051   -0.982018    0.199450
     12          7           0       -3.481322   -0.132874   -0.017373
     13          8           0       -4.153204    0.886553   -0.179866
     14          8           0       -3.950744   -1.261589    0.130700
     15          1           0        3.867867    0.112489    1.583194
     16          1           0        2.452749   -0.938072    1.834473
     17          1           0        2.364779    0.774198    2.248428
     18          1           0        3.866519    1.858284   -0.209998
     19          1           0        2.470068    2.107965   -1.269704
     20          1           0        2.388274    2.563235    0.443168
     21          1           0        2.472750   -0.453854   -1.896868
     22          1           0        4.009586   -0.266007   -1.035435
     23          1           0        3.465237   -2.111852    0.145957
     24          1           0        0.353591    2.379551   -0.261992
     25          1           0       -2.102300    2.127937   -0.293361
     26          1           0       -1.700329   -2.094247    0.286917
     27          1           0        0.774953   -1.860732    0.306525
 ---------------------------------------------------------------------

 SCF Done:  E(UB3LYP) =  -669.492645794     A.U. after   28 cycles

 The electronic state is 2-A.
 Alpha  occ. eigenvalues --  -19.03816 -18.93049 -18.93044 -14.30659 -10.12398
 Alpha  occ. eigenvalues --  -10.08934 -10.07240 -10.07138 -10.04768 -10.03788
 Alpha  occ. eigenvalues --  -10.03719 -10.03123 -10.02584 -10.02569  -1.01098
 Alpha  occ. eigenvalues --   -0.93945  -0.83965  -0.73772  -0.70420  -0.62442
 Alpha  occ. eigenvalues --   -0.61204  -0.60012  -0.58570  -0.53126  -0.47067
 Alpha  occ. eigenvalues --   -0.46461  -0.43073  -0.42036  -0.37534  -0.36300
 Alpha  occ. eigenvalues --   -0.35897  -0.34284  -0.33518  -0.32807  -0.31384
 Alpha  occ. eigenvalues --   -0.30554  -0.30037  -0.28921  -0.28518  -0.28259
 Alpha  occ. eigenvalues --   -0.27659  -0.25076  -0.24404  -0.22723  -0.21579
 Alpha  occ. eigenvalues --   -0.20625  -0.17932  -0.12833  -0.11723  -0.11494
 Alpha  occ. eigenvalues --   -0.10962  -0.08896   0.03610
 Alpha virt. eigenvalues --    0.05832   0.07669   0.08817   0.09534   0.10685
 Alpha virt. eigenvalues --    0.11243   0.11628   0.12307   0.12624   0.12696
 Alpha virt. eigenvalues --    0.14127   0.14467   0.14592   0.15429   0.16007

  Beta  occ. eigenvalues --  -19.03815 -18.92561 -18.92543 -14.30026 -10.12379
  Beta  occ. eigenvalues --  -10.08955 -10.07239 -10.07116 -10.04665 -10.03805
  Beta  occ. eigenvalues --  -10.03471 -10.03185 -10.02452 -10.02414  -1.00025
  Beta  occ. eigenvalues --   -0.93941  -0.83030  -0.73563  -0.70220  -0.61898
  Beta  occ. eigenvalues --   -0.61051  -0.59934  -0.58521  -0.52304  -0.46916
  Beta  occ. eigenvalues --   -0.46258  -0.42846  -0.41864  -0.37325  -0.36244
  Beta  occ. eigenvalues --   -0.35531  -0.34039  -0.32597  -0.31223  -0.30467
  Beta  occ. eigenvalues --   -0.30246  -0.29917  -0.28624  -0.28361  -0.28163
  Beta  occ. eigenvalues --   -0.27580  -0.24993  -0.24365  -0.22192  -0.21209
  Beta  occ. eigenvalues --   -0.20515  -0.17859  -0.11609  -0.10473  -0.10147
  Beta  occ. eigenvalues --   -0.08835  -0.08404
  Beta virt. eigenvalues --    0.05794   0.07625   0.08757   0.09480   0.10444
  Beta virt. eigenvalues --    0.10655   0.11281   0.11720   0.12318   0.12738
  Beta virt. eigenvalues --    0.12919   0.14109   0.14431   0.14954   0.15965

 Mulliken charges and spin densities:
               1          2
     1  C   -0.631938  -0.013186
     2  C    0.299662  -0.024979
     3  C   -0.503577   0.004605
     4  C   -0.601899  -0.003138
     5  O   -0.207403  -0.000044
     6  C    0.943569   0.202842
     7  C   -0.256189  -0.031552
     8  C   -0.639962   0.177759
     9  C   -0.177625  -0.039764
    10  C   -0.257002   0.169063
    11  C   -0.385381  -0.042652
    12  N   -0.296179   0.211071
    13  O   -0.187342   0.189509
    14  O   -0.187924   0.192666
    15  H    0.105086   0.016374
    16  H    0.152819  -0.002254
    17  H    0.147966   0.001869
    18  H    0.134111  -0.000074
    19  H    0.140650  -0.000553
    20  H    0.132929   0.000017
    21  H    0.198141  -0.000472
    22  H    0.122268   0.004298
    23  H    0.230385   0.001251
    24  H    0.105551   0.003421
    25  H    0.218781  -0.009881
    26  H    0.219084  -0.008632
    27  H    0.181417   0.002435
 Sum of Mulliken charges =  -1.00000   1.00000

 Dipole moment (field-independent basis, Debye):
    X=             14.3185    Y=              1.4090    Z=              0.8089  Tot=             14.4104
 Quadrupole moment (field-independent basis, Debye-Ang):
   XX=           -152.8816   YY=            -96.7987   ZZ=            -91.2445
   XY=             -1.5197   XZ=              2.0836   YZ=             -2.6814

 Summary of Natural Population Analysis:

                                       Natural Population
                Natural  -----------------------------------------------
    Atom  No    Charge         Core      Valence    Rydberg      Total
 -----------------------------------------------------------------------
      C    1   -0.28475      0.99964     2.27843    0.00669     3.28475
      C    2   -0.06018      0.99955     2.05176    0.00887     3.06018
      C    3   -0.28633      0.99964     2.28072    0.00597     3.28633
      C    4   -0.00070      0.99953     1.98801    0.01316     3.00070
      O    5   -0.36600      0.99990     3.35931    0.00679     4.36600
      C    6    0.02985      0.99949     1.96022    0.01044     2.97015
      C    7   -0.13147      0.99953     2.12376    0.00819     3.13147
      C    8   -0.06650      0.99953     2.05686    0.01011     3.06650
      C    9    0.05434      0.99940     1.93179    0.01447     2.94566
      C   10   -0.06943      0.99953     2.05986    0.01004     3.06943
      C   11   -0.12734      0.99953     2.11941    0.00840     3.12734
      N   12    0.30654      0.99972     2.16744    0.02629     3.19346
      O   13   -0.19778      0.99990     3.19016    0.00772     4.19778
      O   14   -0.19495      0.99990     3.18734    0.00772     4.19495
      H   15    0.08777      0.00000     0.41122    0.00101     0.41223
      H   16    0.10175      0.00000     0.39721    0.00104     0.39825
      H   17    0.10464      0.00000     0.39458    0.00078     0.39536
      H   18    0.09293      0.00000     0.40606    0.00100     0.40707
      H   19    0.10243      0.00000     0.39668    0.00089     0.39757
      H   20    0.10244      0.00000     0.39664    0.00092     0.39756
      H   21    0.09216      0.00000     0.40683    0.00101     0.40784
      H   22    0.06919      0.00000     0.42951    0.00130     0.43081
      H   23    0.22384      0.00000     0.27363    0.00253     0.27616
      H   24    0.09165      0.00000     0.40697    0.00138     0.40835
      H   25    0.11127      0.00000     0.38757    0.00116     0.38873
      H   26    0.11169      0.00000     0.38717    0.00113     0.38831
      H   27    0.10294      0.00000     0.39589    0.00118     0.39706
 =======================================================================
   * Total *    0.00000     13.99478    37.84505    0.16017    52.00000

 Normal termination of Gaussian 16 at Thu Dec 10 11:00:25 2020.
