 Gaussian 16, Revision A.03,

 -----------------------------------------------------------
 # opt freq B3LYP/6-31G(d) empiricaldispersion=gd3bj scf=xqc
 -----------------------------------------------------------

 -------------------------------
 CID_115726318_JID_4154_neutraal
 -------------------------------
 Symbolic Z-matrix:
 Charge =  0 Multiplicity = 1

 SCF Done:  E(RB3LYP) =  -601.105607111     A.U. after   13 cycles
 SCF Done:  E(RB3LYP) =  -601.112993331     A.U. after   11 cycles
 SCF Done:  E(RB3LYP) =  -601.113997093     A.U. after   11 cycles
 SCF Done:  E(RB3LYP) =  -601.114218927     A.U. after   11 cycles
 SCF Done:  E(RB3LYP) =  -601.114803961     A.U. after   11 cycles
 SCF Done:  E(RB3LYP) =  -601.114902139     A.U. after   10 cycles
 SCF Done:  E(RB3LYP) =  -601.114928870     A.U. after   10 cycles
 SCF Done:  E(RB3LYP) =  -601.114954740     A.U. after   10 cycles
 SCF Done:  E(RB3LYP) =  -601.114972879     A.U. after   10 cycles
 SCF Done:  E(RB3LYP) =  -601.114998697     A.U. after   11 cycles
 SCF Done:  E(RB3LYP) =  -601.116826236     A.U. after    9 cycles
 SCF Done:  E(RB3LYP) =  -601.116836936     A.U. after   10 cycles
 SCF Done:  E(RB3LYP) =  -601.116843666     A.U. after    8 cycles
 SCF Done:  E(RB3LYP) =  -601.116850921     A.U. after    9 cycles
 SCF Done:  E(RB3LYP) =  -601.116851356     A.U. after    7 cycles
 SCF Done:  E(RB3LYP) =  -601.116851707     A.U. after    7 cycles
 Optimization completed.
    -- Stationary point found.
 Normal termination of Gaussian 16 at Thu Dec 10 09:31:17 2020.

 --------------------------------------------------------------------
 #N Geom=AllCheck Guess=TCheck SCRF=Check GenChk RB3LYP/6-31G(d) Freq
 --------------------------------------------------------------------

 Structure from the checkpoint file:  "JID_4154.chk"
 -------------------------------
 CID_115726318_JID_4154_neutraal
 -------------------------------
 Charge =  0 Multiplicity = 1

 SCF Done:  E(RB3LYP) =  -601.116851707     A.U. after    1 cycles

  Exact polarizability: 149.385   1.285 129.594   4.728  -0.113 115.404
 Approx polarizability: 182.129   3.501 180.103   6.865  -3.087 177.537

                      1                      2                      3
                      A                      A                      A
 Frequencies --     37.4704                46.0915                58.7524
 Red. masses --      3.9911                 3.5478                 3.6262
 Frc consts  --      0.0033                 0.0044                 0.0074
 IR Inten    --      0.0088                 0.7045                 0.5710

                      4                      5                      6
                      A                      A                      A
 Frequencies --     68.9333               110.5931               114.4782
 Red. masses --      1.7636                 2.9898                 2.5399
 Frc consts  --      0.0049                 0.0215                 0.0196
 IR Inten    --      0.0783                 2.0865                 0.2504

                      7                      8                      9
                      A                      A                      A
 Frequencies --    131.6857               159.1621               202.5892
 Red. masses --      2.6542                 2.9653                 3.7745
 Frc consts  --      0.0271                 0.0443                 0.0913
 IR Inten    --      1.3987                 2.4572                 1.3133

                     10                     11                     12
                      A                      A                      A
 Frequencies --    213.7160               235.3056               274.0648
 Red. masses --      2.5816                 1.2018                 2.3698
 Frc consts  --      0.0695                 0.0392                 0.1049
 IR Inten    --      0.2008                 0.5154                 3.0997

                     13                     14                     15
                      A                      A                      A
 Frequencies --    310.4368               331.6070               340.1149
 Red. masses --      2.1469                 2.2600                 1.7541
 Frc consts  --      0.1219                 0.1464                 0.1196
 IR Inten    --      1.3825                14.3748                40.0038

                     16                     17                     18
                      A                      A                      A
 Frequencies --    362.2790               387.8356               422.1262
 Red. masses --      1.8220                 1.6890                 2.0758
 Frc consts  --      0.1409                 0.1497                 0.2179
 IR Inten    --      5.3061                63.2512                10.6059

                     19                     20                     21
                      A                      A                      A
 Frequencies --    483.5223               501.8763               553.7735
 Red. masses --      2.9209                 2.7079                 3.2171
 Frc consts  --      0.4023                 0.4019                 0.5813
 IR Inten    --      7.2890                 5.3846                 4.3683

                     22                     23                     24
                      A                      A                      A
 Frequencies --    622.4099               666.5122               698.8683
 Red. masses --      2.1984                 2.1014                 2.1470
 Frc consts  --      0.5018                 0.5500                 0.6178
 IR Inten    --     18.5676                30.0775                 4.2272

                     25                     26                     27
                      A                      A                      A
 Frequencies --    768.8101               785.0806               803.1562
 Red. masses --      2.3708                 1.4093                 1.0333
 Frc consts  --      0.8256                 0.5118                 0.3927
 IR Inten    --     22.6140                 0.5903                 0.7297

                     28                     29                     30
                      A                      A                      A
 Frequencies --    815.9575               857.3401               865.4406
 Red. masses --      1.3921                 2.7873                 2.2528
 Frc consts  --      0.5461                 1.2071                 0.9942
 IR Inten    --      2.8794                 6.6725                 9.9258

                     31                     32                     33
                      A                      A                      A
 Frequencies --    895.8011               906.4237               934.1076
 Red. masses --      2.1081                 2.7055                 1.8429
 Frc consts  --      0.9967                 1.3097                 0.9474
 IR Inten    --      7.1979                 0.9760                 9.4478

                     34                     35                     36
                      A                      A                      A
 Frequencies --    952.3213               954.3364               955.6709
 Red. masses --      1.8887                 1.3913                 1.9038
 Frc consts  --      1.0092                 0.7466                 1.0244
 IR Inten    --      4.9689                 1.9356                 1.2836

                     37                     38                     39
                      A                      A                      A
 Frequencies --    959.0240              1002.1621              1014.9559
 Red. masses --      1.6468                 2.2704                 1.7758
 Frc consts  --      0.8924                 1.3435                 1.0778
 IR Inten    --      1.2905                 1.6012                 0.1316

                     40                     41                     42
                      A                      A                      A
 Frequencies --   1029.8713              1038.4612              1056.1082
 Red. masses --      1.8504                 1.7764                 1.7088
 Frc consts  --      1.1563                 1.1287                 1.1229
 IR Inten    --     20.6299                 3.0820                 4.0672

                     43                     44                     45
                      A                      A                      A
 Frequencies --   1062.2698              1075.7889              1079.5222
 Red. masses --      1.6649                 1.8283                 3.9071
 Frc consts  --      1.1069                 1.2467                 2.6827
 IR Inten    --     24.1215                12.9220                37.0204

                     46                     47                     48
                      A                      A                      A
 Frequencies --   1087.0861              1094.2226              1144.6781
 Red. masses --      1.4402                 1.9521                 2.0010
 Frc consts  --      1.0028                 1.3771                 1.5448
 IR Inten    --      1.1586                 9.3222                11.0267

                     49                     50                     51
                      A                      A                      A
 Frequencies --   1158.0156              1180.6288              1198.9080
 Red. masses --      3.0356                 2.2367                 1.2857
 Frc consts  --      2.3984                 1.8369                 1.0888
 IR Inten    --     55.5303                 7.5212                 3.5976

                     52                     53                     54
                      A                      A                      A
 Frequencies --   1218.2816              1222.0347              1234.8731
 Red. masses --      1.3409                 1.4233                 1.4471
 Frc consts  --      1.1726                 1.2523                 1.3001
 IR Inten    --      9.4842                 7.6998                 8.5882

                     55                     56                     57
                      A                      A                      A
 Frequencies --   1254.7089              1282.0523              1296.1637
 Red. masses --      1.3612                 1.2764                 1.2843
 Frc consts  --      1.2626                 1.2361                 1.2713
 IR Inten    --      1.8874                 3.0201                 0.1063

                     58                     59                     60
                      A                      A                      A
 Frequencies --   1317.4494              1321.7232              1330.4076
 Red. masses --      1.3346                 1.5010                 2.0154
 Frc consts  --      1.3649                 1.5450                 2.1017
 IR Inten    --      0.3645                 4.2863                 3.2572

                     61                     62                     63
                      A                      A                      A
 Frequencies --   1340.9304              1341.7200              1358.3508
 Red. masses --      1.2198                 1.3174                 1.4459
 Frc consts  --      1.2922                 1.3973                 1.5718
 IR Inten    --      4.4934                 1.3267                 1.9240

                     64                     65                     66
                      A                      A                      A
 Frequencies --   1362.7677              1378.9335              1390.6059
 Red. masses --      1.5396                 1.2518                 1.4334
 Frc consts  --      1.6846                 1.4024                 1.6332
 IR Inten    --      4.7452                 7.2554                 0.4584

                     67                     68                     69
                      A                      A                      A
 Frequencies --   1413.0508              1416.9470              1429.2724
 Red. masses --      1.4020                 1.5038                 1.2830
 Frc consts  --      1.6493                 1.7789                 1.5442
 IR Inten    --      9.7804                11.9645                15.0459

                     70                     71                     72
                      A                      A                      A
 Frequencies --   1439.8502              1451.2629              1492.7891
 Red. masses --      1.2455                 1.4266                 1.0875
 Frc consts  --      1.5213                 1.7703                 1.4278
 IR Inten    --      0.6340                55.3903                 2.8301

                     73                     74                     75
                      A                      A                      A
 Frequencies --   1506.9713              1513.1444              1519.5316
 Red. masses --      1.2032                 1.0866                 1.1095
 Frc consts  --      1.6099                 1.4659                 1.5093
 IR Inten    --     30.3124                 1.3892                 1.0848

                     76                     77                     78
                      A                      A                      A
 Frequencies --   1523.5618              1525.5793              1531.7994
 Red. masses --      1.0996                 1.0924                 1.1515
 Frc consts  --      1.5039                 1.4979                 1.5919
 IR Inten    --      4.4404                 5.7422                 6.1783

                     79                     80                     81
                      A                      A                      A
 Frequencies --   1532.1403              1539.2825              1541.4308
 Red. masses --      1.1033                 1.0738                 1.1479
 Frc consts  --      1.5259                 1.4990                 1.6070
 IR Inten    --      1.0877                 2.7710                 6.7913

                     82                     83                     84
                      A                      A                      A
 Frequencies --   1545.2387              2993.3424              2996.9274
 Red. masses --      1.1062                 1.0732                 1.0825
 Frc consts  --      1.5562                 5.6654                 5.7285
 IR Inten    --      2.2699                75.3480                26.3232

                     85                     86                     87
                      A                      A                      A
 Frequencies --   3014.3338              3025.6521              3040.2260
 Red. masses --      1.0728                 1.0651                 1.0779
 Frc consts  --      5.7431                 5.7451                 5.8699
 IR Inten    --     50.9281                37.1394                10.3393

                     88                     89                     90
                      A                      A                      A
 Frequencies --   3042.3064              3051.5969              3061.3223
 Red. masses --      1.0365                 1.0693                 1.0602
 Frc consts  --      5.6522                 5.8670                 5.8543
 IR Inten    --     34.9371                50.7887                50.3093

                     91                     92                     93
                      A                      A                      A
 Frequencies --   3073.3234              3074.0671              3082.5775
 Red. masses --      1.0621                 1.0971                 1.1041
 Frc consts  --      5.9104                 6.1082                 6.1812
 IR Inten    --     31.5769                 8.1400                16.6227

                     94                     95                     96
                      A                      A                      A
 Frequencies --   3098.4630              3105.3046              3106.2329
 Red. masses --      1.1051                 1.0907                 1.0990
 Frc consts  --      6.2507                 6.1969                 6.2476
 IR Inten    --      6.0625                26.4682                48.0588

                     97                     98                     99
                      A                      A                      A
 Frequencies --   3107.0152              3114.6152              3117.8524
 Red. masses --      1.0928                 1.1026                 1.1049
 Frc consts  --      6.2157                 6.3018                 6.3282
 IR Inten    --     15.6691                62.9157                80.4770

                    100                    101                    102
                      A                      A                      A
 Frequencies --   3137.3498              3141.7757              3211.3728
 Red. masses --      1.0517                 1.0571                 1.1189
 Frc consts  --      6.0990                 6.1480                 6.7986
 IR Inten    --     19.3154                15.7129                 0.3282

                    103                    104                    105
                      A                      A                      A
 Frequencies --   3224.3596              3511.9814              3728.4038
 Red. masses --      1.1162                 1.0742                 1.0658
 Frc consts  --      6.8372                 7.8063                 8.7294
 IR Inten    --     21.9381                 0.4852                 9.1940

 - Thermochemistry -
 -------------------
 Temperature   298.150 Kelvin.  Pressure   1.00000 Atm.
 Atom     1 has atomic number  6 and mass  12.00000

 Molecular mass:   197.17796 amu.
 Principal axes and moments of inertia in atomic units:
                           1         2         3
     Eigenvalues --  1741.006864769.128685222.66160
           X            0.99995  -0.00907   0.00427
           Y            0.00902   0.99991   0.01026
           Z           -0.00436  -0.01022   0.99994
 This molecule is an asymmetric top.
 Rotational symmetry number  1.
 Warning -- assumption of classical behavior for rotation
           may cause significant error
 Rotational temperatures (Kelvin)      0.04975     0.01816     0.01658
 Rotational constants (GHZ):           1.03661     0.37842     0.34556
 Zero-point vibrational energy     895067.6 (Joules/Mol)
                                  213.92628 (Kcal/Mol)
 Warning -- explicit consideration of  21 degrees of freedom as
           vibrations may cause significant error
 Vibrational temperatures:     53.91    66.32    84.53    99.18   159.12
          (Kelvin)            164.71   189.47   229.00   291.48   307.49
                              338.55   394.32   446.65   477.11   489.35
                              521.24   558.01   607.35   695.68   722.09
                              796.76   895.51   958.96  1005.52  1106.15
                             1129.56  1155.56  1173.98  1233.52  1245.18
                             1288.86  1304.14  1343.97  1370.18  1373.08
                             1375.00  1379.82  1441.89  1460.30  1481.76
                             1494.11  1519.50  1528.37  1547.82  1553.19
                             1564.07  1574.34  1646.94  1666.13  1698.66
                             1724.96  1752.84  1758.24  1776.71  1805.25
                             1844.59  1864.89  1895.52  1901.66  1914.16
                             1929.30  1930.44  1954.36  1960.72  1983.98
                             2000.77  2033.06  2038.67  2056.40  2071.62
                             2088.04  2147.79  2168.20  2177.08  2186.27
                             2192.07  2194.97  2203.92  2204.41  2214.68
                             2217.78  2223.25  4306.75  4311.91  4336.95
                             4353.24  4374.21  4377.20  4390.57  4404.56
                             4421.83  4422.90  4435.14  4458.00  4467.84
                             4469.18  4470.30  4481.24  4485.89  4513.95
                             4520.31  4620.45  4639.13  5052.96  5364.34

 Zero-point correction=                           0.340913 (Hartree/Particle)
 Thermal correction to Energy=                    0.356399
 Thermal correction to Enthalpy=                  0.357344
 Thermal correction to Gibbs Free Energy=         0.297596
 Sum of electronic and zero-point Energies=           -600.775938
 Sum of electronic and thermal Energies=              -600.760452
 Sum of electronic and thermal Enthalpies=            -600.759508
 Sum of electronic and thermal Free Energies=         -600.819256

                     E (Thermal)             CV                S
                      KCal/Mol        Cal/Mol-Kelvin    Cal/Mol-Kelvin
 Total                  223.644             58.899            125.750
 Electronic               0.000              0.000              0.000
 Translational            0.889              2.981             41.742
 Rotational               0.889              2.981             32.139
 Vibrational            221.867             52.938             51.869
 Vibration     1          0.594              1.982              5.389
 Vibration     2          0.595              1.979              4.978
 Vibration     3          0.596              1.974              4.499
 Vibration     4          0.598              1.969              4.184
 Vibration     5          0.606              1.941              3.258
 Vibration     6          0.607              1.937              3.192
 Vibration     7          0.612              1.922              2.921
 Vibration     8          0.621              1.892              2.560
 Vibration     9          0.639              1.836              2.109
 Vibration    10          0.644              1.820              2.012
 Vibration    11          0.655              1.787              1.838
 Vibration    12          0.676              1.721              1.570
 Vibration    13          0.699              1.654              1.360
 Vibration    14          0.714              1.612              1.252
 Vibration    15          0.720              1.595              1.212
 Vibration    16          0.736              1.550              1.112
 Vibration    17          0.756              1.496              1.008
 Vibration    18          0.784              1.422              0.885
 Vibration    19          0.840              1.287              0.701
 Vibration    20          0.857              1.246              0.653
 Vibration    21          0.909              1.131              0.536

 Optimization completed.
    -- Stationary point found.
 Normal termination of Gaussian 16 at Thu Dec 10 09:42:16 2020.

 ----------------------------------------------------------------------
 # B3LYP/6-311++G(d,p) empiricaldispersion=gd3bj scf=xqc pop=npa geom=c
 heck
 ----------------------------------------------------------------------

 ---------------------------------------
 CID_115726318_JID_4154_Energie_neutraal
 ---------------------------------------
 Structure from the checkpoint file:  "JID_4154.chk"
 Charge =  0 Multiplicity = 1

 SCF Done:  E(RB3LYP) =  -601.295892991     A.U. after   14 cycles
 Normal termination of Gaussian 16 at Thu Dec 10 09:46:58 2020.

 ----------------------------------------------------------------------
 # B3LYP/6-311++G(d,p) empiricaldispersion=gd3bj scf=xqc pop=npa geom=c
 heck
 ----------------------------------------------------------------------

 -------------------------------------
 CID_115726318_JID_4154_Energie_kation
 -------------------------------------
 Structure from the checkpoint file:  "JID_4154.chk"
 Charge =  1 Multiplicity = 2

 SCF Done:  E(UB3LYP) =  -601.006761888     A.U. after   19 cycles
 Normal termination of Gaussian 16 at Thu Dec 10 09:55:23 2020.
 Gaussian 16:  ES64L-G16RevA.03 25-Dec-2016

 ----------------------------------------------------------------------
 # B3LYP/6-311++G(d,p) empiricaldispersion=gd3bj scf=xqc pop=npa geom=c
 heck
 ----------------------------------------------------------------------

 ------------------------------------
 CID_115726318_JID_4154_Energie_anion
 ------------------------------------
 Structure from the checkpoint file:  "JID_4154.chk"
 Charge = -1 Multiplicity = 2

                         Standard orientation:
 ---------------------------------------------------------------------
 Center     Atomic      Atomic             Coordinates (Angstroms)
 Number     Number       Type             X           Y           Z
 ---------------------------------------------------------------------
      1          6           0        3.468248   -2.312990   -0.004097
      2          6           0        2.087646   -1.649886    0.023950
      3          6           0        2.134322   -0.169096    0.399560
      4          6           0        2.939112    0.716758   -0.578526
      5          6           0        2.373891    2.154833   -0.411657
      6          6           0        1.186400    2.015883    0.573386
      7          6           0        0.761560    0.543649    0.477009
      8          7           0       -0.019349    0.318780   -0.752235
      9          6           0       -1.069012   -0.692552   -0.682174
     10          6           0       -2.444822   -0.163010   -0.288823
     11          6           0       -3.310223    0.417566   -1.382032
     12          6           0       -3.654122   -0.926152   -0.785946
     13          6           0       -2.546616    0.476972    1.079652
     14          8           0       -2.158334   -0.402583    2.130627
     15          1           0        4.117458   -1.850717   -0.756088
     16          1           0        3.392313   -3.380172   -0.242046
     17          1           0        3.970456   -2.222608    0.967241
     18          1           0        1.611555   -1.745231   -0.959747
     19          1           0        1.446906   -2.185283    0.739031
     20          1           0        2.585388   -0.083493    1.401114
     21          1           0        4.015588    0.667049   -0.387898
     22          1           0        2.772160    0.362930   -1.601509
     23          1           0        2.035387    2.548025   -1.375847
     24          1           0        3.125044    2.855453   -0.032586
     25          1           0        0.362756    2.709109    0.360900
     26          1           0        1.517190    2.219286    1.598036
     27          1           0        0.203095    0.219950    1.365545
     28          1           0       -0.413024    1.192704   -1.089920
     29          1           0       -1.161252   -1.196061   -1.655733
     30          1           0       -0.756922   -1.457510    0.035107
     31          1           0       -3.952550    1.261159   -1.142176
     32          1           0       -2.906246    0.439282   -2.391003
     33          1           0       -3.485772   -1.812395   -1.392038
     34          1           0       -4.529533   -0.986750   -0.143181
     35          1           0       -1.871367    1.334762    1.154579
     36          1           0       -3.571646    0.850774    1.236480
     37          1           0       -2.663183   -1.222915    2.010559
 ---------------------------------------------------------------------

 SCF Done:  E(UB3LYP) =  -601.280211913     A.U. after   31 cycles

 The electronic state is 2-A.
 Alpha  occ. eigenvalues --  -19.02316 -14.19299 -10.11712 -10.09227 -10.09223
 Alpha  occ. eigenvalues --  -10.08618 -10.07714 -10.07409 -10.07051 -10.06981
 Alpha  occ. eigenvalues --  -10.06655 -10.06372 -10.06349 -10.06240  -0.92433
 Alpha  occ. eigenvalues --   -0.81301  -0.76874  -0.72537  -0.67376  -0.61555
 Alpha  occ. eigenvalues --   -0.60071  -0.59791  -0.56542  -0.51540  -0.50795
 Alpha  occ. eigenvalues --   -0.47427  -0.46247  -0.44963  -0.42128  -0.39969
 Alpha  occ. eigenvalues --   -0.38307  -0.37696  -0.36815  -0.35378  -0.34601
 Alpha  occ. eigenvalues --   -0.33733  -0.32956  -0.31073  -0.30705  -0.28862
 Alpha  occ. eigenvalues --   -0.28680  -0.27667  -0.27061  -0.26205  -0.24956
 Alpha  occ. eigenvalues --   -0.24512  -0.24208  -0.23118  -0.22308  -0.21701
 Alpha  occ. eigenvalues --   -0.21499  -0.19871  -0.19448  -0.17725  -0.12082
 Alpha  occ. eigenvalues --    0.04436
 Alpha virt. eigenvalues --    0.06029   0.06571   0.07208   0.07865   0.08413
 Alpha virt. eigenvalues --    0.08578   0.09498   0.09805   0.10160   0.10710
 Alpha virt. eigenvalues --    0.10913   0.11300   0.12035   0.12347   0.12704

  Beta  occ. eigenvalues --  -19.02290 -14.19292 -10.11691 -10.09225 -10.09210
  Beta  occ. eigenvalues --  -10.08618 -10.07695 -10.07369 -10.07041 -10.06970
  Beta  occ. eigenvalues --  -10.06649 -10.06358 -10.06335 -10.06230  -0.92378
  Beta  occ. eigenvalues --   -0.81289  -0.76854  -0.72520  -0.67355  -0.61531
  Beta  occ. eigenvalues --   -0.60033  -0.59745  -0.56505  -0.51497  -0.50706
  Beta  occ. eigenvalues --   -0.47400  -0.46195  -0.44935  -0.42086  -0.39939
  Beta  occ. eigenvalues --   -0.38250  -0.37665  -0.36769  -0.35353  -0.34581
  Beta  occ. eigenvalues --   -0.33702  -0.32930  -0.31045  -0.30677  -0.28834
  Beta  occ. eigenvalues --   -0.28660  -0.27638  -0.27027  -0.26183  -0.24930
  Beta  occ. eigenvalues --   -0.24493  -0.24185  -0.23098  -0.22291  -0.21678
  Beta  occ. eigenvalues --   -0.21482  -0.19837  -0.19423  -0.17695  -0.12067
  Beta virt. eigenvalues --    0.06262   0.07004   0.07198   0.07662   0.08361
  Beta virt. eigenvalues --    0.08889   0.08986   0.09764   0.09969   0.10547
  Beta virt. eigenvalues --    0.11232   0.11309   0.11553   0.12182   0.12510

 Mulliken charges and spin densities:
               1          2
     1  C    0.787168  -1.446928
     2  C   -0.383279   0.060048
     3  C   -0.710784   1.404575
     4  C   -0.188003  -0.291662
     5  C    0.310117  -0.788647
     6  C   -0.883432   0.484350
     7  C    0.427005  -1.174535
     8  N    0.075515   0.113752
     9  C    1.523163  -2.289382
    10  C   -3.441025   4.298385
    11  C    0.987648  -1.406631
    12  C    1.293603  -1.801514
    13  C    0.450507  -1.037825
    14  O   -0.230078   0.054584
    15  H   -0.010409   0.155989
    16  H   -0.139207   0.279141
    17  H   -0.140295   0.276297
    18  H    0.166257  -0.013631
    19  H   -0.008609   0.142359
    20  H   -0.077337   0.247586
    21  H    0.009679   0.119943
    22  H    0.057213   0.110338
    23  H    0.054237   0.086631
    24  H   -0.115609   0.269079
    25  H    0.007646   0.131996
    26  H   -0.013965   0.152479
    27  H    0.484314  -0.241891
    28  H    0.294230  -0.053794
    29  H   -0.025863   0.205888
    30  H   -0.010637   0.165008
    31  H   -0.228300   0.377837
    32  H   -0.120662   0.275302
    33  H   -0.408239   0.564898
    34  H   -0.478522   0.643869
    35  H    0.022196   0.163113
    36  H   -0.246736   0.419431
    37  H   -0.089504   0.343561
 Sum of Mulliken charges =  -1.00000   1.00000

 Dipole moment (field-independent basis, Debye):
    X=              4.3196    Y=              2.6122    Z=             -0.9465  Tot=              5.1360
 Quadrupole moment (field-independent basis, Debye-Ang):
   XX=           -182.6131   YY=           -131.5407   ZZ=           -127.9472
   XY=             -2.6799   XZ=              0.9247   YZ=             -0.7953

 Summary of Natural Population Analysis:

                                       Natural Population
                Natural  -----------------------------------------------
    Atom  No    Charge         Core      Valence    Rydberg      Total
 -----------------------------------------------------------------------
      C    1   -0.28186      0.99967     2.27817    0.00403     3.28186
      C    2   -0.19223      0.99961     2.18355    0.00907     3.19223
      C    3   -0.10680      0.99957     2.09580    0.01143     3.10680
      C    4   -0.19480      0.99962     2.18654    0.00864     3.19480
      C    5   -0.19232      0.99965     2.18541    0.00727     3.19232
      C    6   -0.19386      0.99962     2.18588    0.00835     3.19386
      C    7   -0.01144      0.99956     1.99997    0.01191     3.01144
      N    8   -0.35081      0.99973     2.83969    0.01138     3.85081
      C    9   -0.08132      0.99956     2.06862    0.01314     3.08132
      C   10   -0.06856      0.99954     2.05515    0.01387     3.06856
      C   11   -0.19620      0.99958     2.18697    0.00965     3.19620
      C   12   -0.19602      0.99958     2.18546    0.01097     3.19602
      C   13   -0.00590      0.99951     1.99289    0.01350     3.00590
      O   14   -0.36989      0.99990     3.36334    0.00665     4.36989
      H   15    0.09550      0.00000     0.40347    0.00103     0.40450
      H   16    0.09724      0.00000     0.40189    0.00087     0.40276
      H   17    0.09418      0.00000     0.40471    0.00110     0.40582
      H   18    0.09931      0.00000     0.39870    0.00200     0.40069
      H   19    0.09597      0.00000     0.40279    0.00124     0.40403
      H   20    0.09276      0.00000     0.40600    0.00124     0.40724
      H   21    0.09836      0.00000     0.40068    0.00096     0.40164
      H   22    0.09970      0.00000     0.39897    0.00133     0.40030
      H   23    0.09571      0.00000     0.40311    0.00117     0.40429
      H   24    0.09565      0.00000     0.40312    0.00123     0.40435
      H   25    0.09739      0.00000     0.40150    0.00111     0.40261
      H   26    0.09982      0.00000     0.39911    0.00107     0.40018
      H   27    0.10025      0.00000     0.39756    0.00218     0.39975
      H   28    0.17252      0.00000     0.32458    0.00291     0.32748
      H   29    0.09195      0.00000     0.40658    0.00147     0.40805
      H   30    0.10041      0.00000     0.39756    0.00203     0.39959
      H   31    0.10372      0.00000     0.39507    0.00120     0.39628
      H   32    0.10278      0.00000     0.39622    0.00100     0.39722
      H   33    0.10460      0.00000     0.39376    0.00164     0.39540
      H   34    0.10625      0.00000     0.39115    0.00260     0.39375
      H   35    0.08723      0.00000     0.41106    0.00171     0.41277
      H   36    0.08107      0.00000     0.41712    0.00182     0.41893
      H   37    0.22961      0.00000     0.26595    0.00444     0.27039
 =======================================================================
   * Total *   -0.00000     13.99471    40.82810    0.17719    55.00000

 Normal termination of Gaussian 16 at Thu Dec 10 10:09:15 2020.
