 Gaussian 16, Revision A.03,

 -----------------------------------------------------------
 # opt freq B3LYP/6-31G(d) empiricaldispersion=gd3bj scf=xqc
 -----------------------------------------------------------

 ------------------------------
 CID_45118151_JID_7557_neutraal
 ------------------------------
 Symbolic Z-matrix:
 Charge =  0 Multiplicity = 1

 SCF Done:  E(RB3LYP) =  -764.998791665     A.U. after   15 cycles
 SCF Done:  E(RB3LYP) =  -765.004326904     A.U. after   12 cycles
 SCF Done:  E(RB3LYP) =  -765.005150499     A.U. after   12 cycles
 SCF Done:  E(RB3LYP) =  -765.006020195     A.U. after   11 cycles
 SCF Done:  E(RB3LYP) =  -765.006554285     A.U. after   12 cycles
 SCF Done:  E(RB3LYP) =  -765.006736169     A.U. after   11 cycles
 SCF Done:  E(RB3LYP) =  -765.006870524     A.U. after   10 cycles
 SCF Done:  E(RB3LYP) =  -765.006897201     A.U. after   11 cycles
 SCF Done:  E(RB3LYP) =  -765.006950602     A.U. after   10 cycles
 SCF Done:  E(RB3LYP) =  -765.006990387     A.U. after   11 cycles
 SCF Done:  E(RB3LYP) =  -765.007100440     A.U. after   10 cycles
 SCF Done:  E(RB3LYP) =  -765.007101615     A.U. after    9 cycles
 SCF Done:  E(RB3LYP) =  -765.007101904     A.U. after    8 cycles
 SCF Done:  E(RB3LYP) =  -765.007101987     A.U. after    7 cycles
 SCF Done:  E(RB3LYP) =  -765.007101998     A.U. after    7 cycles
 Optimization completed.
    -- Stationary point found.
 Normal termination of Gaussian 16 at Fri Dec 11 12:31:00 2020.

 --------------------------------------------------------------------
 #N Geom=AllCheck Guess=TCheck SCRF=Check GenChk RB3LYP/6-31G(d) Freq
 --------------------------------------------------------------------

 Structure from the checkpoint file:  "JID_7557.chk"
 ------------------------------
 CID_45118151_JID_7557_neutraal
 ------------------------------
 Charge =  0 Multiplicity = 1

 SCF Done:  E(RB3LYP) =  -765.007101998     A.U. after    1 cycles

  Exact polarizability: 234.730  -1.940 140.037  -3.406   6.103  93.506
 Approx polarizability: 315.838  -7.445 238.388  -9.669  17.279 140.101

                      1                      2                      3
                      A                      A                      A
 Frequencies --     16.2151                53.1433                78.7312
 Red. masses --      4.3289                 3.4664                 6.9650
 Frc consts  --      0.0007                 0.0058                 0.0254
 IR Inten    --      0.9090                 1.0113                 1.4001

                      4                      5                      6
                      A                      A                      A
 Frequencies --     93.6254               123.8186               160.9714
 Red. masses --      2.6850                 4.0210                 3.8581
 Frc consts  --      0.0139                 0.0363                 0.0589
 IR Inten    --      2.2176                 0.1152                 0.1757

                      7                      8                      9
                      A                      A                      A
 Frequencies --    202.4019               207.5934               223.0490
 Red. masses --      1.1853                 3.6771                 2.4779
 Frc consts  --      0.0286                 0.0934                 0.0726
 IR Inten    --      0.1301                 0.3436                 0.5046

                     10                     11                     12
                      A                      A                      A
 Frequencies --    248.3609               261.0738               306.0876
 Red. masses --      1.1249                 4.1346                 3.0484
 Frc consts  --      0.0409                 0.1660                 0.1683
 IR Inten    --      1.8064                 0.8200                 1.1968

                     13                     14                     15
                      A                      A                      A
 Frequencies --    310.8506               342.2667               373.8097
 Red. masses --      3.0594                 4.1872                 4.6470
 Frc consts  --      0.1742                 0.2890                 0.3826
 IR Inten    --      7.2508                 3.2053                 1.2996

                     16                     17                     18
                      A                      A                      A
 Frequencies --    399.9698               413.7336               429.6989
 Red. masses --      3.2118                 2.4434                 3.5757
 Frc consts  --      0.3027                 0.2464                 0.3890
 IR Inten    --      0.8258                 8.2297                 2.4942

                     19                     20                     21
                      A                      A                      A
 Frequencies --    454.9434               470.7917               507.0399
 Red. masses --      3.2311                 6.1530                 2.5804
 Frc consts  --      0.3940                 0.8035                 0.3909
 IR Inten    --      2.0727                 1.5672                65.6119

                     22                     23                     24
                      A                      A                      A
 Frequencies --    528.8958               581.1093               588.3826
 Red. masses --      4.3226                 1.1742                 4.1302
 Frc consts  --      0.7124                 0.2336                 0.8424
 IR Inten    --      8.1704                85.9781                11.0353

                     25                     26                     27
                      A                      A                      A
 Frequencies --    629.3587               634.7165               698.4878
 Red. masses --      3.4528                 3.0394                 3.8160
 Frc consts  --      0.8058                 0.7214                 1.0969
 IR Inten    --     32.4997                13.9792                 5.9699

                     28                     29                     30
                      A                      A                      A
 Frequencies --    711.4221               730.5665               752.3546
 Red. masses --      3.4831                 2.9520                 5.6666
 Frc consts  --      1.0387                 0.9283                 1.8898
 IR Inten    --      5.3747                 8.1608                10.7913

                     31                     32                     33
                      A                      A                      A
 Frequencies --    769.8703               791.5589               801.4290
 Red. masses --      3.0907                 1.3911                 1.4808
 Frc consts  --      1.0793                 0.5135                 0.5604
 IR Inten    --     15.5832                 7.3119                14.5848

                     34                     35                     36
                      A                      A                      A
 Frequencies --    813.0995               825.6966               836.7647
 Red. masses --      1.3711                 1.9853                 2.5352
 Frc consts  --      0.5341                 0.7975                 1.0458
 IR Inten    --      3.8393                15.8284                26.7243

                     37                     38                     39
                      A                      A                      A
 Frequencies --    855.2570               905.4269               927.4573
 Red. masses --      2.8228                 2.5956                 1.3319
 Frc consts  --      1.2165                 1.2537                 0.6750
 IR Inten    --     10.5953                11.2046                 3.4911

                     40                     41                     42
                      A                      A                      A
 Frequencies --    943.6561               957.9094               974.4490
 Red. masses --      3.6654                 1.5351                 2.8453
 Frc consts  --      1.9231                 0.8299                 1.5918
 IR Inten    --     39.4270                 6.4152                10.1586

                     43                     44                     45
                      A                      A                      A
 Frequencies --    985.1875              1029.1088              1037.2667
 Red. masses --      2.5170                 1.8371                 1.3270
 Frc consts  --      1.4393                 1.1463                 0.8412
 IR Inten    --     36.8718                 8.3701                 0.6651

                     46                     47                     48
                      A                      A                      A
 Frequencies --   1070.7558              1074.3017              1132.7590
 Red. masses --      1.7026                 1.4019                 1.1300
 Frc consts  --      1.1501                 0.9533                 0.8543
 IR Inten    --      8.4247                 3.9662                 0.2792

                     49                     50                     51
                      A                      A                      A
 Frequencies --   1157.5994              1161.1242              1192.7673
 Red. masses --      1.5945                 1.6251                 2.1959
 Frc consts  --      1.2589                 1.2909                 1.8407
 IR Inten    --      2.7232                 3.9408                56.6384

                     52                     53                     54
                      A                      A                      A
 Frequencies --   1206.3492              1215.6709              1219.2976
 Red. masses --      1.3724                 1.7473                 2.5522
 Frc consts  --      1.1767                 1.5214                 2.2356
 IR Inten    --      0.6588                25.0935                17.2706

                     55                     56                     57
                      A                      A                      A
 Frequencies --   1248.4067              1272.5631              1287.4541
 Red. masses --      2.7424                 2.3237                 2.8047
 Frc consts  --      2.5182                 2.2171                 2.7390
 IR Inten    --     74.4480                14.4908               184.4757

                     58                     59                     60
                      A                      A                      A
 Frequencies --   1312.9788              1343.3569              1359.7077
 Red. masses --      1.7545                 3.6265                 5.8788
 Frc consts  --      1.7821                 3.8559                 6.4037
 IR Inten    --     68.4143                44.8313               258.4880

                     61                     62                     63
                      A                      A                      A
 Frequencies --   1376.5447              1398.7569              1421.7479
 Red. masses --      3.3923                 2.1213                 1.2935
 Frc consts  --      3.7873                 2.4454                 1.5405
 IR Inten    --     66.4868                13.4167                12.8421

                     64                     65                     66
                      A                      A                      A
 Frequencies --   1440.5086              1455.1407              1492.0623
 Red. masses --      1.2451                 1.5178                 1.1061
 Frc consts  --      1.5223                 1.8935                 1.4508
 IR Inten    --     32.6545                37.9607                 4.2216

                     67                     68                     69
                      A                      A                      A
 Frequencies --   1506.4072              1509.6509              1512.6997
 Red. masses --      1.0497                 1.8710                 1.0486
 Frc consts  --      1.4034                 2.5123                 1.4137
 IR Inten    --      2.6592                90.7623                 0.5545

                     70                     71                     72
                      A                      A                      A
 Frequencies --   1524.2103              1536.3338              1538.1039
 Red. masses --      1.0677                 1.0854                 1.6093
 Frc consts  --      1.4614                 1.5095                 2.2432
 IR Inten    --      8.7451                13.3776                34.1750

                     73                     74                     75
                      A                      A                      A
 Frequencies --   1569.3760              1573.8776              1657.9297
 Red. masses --      2.9731                 1.8349                 5.2143
 Frc consts  --      4.3143                 2.6779                 8.4445
 IR Inten    --    269.5084                24.6749                16.2279

                     76                     77                     78
                      A                      A                      A
 Frequencies --   1683.5624              1803.2364              3062.8052
 Red. masses --      6.3978                 9.5064                 1.0339
 Frc consts  --     10.6841                18.2126                 5.7141
 IR Inten    --     98.1556               476.9315                 9.9129

                     79                     80                     81
                      A                      A                      A
 Frequencies --   3076.9260              3136.5389              3144.1470
 Red. masses --      1.0358                 1.1033                 1.1036
 Frc consts  --      5.7779                 6.3952                 6.4277
 IR Inten    --     13.9617                18.8615                 8.7008

                     82                     83                     84
                      A                      A                      A
 Frequencies --   3147.8972              3153.1149              3154.9870
 Red. masses --      1.1036                 1.0535                 1.0596
 Frc consts  --      6.4431                 6.1709                 6.2141
 IR Inten    --     19.7946                16.6511                 9.8339

                     85                     86                     87
                      A                      A                      A
 Frequencies --   3167.9022              3171.8048              3172.6388
 Red. masses --      1.0900                 1.0899                 1.1021
 Frc consts  --      6.4448                 6.4600                 6.5359
 IR Inten    --     15.3140                23.0866                 8.7919

                     88                     89                     90
                      A                      A                      A
 Frequencies --   3213.7994              3231.7047              3241.0707
 Red. masses --      1.0901                 1.1161                 1.1124
 Frc consts  --      6.6338                 6.8677                 6.8849
 IR Inten    --      6.4124                 2.0989                29.9685

                     91                     92                     93
                      A                      A                      A
 Frequencies --   3254.8787              3574.0066              3597.4166
 Red. masses --      1.0924                 1.0752                 1.0767
 Frc consts  --      6.8184                 8.0922                 8.2100
 IR Inten    --      5.6385                 5.8710                26.2479

 - Thermochemistry -
 -------------------
 Temperature   298.150 Kelvin.  Pressure   1.00000 Atm.
 Atom     1 has atomic number  6 and mass  12.00000

 Molecular mass:   232.12118 amu.
 Principal axes and moments of inertia in atomic units:
                           1         2         3
     Eigenvalues --  1377.541427800.163578409.77706
           X            0.99997   0.00789   0.00033
           Y           -0.00788   0.99989  -0.01292
           Z           -0.00043   0.01291   0.99992
 This molecule is an asymmetric top.
 Rotational symmetry number  1.
 Warning -- assumption of classical behavior for rotation
           may cause significant error
 Rotational temperatures (Kelvin)      0.06288     0.01110     0.01030
 Rotational constants (GHZ):           1.31012     0.23137     0.21460
 Zero-point vibrational energy     722212.4 (Joules/Mol)
                                  172.61291 (Kcal/Mol)
 Warning -- explicit consideration of  24 degrees of freedom as
           vibrations may cause significant error
 Vibrational temperatures:     23.33    76.46   113.28   134.71   178.15
          (Kelvin)            231.60   291.21   298.68   320.92   357.34
                              375.63   440.39   447.24   492.45   537.83
                              575.47   595.27   618.24   654.56   677.36
                              729.52   760.96   836.09   846.55   905.51
                              913.22  1004.97  1023.58  1051.12  1082.47
                             1107.67  1138.88  1153.08  1169.87  1187.99
                             1203.92  1230.52  1302.71  1334.40  1357.71
                             1378.22  1402.01  1417.47  1480.66  1492.40
                             1540.58  1545.68  1629.79  1665.53  1670.60
                             1716.13  1735.67  1749.08  1754.30  1796.18
                             1830.93  1852.36  1889.08  1932.79  1956.32
                             1980.54  2012.50  2045.58  2072.57  2093.62
                             2146.74  2167.38  2172.05  2176.44  2193.00
                             2210.44  2212.99  2257.98  2264.46  2385.39
                             2422.27  2594.45  4406.69  4427.01  4512.78
                             4523.73  4529.12  4536.63  4539.32  4557.90
                             4563.52  4564.72  4623.94  4649.70  4663.18
                             4683.04  5142.20  5175.88

 Zero-point correction=                           0.275076 (Hartree/Particle)
 Thermal correction to Energy=                    0.290642
 Thermal correction to Enthalpy=                  0.291587
 Thermal correction to Gibbs Free Energy=         0.231794
 Sum of electronic and zero-point Energies=           -764.732026
 Sum of electronic and thermal Energies=              -764.716460
 Sum of electronic and thermal Enthalpies=            -764.715515
 Sum of electronic and thermal Free Energies=         -764.775308

                     E (Thermal)             CV                S
                      KCal/Mol        Cal/Mol-Kelvin    Cal/Mol-Kelvin
 Total                  182.381             61.622            125.843
 Electronic               0.000              0.000              0.000
 Translational            0.889              2.981             42.228
 Rotational               0.889              2.981             32.869
 Vibrational            180.603             55.661             50.746
 Vibration     1          0.593              1.986              7.051
 Vibration     2          0.596              1.976              4.697
 Vibration     3          0.600              1.963              3.922
 Vibration     4          0.603              1.954              3.583
 Vibration     5          0.610              1.929              3.040
 Vibration     6          0.622              1.890              2.538
 Vibration     7          0.639              1.836              2.111
 Vibration     8          0.641              1.829              2.065
 Vibration     9          0.649              1.806              1.934
 Vibration    10          0.662              1.765              1.742
 Vibration    11          0.669              1.744              1.655
 Vibration    12          0.696              1.662              1.383
 Vibration    13          0.700              1.653              1.358
 Vibration    14          0.721              1.591              1.202
 Vibration    15          0.745              1.526              1.064
 Vibration    16          0.766              1.470              0.963
 Vibration    17          0.777              1.440              0.914
 Vibration    18          0.791              1.406              0.860
 Vibration    19          0.813              1.350              0.781
 Vibration    20          0.828              1.315              0.735
 Vibration    21          0.862              1.234              0.641
 Vibration    22          0.884              1.186              0.590
 Vibration    23          0.938              1.072              0.483
 Vibration    24          0.946              1.057              0.470

                           ! Non-Optimized Parameters !
 Normal termination of Gaussian 16 at Fri Dec 11 12:42:12 2020.

 ----------------------------------------------------------------------
 # B3LYP/6-311++G(d,p) empiricaldispersion=gd3bj scf=xqc pop=npa geom=c
 heck
 ----------------------------------------------------------------------

 --------------------------------------
 CID_45118151_JID_7557_Energie_neutraal
 --------------------------------------
 Structure from the checkpoint file:  "JID_7557.chk"
 Charge =  0 Multiplicity = 1

 SCF Done:  E(RB3LYP) =  -765.220893228     A.U. after   16 cycles
 Normal termination of Gaussian 16 at Fri Dec 11 12:47:37 2020.

 ----------------------------------------------------------------------
 # B3LYP/6-311++G(d,p) empiricaldispersion=gd3bj scf=xqc pop=npa geom=c
 heck
 ----------------------------------------------------------------------

 ------------------------------------
 CID_45118151_JID_7557_Energie_kation
 ------------------------------------
 Structure from the checkpoint file:  "JID_7557.chk"
 Charge =  1 Multiplicity = 2

 SCF Done:  E(UB3LYP) =  -764.961433198     A.U. after   23 cycles
 Normal termination of Gaussian 16 at Fri Dec 11 12:56:58 2020.
 Gaussian 16:  ES64L-G16RevA.03 25-Dec-2016

 ----------------------------------------------------------------------
 # B3LYP/6-311++G(d,p) empiricaldispersion=gd3bj scf=xqc pop=npa geom=c
 heck
 ----------------------------------------------------------------------

 -----------------------------------
 CID_45118151_JID_7557_Energie_anion
 -----------------------------------
 Structure from the checkpoint file:  "JID_7557.chk"
 Charge = -1 Multiplicity = 2

                         Standard orientation:
 ---------------------------------------------------------------------
 Center     Atomic      Atomic             Coordinates (Angstroms)
 Number     Number       Type             X           Y           Z
 ---------------------------------------------------------------------
      1          6           0       -2.698920   -0.947348    1.651622
      2          6           0       -2.938694   -0.553854    0.187894
      3          6           0       -2.901450    0.982543    0.080759
      4          8           0       -3.891930    1.682605    0.221597
      5          7           0       -1.650917    1.510133   -0.121116
      6          6           0       -0.492116    0.738136   -0.283909
      7          6           0       -0.662538   -0.629208   -0.534127
      8          8           0       -1.925048   -1.152723   -0.654535
      9          6           0        0.457977   -1.426548   -0.723548
     10          6           0        1.739415   -0.876857   -0.685816
     11          6           0        1.925883    0.489228   -0.410104
     12          6           0        0.785197    1.284039   -0.197673
     13          7           0        3.187330    1.103086   -0.398726
     14          6           0        4.354989    0.571207    0.283500
     15          6           0        4.338133   -0.567773    1.269819
     16          6           0        5.039334   -0.720553   -0.069370
     17          6           0       -4.266258   -1.080111   -0.336969
     18          1           0       -3.466934   -0.503191    2.291641
     19          1           0       -2.739985   -2.036916    1.745878
     20          1           0       -1.717398   -0.606141    1.995444
     21          1           0       -1.591355    2.521087   -0.121835
     22          1           0        0.314566   -2.481875   -0.931540
     23          1           0        2.587775   -1.516137   -0.888615
     24          1           0        0.896577    2.341268    0.034613
     25          1           0        3.099002    2.091055   -0.197450
     26          1           0        5.031218    1.388818    0.516967
     27          1           0        4.936020   -0.484308    2.173231
     28          1           0        3.402611   -1.102312    1.400211
     29          1           0        4.586282   -1.367859   -0.812485
     30          1           0        6.125891   -0.725679   -0.091705
     31          1           0       -4.299273   -2.167711   -0.225333
     32          1           0       -5.091017   -0.628140    0.216534
     33          1           0       -4.378765   -0.830952   -1.395634
 ---------------------------------------------------------------------

 SCF Done:  E(UB3LYP) =  -765.211106880     A.U. after   33 cycles
 SCF Done:  E(UB3LYP) =  -765.211106880     a.u. after    1 cycles

 The electronic state is 2-A.
 Alpha  occ. eigenvalues --  -19.06412 -19.01052 -14.26678 -14.21953 -10.19005
 Alpha  occ. eigenvalues --  -10.16705 -10.13256 -10.12682 -10.11763 -10.10967
 Alpha  occ. eigenvalues --  -10.09130 -10.08727 -10.08294 -10.07536 -10.07361
 Alpha  occ. eigenvalues --  -10.07235 -10.07006  -0.98855  -0.95749  -0.85840
 Alpha  occ. eigenvalues --   -0.83663  -0.76146  -0.73916  -0.71374  -0.65807
 Alpha  occ. eigenvalues --   -0.63593  -0.62219  -0.57482  -0.54739  -0.53625
 Alpha  occ. eigenvalues --   -0.50622  -0.49692  -0.47019  -0.45443  -0.43160
 Alpha  occ. eigenvalues --   -0.42520  -0.39712  -0.38919  -0.37895  -0.37473
 Alpha  occ. eigenvalues --   -0.36241  -0.34914  -0.34718  -0.33676  -0.33058
 Alpha  occ. eigenvalues --   -0.31930  -0.31023  -0.30256  -0.29836  -0.29381
 Alpha  occ. eigenvalues --   -0.28649  -0.27790  -0.27323  -0.26423  -0.24957
 Alpha  occ. eigenvalues --   -0.23327  -0.21835  -0.20230  -0.17706  -0.16416
 Alpha  occ. eigenvalues --   -0.13735  -0.09549   0.04333
 Alpha virt. eigenvalues --    0.06192   0.06322   0.06933   0.07897   0.08028
 Alpha virt. eigenvalues --    0.08557   0.08748   0.09053   0.09932   0.10389
 Alpha virt. eigenvalues --    0.10871   0.11550   0.12134   0.12293   0.12459

  Beta  occ. eigenvalues --  -19.06409 -19.01004 -14.26675 -14.21928 -10.18946
  Beta  occ. eigenvalues --  -10.16704 -10.13261 -10.12649 -10.11773 -10.10942
  Beta  occ. eigenvalues --  -10.09125 -10.08723 -10.08276 -10.07473 -10.07333
  Beta  occ. eigenvalues --  -10.07224 -10.06988  -0.98836  -0.95670  -0.85792
  Beta  occ. eigenvalues --   -0.83614  -0.76099  -0.73879  -0.71343  -0.65720
  Beta  occ. eigenvalues --   -0.63550  -0.62200  -0.57408  -0.54679  -0.53556
  Beta  occ. eigenvalues --   -0.50569  -0.49644  -0.46968  -0.45388  -0.43108
  Beta  occ. eigenvalues --   -0.42431  -0.39659  -0.38872  -0.37863  -0.37431
  Beta  occ. eigenvalues --   -0.36150  -0.34859  -0.34650  -0.33579  -0.33016
  Beta  occ. eigenvalues --   -0.31896  -0.30990  -0.30209  -0.29792  -0.29337
  Beta  occ. eigenvalues --   -0.28604  -0.27746  -0.27279  -0.26396  -0.24903
  Beta  occ. eigenvalues --   -0.23237  -0.21744  -0.20193  -0.17655  -0.16353
  Beta  occ. eigenvalues --   -0.13571  -0.09473
  Beta virt. eigenvalues --    0.06150   0.06804   0.07227   0.07839   0.08116
  Beta virt. eigenvalues --    0.08363   0.08605   0.09097   0.09513   0.10263
  Beta virt. eigenvalues --    0.10570   0.11141   0.11662   0.12212   0.12401

 Mulliken charges and spin densities:
               1          2
     1  C   -0.282889  -0.189724
     2  C    0.286282  -0.201818
     3  C   -0.168192   0.180263
     4  O   -0.332884   0.026380
     5  N   -0.192023  -0.007519
     6  C    1.516218  -0.969003
     7  C   -0.217342  -0.001549
     8  O   -0.032220  -0.010301
     9  C   -1.224586   1.031039
    10  C    1.879186  -1.525589
    11  C    1.161278  -2.143801
    12  C   -1.901805   1.687706
    13  N   -0.114688   0.184854
    14  C   -0.887128   0.680500
    15  C    1.017189  -1.377268
    16  C    0.580198  -0.839190
    17  C   -0.408542  -0.061878
    18  H    0.128800   0.037035
    19  H    0.168206  -0.007316
    20  H    0.132160   0.030935
    21  H    0.017777   0.324012
    22  H    0.108625   0.062905
    23  H    0.216378  -0.108964
    24  H   -1.167035   1.342988
    25  H   -0.193572   0.453063
    26  H   -1.123965   1.360635
    27  H   -0.418223   0.586927
    28  H    0.145345  -0.012236
    29  H    0.013432   0.109845
    30  H   -0.130160   0.291280
    31  H    0.137971   0.007949
    32  H    0.164334   0.009017
    33  H    0.121874   0.048824
 Sum of Mulliken charges =  -1.00000   1.00000

 Dipole moment (field-independent basis, Debye):
    X=             -9.0245    Y=             -8.9230    Z=             -1.4008  Tot=             12.7681
 Quadrupole moment (field-independent basis, Debye-Ang):
   XX=           -211.9682   YY=           -149.2976   ZZ=           -127.1112
   XY=             -9.2989   XZ=            -14.0495   YZ=             -3.2549

 Summary of Natural Population Analysis:

                                       Natural Population
                Natural  -----------------------------------------------
    Atom  No    Charge         Core      Valence    Rydberg      Total
 -----------------------------------------------------------------------
      C    1   -0.29650      0.99962     2.29144    0.00545     3.29650
      C    2    0.10159      0.99950     1.88437    0.01454     2.89841
      C    3    0.34324      0.99960     1.63219    0.02497     2.65676
      O    4   -0.31269      0.99988     3.30707    0.00574     4.31269
      N    5   -0.30052      0.99963     2.79089    0.01000     3.80052
      C    6    0.06318      0.99944     1.92632    0.01106     2.93682
      C    7    0.12053      0.99932     1.86521    0.01493     2.87947
      O    8   -0.28864      0.99986     3.27870    0.01009     4.28864
      C    9   -0.10571      0.99953     2.09790    0.00829     3.10571
      C   10   -0.12522      0.99953     2.11806    0.00763     3.12522
      C   11    0.09024      0.99949     1.89881    0.01146     2.90976
      C   12   -0.11873      0.99950     2.10925    0.00998     3.11873
      N   13   -0.31413      0.99967     2.80173    0.01273     3.81413
      C   14   -0.01041      0.99956     1.99539    0.01546     3.01041
      C   15   -0.21027      0.99962     2.20240    0.00825     3.21027
      C   16   -0.20627      0.99962     2.19853    0.00811     3.20627
      C   17   -0.28794      0.99962     2.28149    0.00682     3.28794
      H   18    0.10648      0.00000     0.39269    0.00083     0.39352
      H   19    0.10148      0.00000     0.39756    0.00096     0.39852
      H   20    0.10907      0.00000     0.39007    0.00086     0.39093
      H   21    0.20430      0.00000     0.29169    0.00401     0.29570
      H   22    0.10290      0.00000     0.39622    0.00088     0.39710
      H   23    0.10048      0.00000     0.39800    0.00152     0.39952
      H   24    0.10709      0.00000     0.38944    0.00347     0.39291
      H   25    0.19094      0.00000     0.30274    0.00631     0.30906
      H   26    0.10737      0.00000     0.38677    0.00586     0.39263
      H   27    0.10547      0.00000     0.39304    0.00148     0.39453
      H   28    0.10563      0.00000     0.39330    0.00107     0.39437
      H   29    0.09722      0.00000     0.40170    0.00108     0.40278
      H   30    0.10310      0.00000     0.39567    0.00123     0.39690
      H   31    0.09940      0.00000     0.39962    0.00098     0.40060
      H   32    0.11061      0.00000     0.38859    0.00080     0.38939
      H   33    0.10669      0.00000     0.39239    0.00092     0.39331
 =======================================================================
   * Total *    0.00000     16.99298    44.78925    0.21777    62.00000

 Normal termination of Gaussian 16 at Fri Dec 11 13:10:26 2020.
