 Gaussian 16, Revision A.03,

 -----------------------------------------------------------
 # opt freq B3LYP/6-31G(d) empiricaldispersion=gd3bj scf=xqc
 -----------------------------------------------------------

 -----------------------------
 CID_23437295_JID_269_neutraal
 -----------------------------
 Symbolic Z-matrix:
 Charge =  0 Multiplicity = 1

 SCF Done:  E(RB3LYP) =  -459.877866578     A.U. after   15 cycles
 SCF Done:  E(RB3LYP) =  -459.900788854     A.U. after   13 cycles
 SCF Done:  E(RB3LYP) =  -459.898416810     A.U. after   14 cycles
 SCF Done:  E(RB3LYP) =  -459.900135334     A.U. after   13 cycles
 SCF Done:  E(RB3LYP) =  -459.901566659     A.U. after   10 cycles
 SCF Done:  E(RB3LYP) =  -459.901762018     A.U. after   11 cycles
 SCF Done:  E(RB3LYP) =  -459.901843745     A.U. after   10 cycles
 SCF Done:  E(RB3LYP) =  -459.901878442     A.U. after   11 cycles
 SCF Done:  E(RB3LYP) =  -459.901896361     A.U. after    8 cycles
 SCF Done:  E(RB3LYP) =  -459.901916991     A.U. after   10 cycles
 SCF Done:  E(RB3LYP) =  -459.901971578     A.U. after   10 cycles
 SCF Done:  E(RB3LYP) =  -459.901974548     A.U. after    9 cycles
 SCF Done:  E(RB3LYP) =  -459.901979261     A.U. after    9 cycles
 SCF Done:  E(RB3LYP) =  -459.901980842     A.U. after    8 cycles
 SCF Done:  E(RB3LYP) =  -459.901981150     A.U. after    7 cycles
 SCF Done:  E(RB3LYP) =  -459.901981379     A.U. after    7 cycles
 Optimization completed.
    -- Stationary point found.
 Normal termination of Gaussian 16 at Tue Dec  8 10:28:09 2020.

 --------------------------------------------------------------------
 #N Geom=AllCheck Guess=TCheck SCRF=Check GenChk RB3LYP/6-31G(d) Freq
 --------------------------------------------------------------------

 Structure from the checkpoint file:  "JID_269.chk"
 -----------------------------
 CID_23437295_JID_269_neutraal
 -----------------------------
 Charge =  0 Multiplicity = 1

 SCF Done:  E(RB3LYP) =  -459.901981379     A.U. after    1 cycles

  Exact polarizability:  85.387  -1.392  79.798  -2.585   3.001  91.107
 Approx polarizability: 114.788  -3.502 107.373  -5.032   6.796 142.473

                      1                      2                      3
                      A                      A                      A
 Frequencies --     10.3795                31.4398                63.3475
 Red. masses --      2.0382                 3.4780                 2.6605
 Frc consts  --      0.0001                 0.0020                 0.0063
 IR Inten    --      4.9312                 2.8297                 0.0221

                      4                      5                      6
                      A                      A                      A
 Frequencies --     69.7192                99.0767               114.6460
 Red. masses --      1.8299                 5.3806                 3.5033
 Frc consts  --      0.0052                 0.0311                 0.0271
 IR Inten    --      0.6226                10.3057                 6.1506

                      7                      8                      9
                      A                      A                      A
 Frequencies --    177.8814               250.3203               284.8476
 Red. masses --      3.0156                 1.2352                 1.4822
 Frc consts  --      0.0562                 0.0456                 0.0709
 IR Inten    --      1.9479                 0.1035                 0.8437

                     10                     11                     12
                      A                      A                      A
 Frequencies --    337.1083               363.9970               391.2812
 Red. masses --      2.3264                 2.2331                 3.7443
 Frc consts  --      0.1558                 0.1743                 0.3378
 IR Inten    --     16.7313                 0.5606                 3.0739

                     13                     14                     15
                      A                      A                      A
 Frequencies --    392.5121               424.1014               442.7678
 Red. masses --      3.7835                 3.3539                 2.3914
 Frc consts  --      0.3434                 0.3554                 0.2762
 IR Inten    --      0.7405                 1.1381                 2.1719

                     16                     17                     18
                      A                      A                      A
 Frequencies --    503.2861               625.6199               799.0436
 Red. masses --      2.7538                 1.8919                 3.0968
 Frc consts  --      0.4110                 0.4363                 1.1649
 IR Inten    --      0.6946                 4.3055                15.5691

                     19                     20                     21
                      A                      A                      A
 Frequencies --    876.2001               888.7709               924.2877
 Red. masses --      1.5650                 3.2134                 2.1603
 Frc consts  --      0.7079                 1.4955                 1.0874
 IR Inten    --      0.2628                26.9615                11.0730

                     22                     23                     24
                      A                      A                      A
 Frequencies --    938.5343              1031.6526              1060.6213
 Red. masses --      4.5602                 2.5809                 2.1799
 Frc consts  --      2.3667                 1.6184                 1.4448
 IR Inten    --      2.0398                25.6071                 6.5132

                     25                     26                     27
                      A                      A                      A
 Frequencies --   1075.0266              1078.6516              1088.0881
 Red. masses --      1.4449                 1.4438                 1.6542
 Frc consts  --      0.9838                 0.9897                 1.1539
 IR Inten    --      7.4984                 2.9276                 4.1893

                     28                     29                     30
                      A                      A                      A
 Frequencies --   1110.3861              1125.2752              1156.4600
 Red. masses --      1.7377                 1.5662                 5.5368
 Frc consts  --      1.2623                 1.1685                 4.3628
 IR Inten    --      2.4254                 5.9257                99.3672

                     31                     32                     33
                      A                      A                      A
 Frequencies --   1183.6429              1195.5607              1244.1884
 Red. masses --      2.5034                 1.9098                 1.1396
 Frc consts  --      2.0664                 1.6084                 1.0393
 IR Inten    --     39.4618                 8.1483                 3.3524

                     34                     35                     36
                      A                      A                      A
 Frequencies --   1257.2482              1327.9742              1332.9612
 Red. masses --      1.6513                 1.5193                 1.4370
 Frc consts  --      1.5378                 1.5786                 1.5043
 IR Inten    --      2.4413                27.6042                22.8696

                     37                     38                     39
                      A                      A                      A
 Frequencies --   1350.7756              1382.6092              1414.4622
 Red. masses --      1.2012                 1.2525                 1.3620
 Frc consts  --      1.2913                 1.4107                 1.6055
 IR Inten    --      0.6468                 0.4553                14.1511

                     40                     41                     42
                      A                      A                      A
 Frequencies --   1430.3839              1436.9085              1444.5607
 Red. masses --      1.4218                 1.2355                 1.4358
 Frc consts  --      1.7139                 1.5030                 1.7653
 IR Inten    --     14.4254                 4.1191                 1.7696

                     43                     44                     45
                      A                      A                      A
 Frequencies --   1482.2148              1491.6158              1494.7337
 Red. masses --      1.1929                 1.0455                 1.0394
 Frc consts  --      1.5441                 1.3705                 1.3682
 IR Inten    --      1.0960                 9.5906                12.0251

                     46                     47                     48
                      A                      A                      A
 Frequencies --   1509.4277              1513.6666              1517.9747
 Red. masses --      1.0797                 1.0876                 1.0588
 Frc consts  --      1.4493                 1.4681                 1.4375
 IR Inten    --      1.3095                 1.3179                10.5593

                     49                     50                     51
                      A                      A                      A
 Frequencies --   1524.1305              1534.0508              1537.2565
 Red. masses --      1.1058                 1.1041                 1.0519
 Frc consts  --      1.5134                 1.5309                 1.4646
 IR Inten    --     13.2340                 6.3153                 7.6841

                     52                     53                     54
                      A                      A                      A
 Frequencies --   2376.6446              2933.7692              2941.0575
 Red. masses --     12.5537                 1.0723                 1.0696
 Frc consts  --     41.7782                 5.4378                 5.4511
 IR Inten    --      9.2256                31.9742                38.9351

                     55                     56                     57
                      A                      A                      A
 Frequencies --   2955.2813              2975.6980              3001.2218
 Red. masses --      1.0623                 1.0709                 1.0705
 Frc consts  --      5.4662                 5.5868                 5.6812
 IR Inten    --    131.6643                73.8495                93.3728

                     58                     59                     60
                      A                      A                      A
 Frequencies --   3066.3600              3072.8961              3074.5109
 Red. masses --      1.0891                 1.0356                 1.0746
 Frc consts  --      6.0333                 5.7618                 5.9848
 IR Inten    --     26.0949                 9.5686                48.3640

                     61                     62                     63
                      A                      A                      A
 Frequencies --   3111.9568              3113.3452              3121.5740
 Red. masses --      1.0922                 1.0901                 1.0938
 Frc consts  --      6.2318                 6.2253                 6.2796
 IR Inten    --     50.4608                 6.1483                35.0428

                     64                     65                     66
                      A                      A                      A
 Frequencies --   3128.6497              3146.5944              3158.3614
 Red. masses --      1.1014                 1.1017                 1.1021
 Frc consts  --      6.3518                 6.4268                 6.4770
 IR Inten    --     20.8283                 6.5834                 1.0532

 - Thermochemistry -
 -------------------
 Temperature   298.150 Kelvin.  Pressure   1.00000 Atm.
 Atom     1 has atomic number  6 and mass  12.00000

 Molecular mass:   142.11061 amu.
 Principal axes and moments of inertia in atomic units:
                           1         2         3
     Eigenvalues --  1049.813622088.574792219.94101
           X            0.99976   0.00281   0.02169
           Y           -0.00148   0.99814  -0.06092
           Z           -0.02182   0.06087   0.99791
 This molecule is an asymmetric top.
 Rotational symmetry number  1.
 Warning -- assumption of classical behavior for rotation
           may cause significant error
 Rotational temperatures (Kelvin)      0.08250     0.04147     0.03902
 Rotational constants (GHZ):           1.71911     0.86410     0.81297
 Zero-point vibrational energy     553390.1 (Joules/Mol)
                                  132.26340 (Kcal/Mol)
 Warning -- explicit consideration of  16 degrees of freedom as
           vibrations may cause significant error
 Vibrational temperatures:     14.93    45.23    91.14   100.31   142.55
          (Kelvin)            164.95   255.93   360.16   409.83   485.02
                              523.71   562.97   564.74   610.19   637.04
                              724.12   900.13  1149.65  1260.66  1278.74
                             1329.84  1350.34  1484.32  1526.00  1546.72
                             1551.94  1565.52  1597.60  1619.02  1663.89
                             1703.00  1720.15  1790.11  1808.90  1910.66
                             1917.83  1943.46  1989.27  2035.10  2058.00
                             2067.39  2078.40  2132.58  2146.10  2150.59
                             2171.73  2177.83  2184.03  2192.88  2207.16
                             2211.77  3419.46  4221.04  4231.53  4251.99
                             4281.37  4318.09  4411.81  4421.21  4423.54
                             4477.41  4479.41  4491.25  4501.43  4527.25
                             4544.18

 Zero-point correction=                           0.210775 (Hartree/Particle)
 Thermal correction to Energy=                    0.222917
 Thermal correction to Enthalpy=                  0.223861
 Thermal correction to Gibbs Free Energy=         0.169736
 Sum of electronic and zero-point Energies=           -459.691206
 Sum of electronic and thermal Energies=              -459.679064
 Sum of electronic and thermal Enthalpies=            -459.678120
 Sum of electronic and thermal Free Energies=         -459.732245

                     E (Thermal)             CV                S
                      KCal/Mol        Cal/Mol-Kelvin    Cal/Mol-Kelvin
 Total                  139.883             41.475            113.916
 Electronic               0.000              0.000              0.000
 Translational            0.889              2.981             40.766
 Rotational               0.889              2.981             29.966
 Vibrational            138.105             35.514             43.184
 Vibration     1          0.593              1.987              7.937
 Vibration     2          0.594              1.983              5.736
 Vibration     3          0.597              1.972              4.350
 Vibration     4          0.598              1.969              4.161
 Vibration     5          0.604              1.950              3.472
 Vibration     6          0.608              1.937              3.189
 Vibration     7          0.628              1.870              2.351
 Vibration     8          0.663              1.762              1.728
 Vibration     9          0.683              1.702              1.504
 Vibration    10          0.718              1.601              1.226
 Vibration    11          0.738              1.546              1.105
 Vibration    12          0.759              1.489              0.995
 Vibration    13          0.760              1.486              0.991
 Vibration    14          0.786              1.418              0.878
 Vibration    15          0.802              1.377              0.818
 Vibration    16          0.859              1.243              0.650

                           ! Non-Optimized Parameters !
 Normal termination of Gaussian 16 at Tue Dec  8 10:33:15 2020.

 ----------------------------------------------------------------------
 # B3LYP/6-311++G(d,p) empiricaldispersion=gd3bj scf=xqc pop=npa geom=c
 heck
 ----------------------------------------------------------------------

 -------------------------------------
 CID_23437295_JID_269_Energie_neutraal
 -------------------------------------
 Structure from the checkpoint file:  "JID_269.chk"
 Charge =  0 Multiplicity = 1

 SCF Done:  E(RB3LYP) =  -460.036039713     A.U. after   13 cycles
 Normal termination of Gaussian 16 at Tue Dec  8 10:37:33 2020.

 ----------------------------------------------------------------------
 # B3LYP/6-311++G(d,p) empiricaldispersion=gd3bj scf=xqc pop=npa geom=c
 heck
 ----------------------------------------------------------------------

 -----------------------------------
 CID_23437295_JID_269_Energie_kation
 -----------------------------------
 Structure from the checkpoint file:  "JID_269.chk"
 Charge =  1 Multiplicity = 2

 SCF Done:  E(UB3LYP) =  -459.726770599     A.U. after   18 cycles
 Normal termination of Gaussian 16 at Tue Dec  8 10:43:05 2020.
 Gaussian 16:  ES64L-G16RevA.03 25-Dec-2016

 ----------------------------------------------------------------------
 # B3LYP/6-311++G(d,p) empiricaldispersion=gd3bj scf=xqc pop=npa geom=c
 heck
 ----------------------------------------------------------------------

 ----------------------------------
 CID_23437295_JID_269_Energie_anion
 ----------------------------------
 Structure from the checkpoint file:  "JID_269.chk"
 Charge = -1 Multiplicity = 2

                         Standard orientation:
 ---------------------------------------------------------------------
 Center     Atomic      Atomic             Coordinates (Angstroms)
 Number     Number       Type             X           Y           Z
 ---------------------------------------------------------------------
      1          6           0        2.286467   -0.388894    1.531532
      2          6           0        2.549807   -0.582913    0.109391
      3          7           0        2.772795   -0.743091   -1.018331
      4          6           0        0.398713    2.107204   -0.533297
      5          7           0       -0.195628    0.840765   -0.135732
      6          6           0       -0.539770    0.020625   -1.298675
      7          6           0       -1.116167   -1.310760   -0.833911
      8          8           0       -2.255868   -1.123910   -0.002387
      9          6           0       -1.930235   -0.330201    1.125723
     10          6           0       -1.371185    1.027902    0.711292
     11          1           0        2.178881    0.677310    1.746807
     12          1           0        3.106794   -0.798338    2.129746
     13          1           0        1.351317   -0.883224    1.804810
     14          1           0       -0.283851    2.731672   -1.140709
     15          1           0        1.303472    1.914399   -1.117745
     16          1           0        0.675396    2.680548    0.359228
     17          1           0       -1.280201    0.532260   -1.943888
     18          1           0        0.367491   -0.155741   -1.884269
     19          1           0       -0.340186   -1.874439   -0.290620
     20          1           0       -1.449897   -1.908545   -1.686273
     21          1           0       -1.189763   -0.853836    1.755615
     22          1           0       -2.852953   -0.210337    1.700992
     23          1           0       -1.082440    1.598566    1.603134
     24          1           0       -2.163072    1.599481    0.188380
 ---------------------------------------------------------------------

 SCF Done:  E(UB3LYP) =  -460.023767465     A.U. after   29 cycles

 The electronic state is 2-A.
 Alpha  occ. eigenvalues --  -19.02662 -14.20771 -14.20046 -10.11771 -10.11277
 Alpha  occ. eigenvalues --  -10.10616 -10.09173 -10.09029 -10.08945 -10.08358
 Alpha  occ. eigenvalues --   -0.94373  -0.82541  -0.79940  -0.67272  -0.65293
 Alpha  occ. eigenvalues --   -0.62594  -0.55482  -0.53798  -0.46524  -0.40356
 Alpha  occ. eigenvalues --   -0.39350  -0.37989  -0.37106  -0.36766  -0.35297
 Alpha  occ. eigenvalues --   -0.33815  -0.33478  -0.31296  -0.30585  -0.28343
 Alpha  occ. eigenvalues --   -0.27790  -0.26245  -0.25872  -0.24683  -0.22117
 Alpha  occ. eigenvalues --   -0.22041  -0.21235  -0.16351  -0.12513   0.04770
 Alpha virt. eigenvalues --    0.07427   0.08051   0.08409   0.09826   0.10426
 Alpha virt. eigenvalues --    0.10987   0.11256   0.11877   0.12322   0.13308
 Alpha virt. eigenvalues --    0.13805   0.14326   0.14381   0.14495   0.15360

  Beta  occ. eigenvalues --  -19.02655 -14.20763 -14.20036 -10.11764 -10.11249
  Beta  occ. eigenvalues --  -10.10612 -10.09168 -10.08931 -10.08917 -10.08330
  Beta  occ. eigenvalues --   -0.94357  -0.82518  -0.79913  -0.67241  -0.65168
  Beta  occ. eigenvalues --   -0.62558  -0.55438  -0.53742  -0.46470  -0.40310
  Beta  occ. eigenvalues --   -0.39236  -0.37966  -0.37066  -0.36737  -0.35255
  Beta  occ. eigenvalues --   -0.33729  -0.33396  -0.31268  -0.30548  -0.28311
  Beta  occ. eigenvalues --   -0.27745  -0.26226  -0.25838  -0.24651  -0.22086
  Beta  occ. eigenvalues --   -0.22007  -0.21210  -0.16300  -0.12468
  Beta virt. eigenvalues --    0.07423   0.08368   0.08603   0.08802   0.10547
  Beta virt. eigenvalues --    0.11236   0.11375   0.11714   0.12138   0.12668
  Beta virt. eigenvalues --    0.13512   0.14176   0.14582   0.14824   0.14890

 Mulliken charges and spin densities:
               1          2
     1  C    2.238544  -2.691492
     2  C   -0.897324   1.179371
     3  N   -0.324988  -0.056755
     4  C    0.519771  -0.872737
     5  N   -0.111651   0.215454
     6  C   -0.409839   0.276261
     7  C    0.130528  -0.618667
     8  O   -0.179447   0.055434
     9  C    0.031443  -0.392877
    10  C    0.594795  -0.813584
    11  H   -0.508131   0.702908
    12  H   -1.060061   1.272103
    13  H   -0.116293   0.261219
    14  H    0.052498   0.045291
    15  H   -0.030198   0.161386
    16  H   -0.428639   0.587405
    17  H    0.021602   0.100687
    18  H    0.125769   0.016369
    19  H   -0.006515   0.156317
    20  H    0.198638  -0.044441
    21  H   -0.063336   0.216213
    22  H   -0.343000   0.519168
    23  H   -0.557141   0.724559
    24  H    0.122973   0.000407
 Sum of Mulliken charges =  -1.00000   1.00000

 Dipole moment (field-independent basis, Debye):
    X=             -4.7586    Y=             -1.2465    Z=             -6.8158  Tot=              8.4056
 Quadrupole moment (field-independent basis, Debye-Ang):
   XX=           -119.5639   YY=            -97.1839   ZZ=           -108.8331
   XY=              1.8410   XZ=             -5.6037   YZ=             -4.4206

 Summary of Natural Population Analysis:

                                       Natural Population
                Natural  -----------------------------------------------
    Atom  No    Charge         Core      Valence    Rydberg      Total
 -----------------------------------------------------------------------
      C    1   -0.34497      0.99956     2.33599    0.00941     3.34497
      C    2    0.17678      0.99966     1.80757    0.01598     2.82322
      N    3   -0.21082      0.99979     2.69975    0.01129     3.71082
      C    4   -0.17679      0.99964     2.16839    0.00876     3.17679
      N    5   -0.29109      0.99973     2.77454    0.01683     3.79109
      C    6   -0.10012      0.99961     2.09157    0.00893     3.10012
      C    7   -0.01250      0.99957     2.00168    0.01125     3.01250
      O    8   -0.29931      0.99989     3.29062    0.00879     4.29931
      C    9   -0.01410      0.99957     2.00025    0.01428     3.01410
      C   10   -0.09805      0.99961     2.08549    0.01296     3.09805
      H   11    0.12978      0.00000     0.36472    0.00550     0.37022
      H   12    0.12157      0.00000     0.37501    0.00342     0.37843
      H   13    0.12444      0.00000     0.37225    0.00331     0.37556
      H   14    0.07873      0.00000     0.42003    0.00124     0.42127
      H   15    0.09993      0.00000     0.39909    0.00098     0.40007
      H   16    0.10060      0.00000     0.39778    0.00162     0.39940
      H   17    0.07853      0.00000     0.41986    0.00162     0.42147
      H   18    0.10918      0.00000     0.38956    0.00126     0.39082
      H   19    0.08278      0.00000     0.41551    0.00171     0.41722
      H   20    0.08796      0.00000     0.41100    0.00104     0.41204
      H   21    0.08098      0.00000     0.41674    0.00229     0.41902
      H   22    0.09163      0.00000     0.40704    0.00133     0.40837
      H   23    0.10578      0.00000     0.39120    0.00301     0.39422
      H   24    0.07908      0.00000     0.41931    0.00161     0.42092
 =======================================================================
   * Total *   -0.00000      9.99663    28.85495    0.14842    39.00000

 Normal termination of Gaussian 16 at Tue Dec  8 10:52:33 2020.
