 Gaussian 16, Revision A.03,

 -----------------------------------------------------------
 # opt freq B3LYP/6-31G(d) empiricaldispersion=gd3bj scf=xqc
 -----------------------------------------------------------

 -------------------------------
 CID_107397957_JID_2353_neutraal
 -------------------------------
 Symbolic Z-matrix:
 Charge =  0 Multiplicity = 1

 SCF Done:  E(RB3LYP) =  -503.811744825     A.U. after   12 cycles
 SCF Done:  E(RB3LYP) =  -503.819978936     A.U. after   11 cycles
 SCF Done:  E(RB3LYP) =  -503.819777582     A.U. after   10 cycles
 SCF Done:  E(RB3LYP) =  -503.820540389     A.U. after   10 cycles
 SCF Done:  E(RB3LYP) =  -503.820523042     A.U. after   10 cycles
 SCF Done:  E(RB3LYP) =  -503.820693590     A.U. after    9 cycles
 SCF Done:  E(RB3LYP) =  -503.820708033     A.U. after   10 cycles
 SCF Done:  E(RB3LYP) =  -503.820713526     A.U. after    9 cycles
 SCF Done:  E(RB3LYP) =  -503.820715158     A.U. after    7 cycles
 SCF Done:  E(RB3LYP) =  -503.820715451     A.U. after    7 cycles
 Optimization completed.
    -- Stationary point found.
 Normal termination of Gaussian 16 at Wed Dec  9 17:16:35 2020.

 --------------------------------------------------------------------
 #N Geom=AllCheck Guess=TCheck SCRF=Check GenChk RB3LYP/6-31G(d) Freq
 --------------------------------------------------------------------

 Structure from the checkpoint file:  "JID_2353.chk"
 -------------------------------
 CID_107397957_JID_2353_neutraal
 -------------------------------
 Charge =  0 Multiplicity = 1

 SCF Done:  E(RB3LYP) =  -503.820715451     A.U. after    1 cycles

  Exact polarizability: 132.294   0.743 119.824  -1.081   0.979 101.963
 Approx polarizability: 164.448   2.486 161.692  -1.053   4.441 153.663

                      1                      2                      3
                      A                      A                      A
 Frequencies --     46.3120                66.7936                73.8945
 Red. masses --      2.6178                 2.6421                 2.7130
 Frc consts  --      0.0033                 0.0069                 0.0087
 IR Inten    --      0.1948                 0.9088                 0.0848

                      4                      5                      6
                      A                      A                      A
 Frequencies --     86.9997                96.1333               143.1177
 Red. masses --      3.0295                 3.3281                 2.0721
 Frc consts  --      0.0135                 0.0181                 0.0250
 IR Inten    --      0.3183                 0.1064                 0.4985

                      7                      8                      9
                      A                      A                      A
 Frequencies --    164.1978               185.2597               239.5052
 Red. masses --      2.1244                 2.4655                 2.6803
 Frc consts  --      0.0337                 0.0499                 0.0906
 IR Inten    --      1.1936                 0.1633                 0.9663

                     10                     11                     12
                      A                      A                      A
 Frequencies --    264.9407               278.2556               293.1651
 Red. masses --      1.1715                 1.1840                 1.8623
 Frc consts  --      0.0484                 0.0540                 0.0943
 IR Inten    --     20.3545                26.7744                 0.8056

                     13                     14                     15
                      A                      A                      A
 Frequencies --    308.1840               326.4413               376.8276
 Red. masses --      1.4878                 2.8600                 2.2475
 Frc consts  --      0.0833                 0.1796                 0.1880
 IR Inten    --      0.9760                 2.2436                 3.5683

                     16                     17                     18
                      A                      A                      A
 Frequencies --    401.6220               431.2841               455.1182
 Red. masses --      2.1985                 2.0038                 1.7157
 Frc consts  --      0.2089                 0.2196                 0.2094
 IR Inten    --      6.6368                 4.4552                 4.3696

                     19                     20                     21
                      A                      A                      A
 Frequencies --    499.6808               546.2401               645.5573
 Red. masses --      2.8355                 2.9368                 2.0350
 Frc consts  --      0.4171                 0.5163                 0.4997
 IR Inten    --      3.7919                 3.2843                 5.5336

                     22                     23                     24
                      A                      A                      A
 Frequencies --    774.3265               803.5693               810.6091
 Red. masses --      1.5662                 1.3828                 2.2879
 Frc consts  --      0.5533                 0.5261                 0.8857
 IR Inten    --      1.0419                 3.0687                 1.6946

                     25                     26                     27
                      A                      A                      A
 Frequencies --    820.8207               827.1080               886.5049
 Red. masses --      1.1538                 2.6380                 1.8890
 Frc consts  --      0.4580                 1.0633                 0.8747
 IR Inten    --      2.4704                 3.5704                15.5113

                     28                     29                     30
                      A                      A                      A
 Frequencies --    900.6028               905.8895               916.0585
 Red. masses --      1.5842                 1.5267                 1.7013
 Frc consts  --      0.7571                 0.7382                 0.8411
 IR Inten    --    108.3062                26.3571                25.1485

                     31                     32                     33
                      A                      A                      A
 Frequencies --    946.7716               958.2719               977.7930
 Red. masses --      2.2294                 1.5922                 1.2186
 Frc consts  --      1.1774                 0.8614                 0.6864
 IR Inten    --      1.3580                 3.2840                 0.8084

                     34                     35                     36
                      A                      A                      A
 Frequencies --    988.5003               996.3632              1051.4919
 Red. masses --      2.6233                 1.8721                 1.5966
 Frc consts  --      1.5103                 1.0950                 1.0401
 IR Inten    --      3.4503                 2.9290                 4.0911

                     37                     38                     39
                      A                      A                      A
 Frequencies --   1074.7985              1098.7236              1105.2229
 Red. masses --      2.3006                 2.2894                 2.5919
 Frc consts  --      1.5658                 1.6283                 1.8654
 IR Inten    --      1.8095                16.8352                 9.4770

                     40                     41                     42
                      A                      A                      A
 Frequencies --   1120.5818              1148.3230              1152.3499
 Red. masses --      2.5576                 1.9182                 1.9407
 Frc consts  --      1.8922                 1.4903                 1.5184
 IR Inten    --     36.5151                32.1655                12.3026

                     43                     44                     45
                      A                      A                      A
 Frequencies --   1174.3122              1199.9734              1212.3126
 Red. masses --      1.6033                 1.8782                 1.3704
 Frc consts  --      1.3026                 1.5934                 1.1867
 IR Inten    --      0.4432                17.7198                 1.7318

                     46                     47                     48
                      A                      A                      A
 Frequencies --   1232.1020              1270.1105              1270.7567
 Red. masses --      1.5936                 1.4467                 1.4112
 Frc consts  --      1.4253                 1.3750                 1.3426
 IR Inten    --     12.6717                 4.4784                 9.9867

                     49                     50                     51
                      A                      A                      A
 Frequencies --   1271.0579              1278.8124              1293.2211
 Red. masses --      1.5993                 1.2984                 1.4586
 Frc consts  --      1.5223                 1.2510                 1.4372
 IR Inten    --     10.8798                 3.7806                 2.9871

                     52                     53                     54
                      A                      A                      A
 Frequencies --   1307.3052              1323.1952              1364.4744
 Red. masses --      1.4532                 1.1752                 1.3892
 Frc consts  --      1.4633                 1.2123                 1.5239
 IR Inten    --      6.3958                 2.1338                22.1908

                     55                     56                     57
                      A                      A                      A
 Frequencies --   1376.6273              1387.5690              1396.9573
 Red. masses --      1.4584                 1.3362                 1.2527
 Frc consts  --      1.6284                 1.5157                 1.4403
 IR Inten    --      0.5695                 6.3590                26.5280

                     58                     59                     60
                      A                      A                      A
 Frequencies --   1417.7502              1421.1581              1426.0677
 Red. masses --      1.3431                 1.2906                 1.3416
 Frc consts  --      1.5906                 1.5358                 1.6076
 IR Inten    --     19.2268                 4.4130                13.4968

                     61                     62                     63
                      A                      A                      A
 Frequencies --   1427.9022              1441.8464              1452.8798
 Red. masses --      1.2927                 1.2933                 1.4681
 Frc consts  --      1.5530                 1.5842                 1.8259
 IR Inten    --      7.8138                 6.5196                22.2446

                     64                     65                     66
                      A                      A                      A
 Frequencies --   1492.4953              1500.5327              1509.0038
 Red. masses --      1.0837                 1.0904                 1.0897
 Frc consts  --      1.4223                 1.4466                 1.4619
 IR Inten    --      2.0656                 5.3866                 0.2982

                     67                     68                     69
                      A                      A                      A
 Frequencies --   1515.8990              1519.0771              1526.1631
 Red. masses --      1.0826                 1.0563                 1.0562
 Frc consts  --      1.4657                 1.4362                 1.4494
 IR Inten    --      2.8035                 0.2218                 8.2372

                     70                     71                     72
                      A                      A                      A
 Frequencies --   1527.9704              1538.9401              1542.2279
 Red. masses --      1.0508                 1.0487                 1.1331
 Frc consts  --      1.4454                 1.4633                 1.5879
 IR Inten    --      4.0378                 4.0398                 1.1975

                     73                     74                     75
                      A                      A                      A
 Frequencies --   1560.0617              1694.9374              2946.1864
 Red. masses --      1.0867                 1.0904                 1.0737
 Frc consts  --      1.5583                 1.8456                 5.4912
 IR Inten    --      4.4515                23.6429                78.8710

                     76                     77                     78
                      A                      A                      A
 Frequencies --   2977.6659              3031.8669              3034.0849
 Red. masses --      1.0686                 1.0767                 1.0475
 Frc consts  --      5.5826                 5.8313                 5.6812
 IR Inten    --     55.0331                41.3896                36.5638

                     79                     80                     81
                      A                      A                      A
 Frequencies --   3038.1395              3045.2356              3051.3283
 Red. masses --      1.0583                 1.0862                 1.0613
 Frc consts  --      5.7556                 5.9349                 5.8218
 IR Inten    --     15.3478                 5.4990                61.2591

                     82                     83                     84
                      A                      A                      A
 Frequencies --   3054.8407              3055.7929              3063.8509
 Red. masses --      1.0659                 1.0430                 1.0794
 Frc consts  --      5.8608                 5.7383                 5.9700
 IR Inten    --     33.7973                11.0788                41.4584

                     85                     86                     87
                      A                      A                      A
 Frequencies --   3069.0148              3071.6184              3085.5337
 Red. masses --      1.0610                 1.0949                 1.0974
 Frc consts  --      5.8879                 6.0862                 6.1558
 IR Inten    --     47.3672                14.2562                19.3655

                     88                     89                     90
                      A                      A                      A
 Frequencies --   3101.6085              3104.8972              3112.5026
 Red. masses --      1.0955                 1.1043                 1.1053
 Frc consts  --      6.2092                 6.2722                 6.3088
 IR Inten    --     70.6192                20.9280                32.5888

                     91                     92                     93
                      A                      A                      A
 Frequencies --   3121.5807              3125.8235              3128.1938
 Red. masses --      1.1011                 1.1051                 1.1004
 Frc consts  --      6.3216                 6.3619                 6.3441
 IR Inten    --     32.0139                62.1723                52.3603

                     94                     95                     96
                      A                      A                      A
 Frequencies --   3128.4722              3441.0923              3528.3041
 Red. masses --      1.1032                 1.0501                 1.0910
 Frc consts  --      6.3617                 7.3258                 8.0020
 IR Inten    --     42.0716                 5.1535                 1.7543

 - Thermochemistry -
 -------------------
 Temperature   298.150 Kelvin.  Pressure   1.00000 Atm.
 Atom     1 has atomic number  6 and mass  12.00000

 Molecular mass:   170.17830 amu.
 Principal axes and moments of inertia in atomic units:
                           1         2         3
     Eigenvalues --  1622.438072985.278993914.67073
           X            0.99989  -0.01210  -0.00865
           Y            0.01206   0.99992  -0.00379
           Z            0.00869   0.00368   0.99996
 This molecule is an asymmetric top.
 Rotational symmetry number  1.
 Warning -- assumption of classical behavior for rotation
           may cause significant error
 Rotational temperatures (Kelvin)      0.05339     0.02901     0.02213
 Rotational constants (GHZ):           1.11236     0.60455     0.46102
 Zero-point vibrational energy     833710.7 (Joules/Mol)
                                  199.26164 (Kcal/Mol)
 Warning -- explicit consideration of  20 degrees of freedom as
           vibrations may cause significant error
 Vibrational temperatures:     66.63    96.10   106.32   125.17   138.31
          (Kelvin)            205.91   236.24   266.55   344.59   381.19
                              400.35   421.80   443.41   469.68   542.17
                              577.84   620.52   654.81   718.93   785.92
                              928.81  1114.08  1156.16  1166.29  1180.98
                             1190.02  1275.48  1295.77  1303.37  1318.00
                             1362.19  1378.74  1406.83  1422.23  1433.54
                             1512.86  1546.40  1580.82  1590.17  1612.27
                             1652.18  1657.97  1689.57  1726.49  1744.25
                             1772.72  1827.41  1828.34  1828.77  1839.93
                             1860.66  1880.92  1903.78  1963.17  1980.66
                             1996.40  2009.91  2039.83  2044.73  2051.79
                             2054.43  2074.50  2090.37  2147.37  2158.93
                             2171.12  2181.04  2185.61  2195.81  2198.41
                             2214.19  2218.92  2244.58  2438.64  4238.91
                             4284.20  4362.18  4365.37  4371.21  4381.41
                             4390.18  4395.23  4396.60  4408.20  4415.63
                             4419.37  4439.39  4462.52  4467.25  4478.20
                             4491.26  4497.36  4500.77  4501.17  4950.96
                             5076.44

 Zero-point correction=                           0.317544 (Hartree/Particle)
 Thermal correction to Energy=                    0.331780
 Thermal correction to Enthalpy=                  0.332724
 Thermal correction to Gibbs Free Energy=         0.276584
 Sum of electronic and zero-point Energies=           -503.503172
 Sum of electronic and thermal Energies=              -503.488936
 Sum of electronic and thermal Enthalpies=            -503.487992
 Sum of electronic and thermal Free Energies=         -503.544131

                     E (Thermal)             CV                S
                      KCal/Mol        Cal/Mol-Kelvin    Cal/Mol-Kelvin
 Total                  208.195             53.508            118.156
 Electronic               0.000              0.000              0.000
 Translational            0.889              2.981             41.303
 Rotational               0.889              2.981             31.317
 Vibrational            206.417             47.546             45.536
 Vibration     1          0.595              1.979              4.969
 Vibration     2          0.598              1.970              4.246
 Vibration     3          0.599              1.966              4.047
 Vibration     4          0.601              1.958              3.726
 Vibration     5          0.603              1.952              3.531
 Vibration     6          0.616              1.910              2.762
 Vibration     7          0.623              1.886              2.501
 Vibration     8          0.631              1.860              2.275
 Vibration     9          0.657              1.780              1.807
 Vibration    10          0.671              1.737              1.629
 Vibration    11          0.679              1.714              1.544
 Vibration    12          0.688              1.686              1.456
 Vibration    13          0.698              1.658              1.372
 Vibration    14          0.710              1.623              1.278
 Vibration    15          0.747              1.520              1.052
 Vibration    16          0.767              1.467              0.957
 Vibration    17          0.792              1.402              0.854
 Vibration    18          0.813              1.350              0.780
 Vibration    19          0.855              1.251              0.659
 Vibration    20          0.901              1.148              0.552

                           ! Non-Optimized Parameters !
 Normal termination of Gaussian 16 at Wed Dec  9 17:25:35 2020.

 ----------------------------------------------------------------------
 # B3LYP/6-311++G(d,p) empiricaldispersion=gd3bj scf=xqc pop=npa geom=c
 heck
 ----------------------------------------------------------------------

 ---------------------------------------
 CID_107397957_JID_2353_Energie_neutraal
 ---------------------------------------
 Structure from the checkpoint file:  "JID_2353.chk"
 Charge =  0 Multiplicity = 1

 SCF Done:  E(RB3LYP) =  -503.968366653     A.U. after   13 cycles
 Normal termination of Gaussian 16 at Wed Dec  9 17:29:22 2020.

 ----------------------------------------------------------------------
 # B3LYP/6-311++G(d,p) empiricaldispersion=gd3bj scf=xqc pop=npa geom=c
 heck
 ----------------------------------------------------------------------

 -------------------------------------
 CID_107397957_JID_2353_Energie_kation
 -------------------------------------
 Structure from the checkpoint file:  "JID_2353.chk"
 Charge =  1 Multiplicity = 2

 SCF Done:  E(UB3LYP) =  -503.703319947     A.U. after   19 cycles
 Normal termination of Gaussian 16 at Wed Dec  9 17:36:07 2020.
 Gaussian 16:  ES64L-G16RevA.03 25-Dec-2016

 ----------------------------------------------------------------------
 # B3LYP/6-311++G(d,p) empiricaldispersion=gd3bj scf=xqc pop=npa geom=c
 heck
 ----------------------------------------------------------------------

 ------------------------------------
 CID_107397957_JID_2353_Energie_anion
 ------------------------------------
 Structure from the checkpoint file:  "JID_2353.chk"
 Charge = -1 Multiplicity = 2

                         Standard orientation:
 ---------------------------------------------------------------------
 Center     Atomic      Atomic             Coordinates (Angstroms)
 Number     Number       Type             X           Y           Z
 ---------------------------------------------------------------------
      1          6           0       -2.445927    2.347809    0.477647
      2          6           0       -0.986017    1.892814    0.476368
      3          7           0       -0.647181    0.995069   -0.615415
      4          6           0        0.763058    0.938768   -0.955340
      5          6           0        1.756834    0.424557    0.094485
      6          6           0        2.059944   -1.092849    0.261744
      7          6           0        3.558112   -0.737158    0.436283
      8          6           0        3.264329    0.634686   -0.221225
      9          6           0       -1.480158   -0.148151   -0.928834
     10          6           0       -1.333953   -1.454132   -0.115074
     11          6           0       -1.473096   -1.250231    1.398205
     12          7           0       -2.301340   -2.409075   -0.680667
     13          1           0       -2.730286    2.736881   -0.505857
     14          1           0       -2.584169    3.141616    1.219783
     15          1           0       -3.133810    1.536634    0.737242
     16          1           0       -0.349273    2.779963    0.352552
     17          1           0       -0.743186    1.491085    1.476998
     18          1           0        0.868196    0.338865   -1.869685
     19          1           0        1.083071    1.961865   -1.215919
     20          1           0        1.523451    0.866538    1.071061
     21          1           0        1.565331   -1.632453    1.074697
     22          1           0        1.884953   -1.634224   -0.675652
     23          1           0        4.295383   -1.386653   -0.045641
     24          1           0        3.826622   -0.628738    1.492395
     25          1           0        3.443895    0.608472   -1.303328
     26          1           0        3.754351    1.522966    0.190400
     27          1           0       -2.529601    0.167429   -0.863904
     28          1           0       -1.313007   -0.414587   -1.979939
     29          1           0       -0.341818   -1.871022   -0.317272
     30          1           0       -2.432258   -0.774674    1.642954
     31          1           0       -1.435151   -2.214099    1.921128
     32          1           0       -0.672582   -0.621852    1.800295
     33          1           0       -2.192301   -3.314109   -0.224123
     34          1           0       -3.246915   -2.098536   -0.451159
 ---------------------------------------------------------------------

 SCF Done:  E(UB3LYP) =  -503.952935017     A.U. after   29 cycles

 The electronic state is 2-A.
 Alpha  occ. eigenvalues --  -14.19490 -14.18626 -10.09162 -10.09026 -10.08732
 Alpha  occ. eigenvalues --  -10.08432 -10.07043 -10.06942 -10.06885 -10.06589
 Alpha  occ. eigenvalues --  -10.05869 -10.04921  -0.82003  -0.77922  -0.74691
 Alpha  occ. eigenvalues --   -0.65457  -0.64122  -0.60673  -0.56946  -0.56090
 Alpha  occ. eigenvalues --   -0.52494  -0.49836  -0.45928  -0.44526  -0.39706
 Alpha  occ. eigenvalues --   -0.38889  -0.38228  -0.37526  -0.35270  -0.33652
 Alpha  occ. eigenvalues --   -0.32895  -0.31888  -0.30562  -0.29359  -0.29077
 Alpha  occ. eigenvalues --   -0.28664  -0.27529  -0.26487  -0.25364  -0.25108
 Alpha  occ. eigenvalues --   -0.24333  -0.24047  -0.22399  -0.22079  -0.20931
 Alpha  occ. eigenvalues --   -0.20538  -0.14175  -0.09621   0.04525
 Alpha virt. eigenvalues --    0.06578   0.06856   0.07724   0.08373   0.08722
 Alpha virt. eigenvalues --    0.09498   0.09650   0.10255   0.10882   0.11448
 Alpha virt. eigenvalues --    0.11794   0.12062   0.12768   0.12935   0.14058

  Beta  occ. eigenvalues --  -14.19489 -14.18588 -10.09155 -10.09007 -10.08727
  Beta  occ. eigenvalues --  -10.08421 -10.07036 -10.06925 -10.06870 -10.06576
  Beta  occ. eigenvalues --  -10.05841 -10.04883  -0.81988  -0.77860  -0.74672
  Beta  occ. eigenvalues --   -0.65424  -0.64078  -0.60629  -0.56898  -0.56050
  Beta  occ. eigenvalues --   -0.52445  -0.49770  -0.45880  -0.44483  -0.39673
  Beta  occ. eigenvalues --   -0.38855  -0.38191  -0.37492  -0.35242  -0.33618
  Beta  occ. eigenvalues --   -0.32851  -0.31853  -0.30535  -0.29327  -0.29054
  Beta  occ. eigenvalues --   -0.28627  -0.27493  -0.26452  -0.25321  -0.25075
  Beta  occ. eigenvalues --   -0.24301  -0.24021  -0.22367  -0.22049  -0.20906
  Beta  occ. eigenvalues --   -0.20512  -0.14131  -0.09608
  Beta virt. eigenvalues --    0.06621   0.07275   0.07770   0.08086   0.08743
  Beta virt. eigenvalues --    0.09295   0.09767   0.10103   0.10644   0.11241
  Beta virt. eigenvalues --    0.11804   0.12038   0.12293   0.13063   0.13430

 Mulliken charges and spin densities:
               1          2
     1  C    0.741798  -1.314563
     2  C   -0.482051   0.371826
     3  N    0.071014   0.154313
     4  C   -0.187136  -0.687584
     5  C   -0.351061   1.064023
     6  C   -0.112232  -0.267853
     7  C    0.267847  -0.698025
     8  C    0.210584  -0.750967
     9  C    1.174344  -1.629469
    10  C   -1.172789   0.980546
    11  C    1.148266  -1.731405
    12  N   -0.363155   0.119064
    13  H    0.087005   0.062587
    14  H   -0.452103   0.590050
    15  H   -0.145948   0.286448
    16  H   -0.240352   0.385741
    17  H    0.165578  -0.073989
    18  H    0.065145   0.086239
    19  H   -0.025377   0.196531
    20  H   -0.047785   0.233663
    21  H    0.152476  -0.002454
    22  H    0.085078   0.038429
    23  H   -0.137037   0.292500
    24  H   -0.125425   0.259507
    25  H    0.043872   0.062366
    26  H   -0.167348   0.315922
    27  H    0.078230   0.070210
    28  H    0.196714  -0.030157
    29  H   -0.370682   0.608370
    30  H   -0.098802   0.250882
    31  H   -0.415703   0.564036
    32  H   -0.347924   0.494901
    33  H   -0.177235   0.412328
    34  H   -0.067806   0.285986
 Sum of Mulliken charges =  -1.00000   1.00000

 Dipole moment (field-independent basis, Debye):
    X=              2.4188    Y=              1.5157    Z=             -2.9015  Tot=              4.0702
 Quadrupole moment (field-independent basis, Debye-Ang):
   XX=           -142.0932   YY=           -134.8319   ZZ=           -115.2283
   XY=             -6.1861   XZ=             -0.1512   YZ=             -1.3879

 Summary of Natural Population Analysis:

                                       Natural Population
                Natural  -----------------------------------------------
    Atom  No    Charge         Core      Valence    Rydberg      Total
 -----------------------------------------------------------------------
      C    1   -0.29022      0.99966     2.28549    0.00507     3.29022
      C    2   -0.07968      0.99961     2.06896    0.01111     3.07968
      N    3   -0.28552      0.99971     2.77249    0.01332     3.78552
      C    4   -0.07610      0.99958     2.06474    0.01178     3.07610
      C    5   -0.12050      0.99959     2.10990    0.01100     3.12050
      C    6   -0.19037      0.99963     2.18142    0.00933     3.19037
      C    7   -0.18740      0.99965     2.18066    0.00709     3.18740
      C    8   -0.18624      0.99963     2.17803    0.00858     3.18624
      C    9   -0.07973      0.99958     2.06727    0.01288     3.07973
      C   10   -0.03015      0.99961     2.01919    0.01135     3.03015
      C   11   -0.29472      0.99964     2.28815    0.00693     3.29472
      N   12   -0.42192      0.99977     2.91164    0.01051     3.92192
      H   13    0.09716      0.00000     0.40164    0.00120     0.40284
      H   14    0.10082      0.00000     0.39824    0.00094     0.39918
      H   15    0.09790      0.00000     0.40082    0.00128     0.40210
      H   16    0.09165      0.00000     0.40684    0.00151     0.40835
      H   17    0.08026      0.00000     0.41781    0.00193     0.41974
      H   18    0.09268      0.00000     0.40611    0.00121     0.40732
      H   19    0.09028      0.00000     0.40846    0.00126     0.40972
      H   20    0.09814      0.00000     0.39994    0.00192     0.40186
      H   21    0.10126      0.00000     0.39751    0.00123     0.39874
      H   22    0.09326      0.00000     0.40512    0.00162     0.40674
      H   23    0.09245      0.00000     0.40643    0.00111     0.40755
      H   24    0.09606      0.00000     0.40240    0.00155     0.40394
      H   25    0.09188      0.00000     0.40693    0.00119     0.40812
      H   26    0.09680      0.00000     0.40206    0.00114     0.40320
      H   27    0.09296      0.00000     0.40560    0.00143     0.40704
      H   28    0.09696      0.00000     0.40177    0.00127     0.40304
      H   29    0.08869      0.00000     0.40825    0.00306     0.41131
      H   30    0.09612      0.00000     0.40206    0.00182     0.40388
      H   31    0.10004      0.00000     0.39821    0.00175     0.39996
      H   32    0.10042      0.00000     0.39789    0.00169     0.39958
      H   33    0.17613      0.00000     0.32160    0.00227     0.32387
      H   34    0.17062      0.00000     0.32720    0.00217     0.32938
 =======================================================================
   * Total *   -0.00000     11.99567    35.85082    0.15351    48.00000

 Normal termination of Gaussian 16 at Wed Dec  9 17:48:17 2020.
