 Gaussian 16, Revision A.03,

 -----------------------------------------------------------
 # opt freq B3LYP/6-31G(d) empiricaldispersion=gd3bj scf=xqc
 -----------------------------------------------------------

 ------------------------------
 CID_88861591_JID_1482_neutraal
 ------------------------------
 Symbolic Z-matrix:
 Charge =  0 Multiplicity = 1

 SCF Done:  E(RB3LYP) =  -495.506102265     A.U. after   15 cycles
 SCF Done:  E(RB3LYP) =  -495.523451307     A.U. after   13 cycles
 SCF Done:  E(RB3LYP) =  -495.524964030     A.U. after   12 cycles
 SCF Done:  E(RB3LYP) =  -495.524531595     A.U. after   12 cycles
 SCF Done:  E(RB3LYP) =  -495.524317764     A.U. after   12 cycles
 SCF Done:  E(RB3LYP) =  -495.523604795     A.U. after   12 cycles
 SCF Done:  E(RB3LYP) =  -495.525015930     A.U. after    9 cycles
 SCF Done:  E(RB3LYP) =  -495.525367869     A.U. after   11 cycles
 SCF Done:  E(RB3LYP) =  -495.525054480     A.U. after   12 cycles
 SCF Done:  E(RB3LYP) =  -495.525396672     A.U. after   12 cycles
 SCF Done:  E(RB3LYP) =  -495.525416846     A.U. after   10 cycles
 SCF Done:  E(RB3LYP) =  -495.525422092     A.U. after   10 cycles
 SCF Done:  E(RB3LYP) =  -495.525423735     A.U. after    9 cycles
 SCF Done:  E(RB3LYP) =  -495.525425047     A.U. after   10 cycles
 SCF Done:  E(RB3LYP) =  -495.525425347     A.U. after    8 cycles
 SCF Done:  E(RB3LYP) =  -495.525425409     A.U. after    7 cycles
 Optimization completed.
    -- Stationary point found.
 Normal termination of Gaussian 16 at Tue Dec  8 20:08:07 2020.

 --------------------------------------------------------------------
 #N Geom=AllCheck Guess=TCheck SCRF=Check GenChk RB3LYP/6-31G(d) Freq
 --------------------------------------------------------------------

 Structure from the checkpoint file:  "JID_1482.chk"
 ------------------------------
 CID_88861591_JID_1482_neutraal
 ------------------------------
 Charge =  0 Multiplicity = 1

 SCF Done:  E(RB3LYP) =  -495.525425409     A.U. after    1 cycles

  Exact polarizability: 100.433  -0.039 102.687 -11.855  -1.999  64.700
 Approx polarizability: 136.627  -3.213 177.458 -23.656  -2.262  96.529

                      1                      2                      3
                      A                      A                      A
 Frequencies --     32.1142                90.6292                98.4419
 Red. masses --      4.3494                 4.9639                 3.6743
 Frc consts  --      0.0026                 0.0240                 0.0210
 IR Inten    --      1.3641                 0.3403                 1.0189

                      4                      5                      6
                      A                      A                      A
 Frequencies --    158.3933               172.8952               236.0760
 Red. masses --      3.8080                 2.7407                 1.1625
 Frc consts  --      0.0563                 0.0483                 0.0382
 IR Inten    --      0.9140                 1.1558                 0.5715

                      7                      8                      9
                      A                      A                      A
 Frequencies --    271.3922               304.4104               337.3538
 Red. masses --      3.8560                 1.1473                 4.5484
 Frc consts  --      0.1673                 0.0626                 0.3050
 IR Inten    --      1.0545               116.6819                 3.8853

                     10                     11                     12
                      A                      A                      A
 Frequencies --    345.1713               414.3569               415.8266
 Red. masses --      5.9115                 2.0453                 2.9429
 Frc consts  --      0.4150                 0.2069                 0.2998
 IR Inten    --      0.7654                 6.7276                14.4846

                     13                     14                     15
                      A                      A                      A
 Frequencies --    560.2698               593.9597               620.8980
 Red. masses --      5.0234                 5.1988                 1.2574
 Frc consts  --      0.9291                 1.0806                 0.2856
 IR Inten    --      7.3152                 3.0363                41.6726

                     16                     17                     18
                      A                      A                      A
 Frequencies --    631.5722               645.7194               669.2670
 Red. masses --      3.2993                 1.2246                 6.2755
 Frc consts  --      0.7754                 0.3008                 1.6561
 IR Inten    --     23.3064                41.9027                 2.4488

                     19                     20                     21
                      A                      A                      A
 Frequencies --    721.2277               754.0356               785.9540
 Red. masses --      4.2877                 1.2082                 4.4884
 Frc consts  --      1.3141                 0.4047                 1.6336
 IR Inten    --      6.2666                46.7096                17.4139

                     22                     23                     24
                      A                      A                      A
 Frequencies --    829.4175               881.5356               912.3555
 Red. masses --      1.2754                 1.2999                 2.1065
 Frc consts  --      0.5169                 0.5952                 1.0331
 IR Inten    --      2.1618                 3.6695                 3.5393

                     25                     26                     27
                      A                      A                      A
 Frequencies --    943.2344               962.8835               978.5994
 Red. masses --      5.8542                 2.3176                 1.9309
 Frc consts  --      3.0687                 1.2660                 1.0895
 IR Inten    --      4.0123                29.5070                 2.8999

                     28                     29                     30
                      A                      A                      A
 Frequencies --    994.2572              1070.0862              1102.5584
 Red. masses --      2.3453                 1.5483                 2.0232
 Frc consts  --      1.3660                 1.0446                 1.4491
 IR Inten    --     28.0075                39.3322                22.1688

                     31                     32                     33
                      A                      A                      A
 Frequencies --   1121.1296              1175.2479              1180.5531
 Red. masses --      1.7491                 2.4739                 1.7800
 Frc consts  --      1.2953                 2.0132                 1.4616
 IR Inten    --     11.5972                56.8535                14.1324

                     34                     35                     36
                      A                      A                      A
 Frequencies --   1236.4283              1260.1731              1335.0095
 Red. masses --      1.9227                 1.6844                 3.1029
 Frc consts  --      1.7318                 1.5760                 3.2582
 IR Inten    --     34.7201                 0.7941                46.8788

                     37                     38                     39
                      A                      A                      A
 Frequencies --   1378.2088              1381.2272              1409.7885
 Red. masses --      2.2777                 1.5237                 1.4956
 Frc consts  --      2.5490                 1.7127                 1.7514
 IR Inten    --     24.9683                 9.2487                35.0770

                     40                     41                     42
                      A                      A                      A
 Frequencies --   1443.2024              1445.0581              1487.6024
 Red. masses --      1.7715                 2.3317                 2.0125
 Frc consts  --      2.1739                 2.8688                 2.6240
 IR Inten    --     24.1760                31.7374                 8.3154

                     43                     44                     45
                      A                      A                      A
 Frequencies --   1500.3318              1510.2845              1523.5907
 Red. masses --      1.3954                 1.1038                 1.0529
 Frc consts  --      1.8506                 1.4834                 1.4401
 IR Inten    --      6.0894                13.0262                 1.7269

                     46                     47                     48
                      A                      A                      A
 Frequencies --   1574.0497              2231.7342              3079.0322
 Red. masses --      4.0965                 5.9514                 1.0368
 Frc consts  --      5.9800                17.4644                 5.7913
 IR Inten    --     19.4235                 1.3224                14.7141

                     49                     50                     51
                      A                      A                      A
 Frequencies --   3082.4596              3154.0851              3161.7742
 Red. masses --      1.0626                 1.1036                 1.1015
 Frc consts  --      5.9485                 6.4687                 6.4879
 IR Inten    --     25.0637                13.9503                 5.4034

                     52                     53                     54
                      A                      A                      A
 Frequencies --   3175.2959              3256.6107              3277.3726
 Red. masses --      1.1032                 1.0931                 1.0937
 Frc consts  --      6.5533                 6.8302                 6.9218
 IR Inten    --      9.1811                 7.2695                 3.7394

                     55                     56                     57
                      A                      A                      A
 Frequencies --   3295.6355              3493.3932              3734.3699
 Red. masses --      1.1052                 1.1604                 1.0662
 Frc consts  --      7.0721                 8.3434                 8.7608
 IR Inten    --      1.0250                55.5312                18.0464

 - Thermochemistry -
 -------------------
 Temperature   298.150 Kelvin.  Pressure   1.00000 Atm.
 Atom     1 has atomic number  6 and mass  12.00000

 Molecular mass:   150.07931 amu.
 Principal axes and moments of inertia in atomic units:
                           1         2         3
     Eigenvalues --   895.145522210.691082607.64407
           X            0.99993  -0.01138  -0.00240
           Y            0.01130   0.99945  -0.03127
           Z            0.00276   0.03124   0.99951
 This molecule is an asymmetric top.
 Rotational symmetry number  1.
 Warning -- assumption of classical behavior for rotation
           may cause significant error
 Rotational temperatures (Kelvin)      0.09676     0.03918     0.03322
 Rotational constants (GHZ):           2.01614     0.81637     0.69210
 Zero-point vibrational energy     445241.3 (Joules/Mol)
                                  106.41524 (Kcal/Mol)
 Warning -- explicit consideration of  14 degrees of freedom as
           vibrations may cause significant error
 Vibrational temperatures:     46.21   130.40   141.64   227.89   248.76
          (Kelvin)            339.66   390.47   437.98   485.38   496.62
                              596.17   598.28   806.10   854.58   893.33
                              908.69   929.05   962.93  1037.69  1084.89
                             1130.81  1193.35  1268.33  1312.68  1357.10
                             1385.37  1407.99  1430.51  1539.62  1586.34
                             1613.06  1690.92  1698.55  1778.94  1813.11
                             1920.78  1982.94  1987.28  2028.37  2076.45
                             2079.12  2140.33  2158.64  2172.96  2192.11
                             2264.71  3210.97  4430.04  4434.97  4538.02
                             4549.09  4568.54  4685.54  4715.41  4741.68
                             5026.21  5372.93

 Zero-point correction=                           0.169583 (Hartree/Particle)
 Thermal correction to Energy=                    0.180458
 Thermal correction to Enthalpy=                  0.181402
 Thermal correction to Gibbs Free Energy=         0.132717
 Sum of electronic and zero-point Energies=           -495.355842
 Sum of electronic and thermal Energies=              -495.344968
 Sum of electronic and thermal Enthalpies=            -495.344024
 Sum of electronic and thermal Free Energies=         -495.392708

                     E (Thermal)             CV                S
                      KCal/Mol        Cal/Mol-Kelvin    Cal/Mol-Kelvin
 Total                  113.239             40.890            102.466
 Electronic               0.000              0.000              0.000
 Translational            0.889              2.981             40.928
 Rotational               0.889              2.981             30.024
 Vibrational            111.461             34.928             31.513
 Vibration     1          0.594              1.983              5.694
 Vibration     2          0.602              1.956              3.646
 Vibration     3          0.604              1.950              3.485
 Vibration     4          0.621              1.893              2.569
 Vibration     5          0.626              1.876              2.404
 Vibration     6          0.655              1.786              1.832
 Vibration     7          0.675              1.726              1.587
 Vibration     8          0.695              1.665              1.393
 Vibration     9          0.718              1.601              1.225
 Vibration    10          0.724              1.585              1.188
 Vibration    11          0.778              1.439              0.911
 Vibration    12          0.779              1.436              0.906
 Vibration    13          0.916              1.117              0.523
 Vibration    14          0.952              1.045              0.460

 Optimization completed.
    -- Stationary point found.
 Normal termination of Gaussian 16 at Tue Dec  8 20:12:11 2020.

 ----------------------------------------------------------------------
 # B3LYP/6-311++G(d,p) empiricaldispersion=gd3bj scf=xqc pop=npa geom=c
 heck
 ----------------------------------------------------------------------

 --------------------------------------
 CID_88861591_JID_1482_Energie_neutraal
 --------------------------------------
 Structure from the checkpoint file:  "JID_1482.chk"
 Charge =  0 Multiplicity = 1

 SCF Done:  E(RB3LYP) =  -495.675184906     A.U. after   14 cycles
 Normal termination of Gaussian 16 at Tue Dec  8 20:14:08 2020.

 ----------------------------------------------------------------------
 # B3LYP/6-311++G(d,p) empiricaldispersion=gd3bj scf=xqc pop=npa geom=c
 heck
 ----------------------------------------------------------------------

 ------------------------------------
 CID_88861591_JID_1482_Energie_kation
 ------------------------------------
 Structure from the checkpoint file:  "JID_1482.chk"
 Charge =  1 Multiplicity = 2

 SCF Done:  E(UB3LYP) =  -495.350127893     A.U. after   28 cycles
 Normal termination of Gaussian 16 at Tue Dec  8 20:18:25 2020.
 Gaussian 16:  ES64L-G16RevA.03 25-Dec-2016

 ----------------------------------------------------------------------
 # B3LYP/6-311++G(d,p) empiricaldispersion=gd3bj scf=xqc pop=npa geom=c
 heck
 ----------------------------------------------------------------------

 -----------------------------------
 CID_88861591_JID_1482_Energie_anion
 -----------------------------------
 Structure from the checkpoint file:  "JID_1482.chk"
 Charge = -1 Multiplicity = 2

                         Standard orientation:
 ---------------------------------------------------------------------
 Center     Atomic      Atomic             Coordinates (Angstroms)
 Number     Number       Type             X           Y           Z
 ---------------------------------------------------------------------
      1          6           0        1.303180   -1.150837    1.279828
      2          6           0        1.498932   -0.327415    0.006436
      3          6           0        0.353914   -0.577155   -1.015174
      4          7           0       -0.965280   -0.225742   -0.538905
      5          6           0       -1.559013    0.999479   -0.542973
      6          6           0       -2.772592    0.856552    0.100243
      7          6           0       -2.818691   -0.507604    0.466673
      8          7           0       -1.723978   -1.163370    0.082882
      9          6           0        1.602672    1.109592    0.308513
     10          6           0        1.700356    2.296849    0.506791
     11          8           0        2.712851   -0.797839   -0.594915
     12          1           0        0.357255   -0.898302    1.761946
     13          1           0        2.130623   -0.961708    1.967843
     14          1           0        1.289953   -2.212870    1.018519
     15          1           0        0.561115   -0.008462   -1.927318
     16          1           0        0.346151   -1.641178   -1.255456
     17          1           0       -1.071352    1.854639   -0.985857
     18          1           0       -3.516963    1.620521    0.270090
     19          1           0       -3.605284   -1.041546    0.983508
     20          1           0        1.790684    3.339675    0.711223
     21          1           0        2.987271   -0.141039   -1.255035
 ---------------------------------------------------------------------

 SCF Done:  E(UB3LYP) =  -495.661235004     A.U. after   30 cycles

 The electronic state is 2-A.
 Alpha  occ. eigenvalues --  -19.03025 -14.29123 -14.23014 -10.16192 -10.11721
 Alpha  occ. eigenvalues --  -10.10472 -10.09312 -10.07378 -10.06884 -10.06768
 Alpha  occ. eigenvalues --  -10.06674  -0.95307  -0.93556  -0.75475  -0.69582
 Alpha  occ. eigenvalues --   -0.68166  -0.63892  -0.60193  -0.53272  -0.50537
 Alpha  occ. eigenvalues --   -0.47507  -0.45326  -0.43120  -0.41587  -0.39226
 Alpha  occ. eigenvalues --   -0.35326  -0.35025  -0.32893  -0.31259  -0.30780
 Alpha  occ. eigenvalues --   -0.29539  -0.29035  -0.28011  -0.25989  -0.20716
 Alpha  occ. eigenvalues --   -0.19929  -0.18338  -0.18019  -0.15562  -0.14985
 Alpha  occ. eigenvalues --    0.04726
 Alpha virt. eigenvalues --    0.07220   0.07717   0.08438   0.09268   0.09490
 Alpha virt. eigenvalues --    0.10461   0.10679   0.11116   0.11462   0.12787
 Alpha virt. eigenvalues --    0.13313   0.13620   0.14535   0.15049   0.15653

  Beta  occ. eigenvalues --  -19.02981 -14.29121 -14.23002 -10.16187 -10.11691
  Beta  occ. eigenvalues --  -10.10446 -10.09310 -10.07381 -10.06836 -10.06758
  Beta  occ. eigenvalues --  -10.06662  -0.95288  -0.93473  -0.75445  -0.69548
  Beta  occ. eigenvalues --   -0.68135  -0.63852  -0.60154  -0.53227  -0.50515
  Beta  occ. eigenvalues --   -0.47452  -0.45240  -0.43061  -0.41495  -0.39171
  Beta  occ. eigenvalues --   -0.35294  -0.34997  -0.32856  -0.31230  -0.30748
  Beta  occ. eigenvalues --   -0.29511  -0.29010  -0.27980  -0.25946  -0.20677
  Beta  occ. eigenvalues --   -0.19912  -0.18297  -0.17977  -0.15523  -0.14953
  Beta virt. eigenvalues --    0.07221   0.08065   0.08742   0.09030   0.09846
  Beta virt. eigenvalues --    0.09897   0.10750   0.11136   0.11378   0.11717
  Beta virt. eigenvalues --    0.12903   0.13661   0.13766   0.14654   0.15099

 Mulliken charges and spin densities:
               1          2
     1  C    0.466310  -1.130638
     2  C   -2.077728   2.189821
     3  C    0.410106  -0.899878
     4  N    0.222904   0.056667
     5  C    0.442786  -0.821949
     6  C    0.128352  -0.035440
     7  C    0.292926  -0.657760
     8  N   -0.385732   0.200873
     9  C    3.484565  -3.485050
    10  C   -0.622614   0.533766
    11  O   -0.130853  -0.042244
    12  H    0.103097   0.066663
    13  H    0.045424   0.126661
    14  H    0.071879   0.081652
    15  H   -0.696509   0.924527
    16  H    0.044456   0.159754
    17  H   -0.379944   0.530064
    18  H   -0.509502   0.678798
    19  H    0.061847   0.058680
    20  H   -1.794946   2.007480
    21  H   -0.176822   0.457553
 Sum of Mulliken charges =  -1.00000   1.00000

 Dipole moment (field-independent basis, Debye):
    X=             -3.4390    Y=             -6.3782    Z=              2.3436  Tot=              7.6158
 Quadrupole moment (field-independent basis, Debye-Ang):
   XX=           -112.9779   YY=           -118.3795   ZZ=            -98.9268
   XY=             -4.5514   XZ=              3.7490   YZ=             -0.8646

 Summary of Natural Population Analysis:

                                       Natural Population
                Natural  -----------------------------------------------
    Atom  No    Charge         Core      Valence    Rydberg      Total
 -----------------------------------------------------------------------
      C    1   -0.28166      0.99962     2.27612    0.00591     3.28166
      C    2    0.08862      0.99948     1.89437    0.01753     2.91138
      C    3   -0.08382      0.99956     2.06938    0.01488     3.08382
      N    4   -0.11346      0.99966     2.59874    0.01507     3.61346
      C    5    0.00357      0.99955     1.98429    0.01258     2.99643
      C    6   -0.16706      0.99957     2.15808    0.00941     3.16706
      C    7   -0.01767      0.99963     2.00413    0.01390     3.01767
      N    8   -0.15653      0.99974     2.64600    0.01080     3.65653
      C    9   -0.03103      0.99935     2.01946    0.01222     3.03103
      C   10   -0.08653      0.99927     2.08283    0.00442     3.08653
      O   11   -0.36628      0.99989     3.35952    0.00687     4.36628
      H   12    0.10986      0.00000     0.38894    0.00119     0.39014
      H   13    0.10486      0.00000     0.39427    0.00087     0.39514
      H   14    0.10339      0.00000     0.39563    0.00098     0.39661
      H   15    0.10963      0.00000     0.38697    0.00340     0.39037
      H   16    0.11091      0.00000     0.38731    0.00178     0.38909
      H   17    0.11418      0.00000     0.38284    0.00298     0.38582
      H   18    0.10908      0.00000     0.39001    0.00091     0.39092
      H   19    0.09496      0.00000     0.40427    0.00077     0.40504
      H   20    0.11562      0.00000     0.37867    0.00570     0.38438
      H   21    0.23936      0.00000     0.25237    0.00827     0.26064
 =======================================================================
   * Total *   -0.00000     10.99532    28.85422    0.15047    40.00000

 Normal termination of Gaussian 16 at Tue Dec  8 20:22:54 2020.
