 Gaussian 16, Revision A.03,

 -----------------------------------------------------------
 # opt freq B3LYP/6-31G(d) empiricaldispersion=gd3bj scf=xqc
 -----------------------------------------------------------

 ------------------------------
 CID_10513289_JID_6684_neutraal
 ------------------------------
 Symbolic Z-matrix:
 Charge =  0 Multiplicity = 1

 SCF Done:  E(RB3LYP) =  -674.770808758     A.U. after   14 cycles
 SCF Done:  E(RB3LYP) =  -674.773674341     A.U. after   11 cycles
 SCF Done:  E(RB3LYP) =  -674.774138822     A.U. after   11 cycles
 SCF Done:  E(RB3LYP) =  -674.774315322     A.U. after   11 cycles
 SCF Done:  E(RB3LYP) =  -674.774400374     A.U. after   10 cycles
 SCF Done:  E(RB3LYP) =  -674.774461581     A.U. after   11 cycles
 SCF Done:  E(RB3LYP) =  -674.774494945     A.U. after   10 cycles
 SCF Done:  E(RB3LYP) =  -674.774508385     A.U. after    9 cycles
 SCF Done:  E(RB3LYP) =  -674.774513926     A.U. after    9 cycles
 SCF Done:  E(RB3LYP) =  -674.774521387     A.U. after   10 cycles
 SCF Done:  E(RB3LYP) =  -674.774603766     A.U. after   11 cycles
 SCF Done:  E(RB3LYP) =  -674.774604183     A.U. after   11 cycles
 SCF Done:  E(RB3LYP) =  -674.774605622     A.U. after   10 cycles
 SCF Done:  E(RB3LYP) =  -674.774605665     A.U. after    8 cycles
 SCF Done:  E(RB3LYP) =  -674.774605678     A.U. after    9 cycles
 SCF Done:  E(RB3LYP) =  -674.774605624     A.U. after    7 cycles
 Optimization completed.
    -- Stationary point found.
 Normal termination of Gaussian 16 at Fri Dec 11 00:27:50 2020.

 --------------------------------------------------------------------
 #N Geom=AllCheck Guess=TCheck SCRF=Check GenChk RB3LYP/6-31G(d) Freq
 --------------------------------------------------------------------

 Structure from the checkpoint file:  "JID_6684.chk"
 ------------------------------
 CID_10513289_JID_6684_neutraal
 ------------------------------
 Charge =  0 Multiplicity = 1

 SCF Done:  E(RB3LYP) =  -674.774605624     A.U. after    1 cycles

  Exact polarizability: 178.643  -7.332 153.120  14.090   0.873 129.283
 Approx polarizability: 214.606  -9.854 233.042  26.091   5.116 195.790

                      1                      2                      3
                      A                      A                      A
 Frequencies --      8.8202                27.2405                36.3655
 Red. masses --      3.8176                 3.6398                 3.0570
 Frc consts  --      0.0002                 0.0016                 0.0024
 IR Inten    --      2.1292                 0.1656                 0.2500

                      4                      5                      6
                      A                      A                      A
 Frequencies --     56.1374                65.0522                74.8873
 Red. masses --      3.4766                 3.2921                 3.0148
 Frc consts  --      0.0065                 0.0082                 0.0100
 IR Inten    --      0.5887                 5.4125                 5.2537

                      7                      8                      9
                      A                      A                      A
 Frequencies --     91.1415               117.4615               130.8602
 Red. masses --      3.7099                 3.9181                 2.3799
 Frc consts  --      0.0182                 0.0319                 0.0240
 IR Inten    --      0.4854                 1.3400                 5.9650

                     10                     11                     12
                      A                      A                      A
 Frequencies --    157.8070               193.7188               229.2449
 Red. masses --      2.0452                 2.5595                 1.7152
 Frc consts  --      0.0300                 0.0566                 0.0531
 IR Inten    --      2.1362                 1.9017                 0.2764

                     13                     14                     15
                      A                      A                      A
 Frequencies --    261.6228               272.3925               280.9978
 Red. masses --      1.5106                 1.4119                 3.0116
 Frc consts  --      0.0609                 0.0617                 0.1401
 IR Inten    --     32.0735                63.2863                 4.2405

                     16                     17                     18
                      A                      A                      A
 Frequencies --    307.9124               329.1917               358.3989
 Red. masses --      1.7467                 2.5172                 2.3816
 Frc consts  --      0.0976                 0.1607                 0.1802
 IR Inten    --      0.8672                 2.5553                 3.0079

                     19                     20                     21
                      A                      A                      A
 Frequencies --    388.5871               401.0340               430.6020
 Red. masses --      2.0004                 2.1796                 2.0667
 Frc consts  --      0.1780                 0.2065                 0.2258
 IR Inten    --      0.2009                 4.3904                 1.7620

                     22                     23                     24
                      A                      A                      A
 Frequencies --    477.2998               485.5813               550.6065
 Red. masses --      2.6507                 2.2089                 2.5547
 Frc consts  --      0.3558                 0.3069                 0.4563
 IR Inten    --      7.9428                 1.3085                 1.2112

                     25                     26                     27
                      A                      A                      A
 Frequencies --    611.6018               626.6078               685.9845
 Red. masses --      1.4832                 3.1853                 2.2215
 Frc consts  --      0.3269                 0.7369                 0.6159
 IR Inten    --     86.2140                10.6546                 8.3140

                     28                     29                     30
                      A                      A                      A
 Frequencies --    705.9445               716.9493               730.4494
 Red. masses --      2.7075                 1.5150                 1.6704
 Frc consts  --      0.7950                 0.4588                 0.5251
 IR Inten    --     12.5340                26.8704                 4.4050

                     31                     32                     33
                      A                      A                      A
 Frequencies --    760.0682               794.8181               823.9855
 Red. masses --      2.1007                 2.0040                 2.3377
 Frc consts  --      0.7150                 0.7459                 0.9352
 IR Inten    --      1.4270                 2.5485                 1.0164

                     34                     35                     36
                      A                      A                      A
 Frequencies --    834.6847               853.5016               866.4006
 Red. masses --      1.3153                 1.6745                 1.8496
 Frc consts  --      0.5399                 0.7187                 0.8180
 IR Inten    --     23.3935                 0.6745                 7.5234

                     37                     38                     39
                      A                      A                      A
 Frequencies --    892.7987               906.9826               920.4853
 Red. masses --      1.8556                 2.1624                 1.6131
 Frc consts  --      0.8715                 1.0481                 0.8053
 IR Inten    --      0.6553                 8.3734                28.9093

                     40                     41                     42
                      A                      A                      A
 Frequencies --    921.6993               960.8201               986.4824
 Red. masses --      1.5411                 1.7054                 1.8070
 Frc consts  --      0.7714                 0.9276                 1.0361
 IR Inten    --     44.3599                 2.8004                 1.1882

                     43                     44                     45
                      A                      A                      A
 Frequencies --    996.9194              1016.4714              1040.2529
 Red. masses --      1.9256                 2.6525                 2.1280
 Frc consts  --      1.1276                 1.6147                 1.3568
 IR Inten    --      4.9408                17.5470                 1.8562

                     46                     47                     48
                      A                      A                      A
 Frequencies --   1044.9610              1059.9106              1064.9082
 Red. masses --      1.7227                 1.6609                 2.4531
 Frc consts  --      1.1083                 1.0994                 1.6390
 IR Inten    --      6.3349                11.1288                 7.0607

                     49                     50                     51
                      A                      A                      A
 Frequencies --   1076.2877              1110.0416              1114.6679
 Red. masses --      2.0384                 1.9983                 1.8197
 Frc consts  --      1.3912                 1.4507                 1.3321
 IR Inten    --      0.1160                12.1194                 2.0303

                     52                     53                     54
                      A                      A                      A
 Frequencies --   1125.2651              1143.0598              1177.1425
 Red. masses --      1.5372                 1.9163                 1.7651
 Frc consts  --      1.1468                 1.4752                 1.4410
 IR Inten    --      3.8967                 0.5296                 1.0958

                     55                     56                     57
                      A                      A                      A
 Frequencies --   1186.7225              1196.1300              1209.4215
 Red. masses --      1.3357                 1.6753                 1.4633
 Frc consts  --      1.1083                 1.4122                 1.2611
 IR Inten    --      4.4259                13.9737                 0.9805

                     58                     59                     60
                      A                      A                      A
 Frequencies --   1216.4581              1235.9652              1255.0450
 Red. masses --      1.4467                 1.3648                 1.6220
 Frc consts  --      1.2613                 1.2284                 1.5053
 IR Inten    --      2.5665                 6.5773                 1.4905

                     61                     62                     63
                      A                      A                      A
 Frequencies --   1273.2586              1295.4941              1308.6395
 Red. masses --      1.3826                 1.5671                 1.2474
 Frc consts  --      1.3206                 1.5496                 1.2587
 IR Inten    --      1.1446                 5.9743                 4.9808

                     64                     65                     66
                      A                      A                      A
 Frequencies --   1330.9536              1351.9465              1366.6880
 Red. masses --      1.1559                 1.1117                 1.3623
 Frc consts  --      1.2064                 1.1972                 1.4992
 IR Inten    --      1.1944                 0.6494                13.1069

                     67                     68                     69
                      A                      A                      A
 Frequencies --   1369.2351              1379.5325              1385.2526
 Red. masses --      1.3481                 1.3701                 1.4788
 Frc consts  --      1.4891                 1.5363                 1.6719
 IR Inten    --     13.7086                16.2632                 2.4906

                     70                     71                     72
                      A                      A                      A
 Frequencies --   1387.8938              1404.1428              1409.0178
 Red. masses --      1.4230                 1.3884                 1.5034
 Frc consts  --      1.6150                 1.6129                 1.7585
 IR Inten    --     16.6091                 1.0577                 0.9637

                     73                     74                     75
                      A                      A                      A
 Frequencies --   1421.5363              1423.3361              1427.0887
 Red. masses --      2.3042                 1.4842                 1.5668
 Frc consts  --      2.7434                 1.7716                 1.8801
 IR Inten    --      0.8846                 2.0073                 3.6862

                     76                     77                     78
                      A                      A                      A
 Frequencies --   1429.9844              1443.3400              1473.3002
 Red. masses --      1.3608                 1.2730                 2.8602
 Frc consts  --      1.6395                 1.5625                 3.6579
 IR Inten    --     12.1211                 5.1711                32.5539

                     79                     80                     81
                      A                      A                      A
 Frequencies --   1501.3079              1503.8849              1512.7316
 Red. masses --      1.1098                 1.1043                 1.1309
 Frc consts  --      1.4737                 1.4715                 1.5248
 IR Inten    --      6.4751                 0.1300                 3.0747

                     82                     83                     84
                      A                      A                      A
 Frequencies --   1515.6091              1520.4046              1525.0554
 Red. masses --      1.1016                 1.0983                 1.0671
 Frc consts  --      1.4910                 1.4958                 1.4623
 IR Inten    --      6.1908                 3.1308                 7.6886

                     85                     86                     87
                      A                      A                      A
 Frequencies --   1528.4684              1532.6187              1533.8256
 Red. masses --      1.0979                 1.0763                 1.0919
 Frc consts  --      1.5112                 1.4896                 1.5135
 IR Inten    --      0.8161                 8.0084                 5.1285

                     88                     89                     90
                      A                      A                      A
 Frequencies --   1537.3731              1545.3987              1551.3596
 Red. masses --      1.0670                 1.0977                 5.1215
 Frc consts  --      1.4858                 1.5447                 7.2623
 IR Inten    --      2.4620                 1.6082                17.2074

                     91                     92                     93
                      A                      A                      A
 Frequencies --   1636.5712              1696.8701              3000.7783
 Red. masses --      4.7102                 1.0868                 1.0704
 Frc consts  --      7.4330                 1.8437                 5.6790
 IR Inten    --     22.5227                32.8060                66.4252

                     94                     95                     96
                      A                      A                      A
 Frequencies --   3026.6810              3032.7898              3035.4504
 Red. masses --      1.0640                 1.0631                 1.0618
 Frc consts  --      5.7427                 5.7612                 5.7644
 IR Inten    --     18.1346                31.2722                41.5624

                     97                     98                     99
                      A                      A                      A
 Frequencies --   3037.5693              3041.5344              3043.6814
 Red. masses --      1.0650                 1.0613                 1.0531
 Frc consts  --      5.7894                 5.7847                 5.7479
 IR Inten    --     29.0292                 3.6548                16.6026

                    100                    101                    102
                      A                      A                      A
 Frequencies --   3045.0452              3048.5508              3055.8778
 Red. masses --      1.0529                 1.0620                 1.0648
 Frc consts  --      5.7519                 5.8151                 5.8585
 IR Inten    --     15.2480                 2.0861                24.3526

                    103                    104                    105
                      A                      A                      A
 Frequencies --   3058.4049              3064.1013              3072.6855
 Red. masses --      1.0954                 1.0960                 1.0973
 Frc consts  --      6.0367                 6.0627                 6.1037
 IR Inten    --      1.6500                47.4982                57.8192

                    106                    107                    108
                      A                      A                      A
 Frequencies --   3077.4124              3081.9573              3086.8549
 Red. masses --      1.1016                 1.0997                 1.0936
 Frc consts  --      6.1466                 6.1541                 6.1394
 IR Inten    --    143.1605                48.5867                60.2426

                    109                    110                    111
                      A                      A                      A
 Frequencies --   3089.7117              3096.3520              3101.7165
 Red. masses --      1.1022                 1.0990                 1.1021
 Frc consts  --      6.1993                 6.2079                 6.2468
 IR Inten    --     41.5236                23.6929                39.3161

                    112                    113                    114
                      A                      A                      A
 Frequencies --   3108.7820              3116.0517              3250.0053
 Red. masses --      1.1015                 1.1019                 1.0966
 Frc consts  --      6.2719                 6.3039                 6.8243
 IR Inten    --     50.6837                52.1008                14.4007

                    115                    116                    117
                      A                      A                      A
 Frequencies --   3477.8155              3559.7832              3623.2994
 Red. masses --      1.0505                 1.0925                 1.0807
 Frc consts  --      7.4860                 8.1564                 8.3596
 IR Inten    --      0.3159                 0.1631                52.3066

 - Thermochemistry -
 -------------------
 Temperature   298.150 Kelvin.  Pressure   1.00000 Atm.
 Atom     1 has atomic number  6 and mass  12.00000

 Molecular mass:   223.20485 amu.
 Principal axes and moments of inertia in atomic units:
                           1         2         3
     Eigenvalues --  2062.425028764.050979776.74377
           X            0.99999  -0.00393  -0.00210
           Y            0.00391   0.99995  -0.00972
           Z            0.00214   0.00971   0.99995
 This molecule is an asymmetric top.
 Rotational symmetry number  1.
 Warning -- assumption of classical behavior for rotation
           may cause significant error
 Rotational temperatures (Kelvin)      0.04200     0.00988     0.00886
 Rotational constants (GHZ):           0.87506     0.20593     0.18460
 Zero-point vibrational energy     989059.7 (Joules/Mol)
                                  236.39094 (Kcal/Mol)
 Warning -- explicit consideration of  25 degrees of freedom as
           vibrations may cause significant error
 Vibrational temperatures:     12.69    39.19    52.32    80.77    93.60
          (Kelvin)            107.75   131.13   169.00   188.28   227.05
                              278.72   329.83   376.42   391.91   404.29
                              443.02   473.63   515.66   559.09   577.00
                              619.54   686.73   698.64   792.20   879.96
                              901.55   986.98  1015.70  1031.53  1050.95
                             1093.57  1143.57  1185.53  1200.93  1228.00
                             1246.56  1284.54  1304.95  1324.37  1326.12
                             1382.41  1419.33  1434.34  1462.48  1496.69
                             1503.47  1524.97  1532.17  1548.54  1597.10
                             1603.76  1619.01  1644.61  1693.65  1707.43
                             1720.96  1740.09  1750.21  1778.28  1805.73
                             1831.94  1863.93  1882.84  1914.95  1945.15
                             1966.36  1970.02  1984.84  1993.07  1996.87
                             2020.25  2027.26  2045.27  2047.86  2053.26
                             2057.43  2076.64  2119.75  2160.05  2163.76
                             2176.48  2180.62  2187.52  2194.21  2199.13
                             2205.10  2206.83  2211.94  2223.48  2232.06
                             2354.66  2441.42  4317.45  4354.72  4363.51
                             4367.34  4370.38  4376.09  4379.18  4381.14
                             4386.18  4396.73  4400.36  4408.56  4420.91
                             4427.71  4434.25  4441.30  4445.41  4454.96
                             4462.68  4472.84  4483.30  4676.03  5003.80
                             5121.73  5213.12

 Zero-point correction=                           0.376713 (Hartree/Particle)
 Thermal correction to Energy=                    0.394658
 Thermal correction to Enthalpy=                  0.395602
 Thermal correction to Gibbs Free Energy=         0.327461
 Sum of electronic and zero-point Energies=           -674.397893
 Sum of electronic and thermal Energies=              -674.379948
 Sum of electronic and thermal Enthalpies=            -674.379003
 Sum of electronic and thermal Free Energies=         -674.447145

                     E (Thermal)             CV                S
                      KCal/Mol        Cal/Mol-Kelvin    Cal/Mol-Kelvin
 Total                  247.652             66.688            143.415
 Electronic               0.000              0.000              0.000
 Translational            0.889              2.981             42.111
 Rotational               0.889              2.981             33.535
 Vibrational            245.874             60.727             67.769
 Vibration     1          0.593              1.987              8.260
 Vibration     2          0.593              1.984              6.021
 Vibration     3          0.594              1.982              5.448
 Vibration     4          0.596              1.975              4.589
 Vibration     5          0.597              1.971              4.298
 Vibration     6          0.599              1.966              4.021
 Vibration     7          0.602              1.955              3.635
 Vibration     8          0.608              1.935              3.142
 Vibration     9          0.612              1.922              2.933
 Vibration    10          0.621              1.894              2.576
 Vibration    11          0.635              1.849              2.192
 Vibration    12          0.652              1.796              1.885
 Vibration    13          0.669              1.743              1.651
 Vibration    14          0.675              1.724              1.581
 Vibration    15          0.681              1.709              1.528
 Vibration    16          0.698              1.659              1.374
 Vibration    17          0.712              1.617              1.264
 Vibration    18          0.733              1.558              1.129
 Vibration    19          0.757              1.495              1.006
 Vibration    20          0.767              1.468              0.959
 Vibration    21          0.792              1.404              0.857
 Vibration    22          0.834              1.300              0.717
 Vibration    23          0.842              1.282              0.695
 Vibration    24          0.906              1.138              0.543
 Vibration    25          0.971              1.007              0.430

 Optimization completed.
    -- Stationary point found.
 Normal termination of Gaussian 16 at Fri Dec 11 00:40:48 2020.

 ----------------------------------------------------------------------
 # B3LYP/6-311++G(d,p) empiricaldispersion=gd3bj scf=xqc pop=npa geom=c
 heck
 ----------------------------------------------------------------------

 --------------------------------------
 CID_10513289_JID_6684_Energie_neutraal
 --------------------------------------
 Structure from the checkpoint file:  "JID_6684.chk"
 Charge =  0 Multiplicity = 1

 SCF Done:  E(RB3LYP) =  -674.969534533     A.U. after   14 cycles
 Normal termination of Gaussian 16 at Fri Dec 11 00:47:03 2020.

 ----------------------------------------------------------------------
 # B3LYP/6-311++G(d,p) empiricaldispersion=gd3bj scf=xqc pop=npa geom=c
 heck
 ----------------------------------------------------------------------

 ------------------------------------
 CID_10513289_JID_6684_Energie_kation
 ------------------------------------
 Structure from the checkpoint file:  "JID_6684.chk"
 Charge =  1 Multiplicity = 2

 SCF Done:  E(UB3LYP) =  -674.685720383     A.U. after   19 cycles
 Normal termination of Gaussian 16 at Fri Dec 11 00:58:30 2020.
 Gaussian 16:  ES64L-G16RevA.03 25-Dec-2016

 ----------------------------------------------------------------------
 # B3LYP/6-311++G(d,p) empiricaldispersion=gd3bj scf=xqc pop=npa geom=c
 heck
 ----------------------------------------------------------------------

 -----------------------------------
 CID_10513289_JID_6684_Energie_anion
 -----------------------------------
 Structure from the checkpoint file:  "JID_6684.chk"
 Charge = -1 Multiplicity = 2

                         Standard orientation:
 ---------------------------------------------------------------------
 Center     Atomic      Atomic             Coordinates (Angstroms)
 Number     Number       Type             X           Y           Z
 ---------------------------------------------------------------------
      1          6           0        5.208792    1.956789   -0.577997
      2          6           0        4.896049    0.466823   -0.744637
      3          6           0        4.271512   -0.182029    0.499907
      4          6           0        2.941851    0.437163    0.960362
      5          6           0        1.832677    0.450666   -0.102773
      6          6           0        1.464874   -0.924998   -0.680664
      7          6           0        1.043600   -1.978406    0.353151
      8          6           0       -0.176244   -1.574805    1.205880
      9          6           0       -1.380601   -1.275526    0.368986
     10          7           0       -2.069441   -2.152189   -0.339697
     11          6           0       -3.042917   -1.423797   -0.992827
     12          6           0       -2.950605   -0.086166   -0.687282
     13          7           0       -1.873953   -0.010142    0.183514
     14          6           0       -3.725387    1.125554   -1.088632
     15          6           0       -4.538810    1.750475    0.059904
     16          7           0       -3.674772    2.040958    1.219071
     17          1           0        4.298253    2.547878   -0.429437
     18          1           0        5.719244    2.355198   -1.461896
     19          1           0        5.858946    2.127814    0.289137
     20          1           0        4.232056    0.328281   -1.607891
     21          1           0        5.821830   -0.070554   -0.988680
     22          1           0        4.126605   -1.252538    0.304806
     23          1           0        4.989397   -0.120278    1.329841
     24          1           0        2.593649   -0.109835    1.846512
     25          1           0        3.115646    1.467101    1.297700
     26          1           0        0.938365    0.916098    0.332688
     27          1           0        2.127355    1.107873   -0.931044
     28          1           0        0.649793   -0.795466   -1.403568
     29          1           0        2.315132   -1.319740   -1.251245
     30          1           0        0.792534   -2.906145   -0.172980
     31          1           0        1.879873   -2.209827    1.025073
     32          1           0       -0.415324   -2.394576    1.892757
     33          1           0        0.063765   -0.702057    1.825397
     34          1           0       -3.756347   -1.901468   -1.651834
     35          1           0       -1.579625    0.845437    0.635839
     36          1           0       -3.041651    1.892063   -1.477781
     37          1           0       -4.405909    0.856571   -1.904417
     38          1           0       -4.965487    2.696633   -0.291318
     39          1           0       -5.380967    1.086242    0.309690
     40          1           0       -4.112742    2.748955    1.804763
     41          1           0       -3.605966    1.205492    1.797406
 ---------------------------------------------------------------------

 SCF Done:  E(UB3LYP) =  -674.959964408     A.U. after   31 cycles

 The electronic state is 2-A.
 Alpha  occ. eigenvalues --  -14.26256 -14.19985 -14.19324 -10.13071 -10.10528
 Alpha  occ. eigenvalues --  -10.10161 -10.08922 -10.08659 -10.08366 -10.08065
 Alpha  occ. eigenvalues --  -10.08058 -10.07816 -10.07573 -10.07564 -10.07527
 Alpha  occ. eigenvalues --  -10.07326  -0.91639  -0.79275  -0.76949  -0.73319
 Alpha  occ. eigenvalues --   -0.71097  -0.68542  -0.66328  -0.62943  -0.60327
 Alpha  occ. eigenvalues --   -0.57595  -0.54042  -0.52429  -0.51051  -0.49759
 Alpha  occ. eigenvalues --   -0.47479  -0.45046  -0.41895  -0.40443  -0.39630
 Alpha  occ. eigenvalues --   -0.38929  -0.37755  -0.36570  -0.35717  -0.34002
 Alpha  occ. eigenvalues --   -0.33777  -0.33222  -0.32621  -0.31716  -0.31279
 Alpha  occ. eigenvalues --   -0.30309  -0.29067  -0.28815  -0.28314  -0.27882
 Alpha  occ. eigenvalues --   -0.26711  -0.26126  -0.25360  -0.25207  -0.24783
 Alpha  occ. eigenvalues --   -0.22977  -0.22285  -0.22233  -0.18565  -0.17739
 Alpha  occ. eigenvalues --   -0.15861  -0.12355   0.03820
 Alpha virt. eigenvalues --    0.05143   0.06521   0.06910   0.07426   0.07475
 Alpha virt. eigenvalues --    0.08056   0.08635   0.09171   0.09701   0.09971
 Alpha virt. eigenvalues --    0.10260   0.10377   0.10842   0.11168   0.11952

  Beta  occ. eigenvalues --  -14.26239 -14.19926 -14.19322 -10.13071 -10.10530
  Beta  occ. eigenvalues --  -10.10128 -10.08910 -10.08649 -10.08357 -10.08055
  Beta  occ. eigenvalues --  -10.08053 -10.07807 -10.07569 -10.07553 -10.07514
  Beta  occ. eigenvalues --  -10.07299  -0.91626  -0.79198  -0.76919  -0.73302
  Beta  occ. eigenvalues --   -0.71077  -0.68512  -0.66294  -0.62910  -0.60289
  Beta  occ. eigenvalues --   -0.57558  -0.54001  -0.52356  -0.51021  -0.49729
  Beta  occ. eigenvalues --   -0.47447  -0.45011  -0.41866  -0.40389  -0.39608
  Beta  occ. eigenvalues --   -0.38903  -0.37684  -0.36546  -0.35688  -0.33975
  Beta  occ. eigenvalues --   -0.33745  -0.33199  -0.32604  -0.31687  -0.31253
  Beta  occ. eigenvalues --   -0.30288  -0.29035  -0.28780  -0.28280  -0.27844
  Beta  occ. eigenvalues --   -0.26690  -0.26087  -0.25337  -0.25185  -0.24766
  Beta  occ. eigenvalues --   -0.22962  -0.22263  -0.22211  -0.18544  -0.17733
  Beta  occ. eigenvalues --   -0.15798  -0.12335
  Beta virt. eigenvalues --    0.05608   0.06341   0.06815   0.07097   0.07768
  Beta virt. eigenvalues --    0.08023   0.08352   0.08864   0.09382   0.09869
  Beta virt. eigenvalues --    0.10236   0.10432   0.10628   0.11072   0.11286

 Mulliken charges and spin densities:
               1          2
     1  C    0.604743  -1.252129
     2  C   -0.638754   0.466497
     3  C    0.012889  -0.273142
     4  C    0.143640  -0.438173
     5  C   -0.081519  -0.244781
     6  C   -0.003994   0.008629
     7  C   -0.564756   0.178931
     8  C    0.299228  -0.841951
     9  C   -0.235487  -0.242667
    10  N   -0.036061   0.060294
    11  C   -0.158481   0.140795
    12  C    0.554988  -0.302871
    13  N   -0.130335   0.107431
    14  C   -1.273662   0.833169
    15  C    1.485428  -1.914820
    16  N   -0.454717   0.026812
    17  H   -0.068287   0.209995
    18  H   -0.136181   0.269940
    19  H   -0.080364   0.215349
    20  H    0.104394   0.022220
    21  H   -0.200935   0.354732
    22  H    0.076184   0.045522
    23  H   -0.158227   0.317470
    24  H    0.044393   0.102342
    25  H   -0.055260   0.224529
    26  H   -0.038498   0.147586
    27  H    0.030157   0.140697
    28  H    0.166688  -0.006146
    29  H    0.065795   0.115674
    30  H    0.171184  -0.001658
    31  H    0.094011   0.052328
    32  H    0.104410   0.082294
    33  H   -0.095886   0.259127
    34  H    0.005030   0.142139
    35  H    0.450202  -0.132709
    36  H   -0.005835   0.167008
    37  H   -0.024003   0.173712
    38  H   -0.465885   0.634888
    39  H   -0.113812   0.250367
    40  H   -0.366060   0.638662
    41  H   -0.026362   0.261910
 Sum of Mulliken charges =  -1.00000   1.00000

 Dipole moment (field-independent basis, Debye):
    X=              2.9660    Y=             -4.8004    Z=             -2.4139  Tot=              6.1374
 Quadrupole moment (field-independent basis, Debye-Ang):
   XX=           -219.8056   YY=           -156.8557   ZZ=           -135.7932
   XY=              7.0874   XZ=             11.6118   YZ=             -7.8005

 Summary of Natural Population Analysis:

                                       Natural Population
                Natural  -----------------------------------------------
    Atom  No    Charge         Core      Valence    Rydberg      Total
 -----------------------------------------------------------------------
      C    1   -0.28638      0.99967     2.28231    0.00441     3.28638
      C    2   -0.19347      0.99964     2.18531    0.00851     3.19347
      C    3   -0.19148      0.99963     2.18291    0.00894     3.19148
      C    4   -0.19407      0.99963     2.18571    0.00873     3.19407
      C    5   -0.19399      0.99963     2.18561    0.00876     3.19399
      C    6   -0.19457      0.99962     2.18777    0.00717     3.19457
      C    7   -0.18529      0.99962     2.17848    0.00718     3.18529
      C    8   -0.21183      0.99959     2.20319    0.00904     3.21183
      C    9    0.18647      0.99962     1.79465    0.01925     2.81353
      N   10   -0.26559      0.99969     2.75698    0.00892     3.76559
      C   11   -0.03426      0.99950     2.02237    0.01239     3.03426
      C   12    0.05087      0.99953     1.93562    0.01398     2.94913
      N   13   -0.27729      0.99962     2.76959    0.00808     3.77729
      C   14   -0.20749      0.99960     2.19863    0.00927     3.20749
      C   15   -0.08407      0.99964     2.07226    0.01218     3.08407
      N   16   -0.43307      0.99977     2.92201    0.01128     3.93307
      H   17    0.09742      0.00000     0.40149    0.00108     0.40258
      H   18    0.09828      0.00000     0.40073    0.00099     0.40172
      H   19    0.09575      0.00000     0.40300    0.00125     0.40425
      H   20    0.09331      0.00000     0.40556    0.00112     0.40669
      H   21    0.09511      0.00000     0.40389    0.00100     0.40489
      H   22    0.09464      0.00000     0.40426    0.00110     0.40536
      H   23    0.09593      0.00000     0.40310    0.00097     0.40407
      H   24    0.09597      0.00000     0.40288    0.00115     0.40403
      H   25    0.09875      0.00000     0.40019    0.00107     0.40125
      H   26    0.09592      0.00000     0.40256    0.00152     0.40408
      H   27    0.09762      0.00000     0.40133    0.00105     0.40238
      H   28    0.10229      0.00000     0.39661    0.00110     0.39771
      H   29    0.09562      0.00000     0.40329    0.00108     0.40438
      H   30    0.10276      0.00000     0.39614    0.00110     0.39724
      H   31    0.09402      0.00000     0.40488    0.00110     0.40598
      H   32    0.10912      0.00000     0.38984    0.00104     0.39088
      H   33    0.10205      0.00000     0.39664    0.00132     0.39795
      H   34    0.09432      0.00000     0.40464    0.00104     0.40568
      H   35    0.21320      0.00000     0.28341    0.00339     0.28680
      H   36    0.10372      0.00000     0.39485    0.00143     0.39628
      H   37    0.10565      0.00000     0.39333    0.00103     0.39435
      H   38    0.09268      0.00000     0.40539    0.00193     0.40732
      H   39    0.08058      0.00000     0.41765    0.00177     0.41942
      H   40    0.18453      0.00000     0.30911    0.00636     0.31547
      H   41    0.17627      0.00000     0.32093    0.00281     0.32373
 =======================================================================
   * Total *   -0.00000     15.99401    45.80910    0.19689    62.00000

 Normal termination of Gaussian 16 at Fri Dec 11 01:17:05 2020.
