 Gaussian 16, Revision A.03,

 -----------------------------------------------------------
 # opt freq B3LYP/6-31G(d) empiricaldispersion=gd3bj scf=xqc
 -----------------------------------------------------------

 --------------------------------
 CID_115966538_JID_10348_neutraal
 --------------------------------
 Symbolic Z-matrix:
 Charge =  0 Multiplicity = 1

 SCF Done:  E(RB3LYP) =  -897.732593798     A.U. after   16 cycles
 SCF Done:  E(RB3LYP) =  -897.740041213     A.U. after   13 cycles
 SCF Done:  E(RB3LYP) =  -897.738694221     A.U. after   13 cycles
 SCF Done:  E(RB3LYP) =  -897.741024458     A.U. after   12 cycles
 SCF Done:  E(RB3LYP) =  -897.740678871     A.U. after   13 cycles
 SCF Done:  E(RB3LYP) =  -897.741460258     A.U. after   12 cycles
 SCF Done:  E(RB3LYP) =  -897.741647132     A.U. after   12 cycles
 SCF Done:  E(RB3LYP) =  -897.741697382     A.U. after   12 cycles
 SCF Done:  E(RB3LYP) =  -897.742010230     A.U. after   12 cycles
 SCF Done:  E(RB3LYP) =  -897.742390307     A.U. after   12 cycles
 SCF Done:  E(RB3LYP) =  -897.745823798     A.U. after   11 cycles
 SCF Done:  E(RB3LYP) =  -897.745830895     A.U. after   11 cycles
 SCF Done:  E(RB3LYP) =  -897.745834601     A.U. after   10 cycles
 SCF Done:  E(RB3LYP) =  -897.745836477     A.U. after   10 cycles
 SCF Done:  E(RB3LYP) =  -897.745836611     A.U. after    8 cycles
 Optimization completed.
    -- Stationary point found.
 Normal termination of Gaussian 16 at Mon Dec 14 14:02:36 2020.

 --------------------------------------------------------------------
 #N Geom=AllCheck Guess=TCheck SCRF=Check GenChk RB3LYP/6-31G(d) Freq
 --------------------------------------------------------------------

 Structure from the checkpoint file:  "JID_10348.chk"
 --------------------------------
 CID_115966538_JID_10348_neutraal
 --------------------------------
 Charge =  0 Multiplicity = 1

 SCF Done:  E(RB3LYP) =  -897.745836611     A.U. after    1 cycles

  Exact polarizability: 200.117 -25.205 209.336 -15.711   5.816 132.139
 Approx polarizability: 267.432 -43.853 334.575 -38.730   8.686 217.671

                      1                      2                      3
                      A                      A                      A
 Frequencies --     23.4055                37.1522                51.9874
 Red. masses --      4.4268                 4.1628                 3.7887
 Frc consts  --      0.0014                 0.0034                 0.0060
 IR Inten    --      0.2058                 0.4051                 0.4483

                      4                      5                      6
                      A                      A                      A
 Frequencies --     56.1023                58.1679                73.9864
 Red. masses --      3.2975                 5.5817                 4.7993
 Frc consts  --      0.0061                 0.0111                 0.0155
 IR Inten    --      1.5707                 0.8773                 1.1684

                      7                      8                      9
                      A                      A                      A
 Frequencies --     80.3199                91.3765               116.4538
 Red. masses --      3.9285                 3.8264                 4.5976
 Frc consts  --      0.0149                 0.0188                 0.0367
 IR Inten    --      3.7066                 2.1765                 0.3885

                     10                     11                     12
                      A                      A                      A
 Frequencies --    153.2251               198.4034               217.1907
 Red. masses --      3.7350                 3.9983                 3.3888
 Frc consts  --      0.0517                 0.0927                 0.0942
 IR Inten    --      2.3791                 7.5474                 6.9356

                     13                     14                     15
                      A                      A                      A
 Frequencies --    228.4891               243.3612               252.2218
 Red. masses --      1.2560                 1.9355                 3.9672
 Frc consts  --      0.0386                 0.0675                 0.1487
 IR Inten    --      0.8885                19.3994                 3.0846

                     16                     17                     18
                      A                      A                      A
 Frequencies --    267.1619               279.7124               296.1566
 Red. masses --      2.6871                 2.6681                 2.1795
 Frc consts  --      0.1130                 0.1230                 0.1126
 IR Inten    --      1.1204                 2.6314                30.7698

                     19                     20                     21
                      A                      A                      A
 Frequencies --    313.5917               346.5165               357.0229
 Red. masses --      1.1073                 4.2486                 3.3338
 Frc consts  --      0.0642                 0.3006                 0.2504
 IR Inten    --    111.3872                 2.5269                 9.8745

                     22                     23                     24
                      A                      A                      A
 Frequencies --    363.4242               392.5232               422.3592
 Red. masses --      2.5740                 2.9567                 5.5829
 Frc consts  --      0.2003                 0.2684                 0.5868
 IR Inten    --      6.9524                21.5305                 5.0243

                     25                     26                     27
                      A                      A                      A
 Frequencies --    457.6278               468.4183               508.7084
 Red. masses --      3.1974                 3.2127                 3.8542
 Frc consts  --      0.3945                 0.4153                 0.5876
 IR Inten    --      8.4988                15.5740                 2.5282

                     28                     29                     30
                      A                      A                      A
 Frequencies --    530.6806               547.5372               583.7725
 Red. masses --      6.9315                 6.8055                 6.1482
 Frc consts  --      1.1501                 1.2021                 1.2345
 IR Inten    --      4.1285                 5.4763                 2.8543

                     31                     32                     33
                      A                      A                      A
 Frequencies --    622.5646               668.1645               689.1306
 Red. masses --      4.9691                 3.3054                 3.7516
 Frc consts  --      1.1347                 0.8694                 1.0497
 IR Inten    --      0.7809                18.1356                16.6789

                     34                     35                     36
                      A                      A                      A
 Frequencies --    740.2419               757.0239               786.9463
 Red. masses --      6.4948                 5.9976                 4.1787
 Frc consts  --      2.0968                 2.0251                 1.5247
 IR Inten    --     11.8330                 6.0045                 1.3218

                     37                     38                     39
                      A                      A                      A
 Frequencies --    795.0157               829.4206               859.8037
 Red. masses --      4.5124                 2.2848                 1.4214
 Frc consts  --      1.6804                 0.9261                 0.6191
 IR Inten    --      3.7642                 1.8394                16.9012

                     40                     41                     42
                      A                      A                      A
 Frequencies --    880.6803               894.2800               921.3094
 Red. masses --      1.2915                 1.9034                 2.7022
 Frc consts  --      0.5902                 0.8969                 1.3514
 IR Inten    --     92.5020                24.8176                 5.2752

                     43                     44                     45
                      A                      A                      A
 Frequencies --    935.4478               948.1191               951.4220
 Red. masses --      2.1714                 1.7478                 2.0645
 Frc consts  --      1.1195                 0.9257                 1.1011
 IR Inten    --      2.7998                 4.3594                 7.0938

                     46                     47                     48
                      A                      A                      A
 Frequencies --    954.8233               983.9417               985.4713
 Red. masses --      3.9611                 1.7588                 1.5321
 Frc consts  --      2.1277                 1.0033                 0.8766
 IR Inten    --      1.7680                 0.2264                 0.4918

                     49                     50                     51
                      A                      A                      A
 Frequencies --   1006.9474              1018.0382              1038.6713
 Red. masses --      1.5472                 2.3647                 1.6365
 Frc consts  --      0.9243                 1.4440                 1.0402
 IR Inten    --      2.3746                31.4235                24.1786

                     52                     53                     54
                      A                      A                      A
 Frequencies --   1073.2264              1076.8754              1099.9221
 Red. masses --      2.2256                 2.4261                 1.5488
 Frc consts  --      1.5103                 1.6576                 1.1040
 IR Inten    --     16.5752                 9.7831                60.3718

                     55                     56                     57
                      A                      A                      A
 Frequencies --   1101.8532              1130.3742              1167.0447
 Red. masses --      1.8990                 2.1473                 2.7592
 Frc consts  --      1.3584                 1.6165                 2.2141
 IR Inten    --      3.6822                20.0191                17.7553

                     58                     59                     60
                      A                      A                      A
 Frequencies --   1173.2417              1196.9854              1208.4622
 Red. masses --      2.0406                 1.1734                 1.6009
 Frc consts  --      1.6550                 0.9905                 1.3775
 IR Inten    --     21.6835                 2.3237                 9.2903

                     61                     62                     63
                      A                      A                      A
 Frequencies --   1222.7795              1231.2812              1241.0103
 Red. masses --      1.3901                 2.9633                 1.7159
 Frc consts  --      1.2246                 2.6469                 1.5570
 IR Inten    --      6.1925                 7.4412                19.3403

                     64                     65                     66
                      A                      A                      A
 Frequencies --   1254.6374              1279.7918              1292.3670
 Red. masses --      1.4346                 2.8788                 1.5268
 Frc consts  --      1.3305                 2.7781                 1.5024
 IR Inten    --      7.8488                 3.8185                14.8190

                     67                     68                     69
                      A                      A                      A
 Frequencies --   1300.7144              1318.9646              1324.9850
 Red. masses --      3.8577                 1.1775                 1.4676
 Frc consts  --      3.8454                 1.2070                 1.5180
 IR Inten    --      0.2544                 7.0077                 0.7661

                     70                     71                     72
                      A                      A                      A
 Frequencies --   1333.7968              1347.5998              1356.1615
 Red. masses --      1.8668                 1.3723                 1.3722
 Frc consts  --      1.9567                 1.4683                 1.4869
 IR Inten    --      3.8469                19.4153                 0.2789

                     73                     74                     75
                      A                      A                      A
 Frequencies --   1391.3518              1395.8661              1420.9467
 Red. masses --      1.4429                 1.4117                 1.4675
 Frc consts  --      1.6457                 1.6207                 1.7457
 IR Inten    --      5.0553                 0.2697                 5.9350

                     76                     77                     78
                      A                      A                      A
 Frequencies --   1432.5850              1436.3139              1441.4852
 Red. masses --      1.2173                 1.4520                 1.2514
 Frc consts  --      1.4719                 1.7648                 1.5320
 IR Inten    --     31.2655                34.9189                44.0543

                     79                     80                     81
                      A                      A                      A
 Frequencies --   1444.0258              1471.6485              1521.6455
 Red. masses --      2.3184                 4.9302                 1.0615
 Frc consts  --      2.8483                 6.2911                 1.4481
 IR Inten    --     70.7749               311.0137                 0.4585

                     82                     83                     84
                      A                      A                      A
 Frequencies --   1524.3668              1525.2647              1528.9914
 Red. masses --      1.0807                 1.0587                 2.3989
 Frc consts  --      1.4796                 1.4512                 3.3042
 IR Inten    --      1.1751                 7.8723                10.9448

                     85                     86                     87
                      A                      A                      A
 Frequencies --   1537.7700              1541.9186              1554.7732
 Red. masses --      1.1266                 1.0818                 1.1044
 Frc consts  --      1.5696                 1.5154                 1.5730
 IR Inten    --      9.1825                 4.1094                 2.5776

                     88                     89                     90
                      A                      A                      A
 Frequencies --   1592.4682              1641.2530              1688.5966
 Red. masses --      6.3553                 6.1044                 1.0856
 Frc consts  --      9.4957                 9.6882                 1.8238
 IR Inten    --      9.4791                 9.1953                30.0910

                     91                     92                     93
                      A                      A                      A
 Frequencies --   1741.5283              2354.6562              2967.6733
 Red. masses --     11.8874                11.9189                 1.0727
 Frc consts  --     21.2421                38.9350                 5.5664
 IR Inten    --    320.4737                 1.5796                76.9693

                     94                     95                     96
                      A                      A                      A
 Frequencies --   3023.1906              3034.6094              3040.0918
 Red. masses --      1.0744                 1.0810                 1.0467
 Frc consts  --      5.7855                 5.8654                 5.6994
 IR Inten    --     45.1016                 8.6151                18.3884

                     97                     98                     99
                      A                      A                      A
 Frequencies --   3059.2093              3060.8001              3067.4566
 Red. masses --      1.0866                 1.0720                 1.0808
 Frc consts  --      5.9917                 5.9171                 5.9917
 IR Inten    --      9.3838                30.0232                33.1264

                    100                    101                    102
                      A                      A                      A
 Frequencies --   3074.0887              3113.0188              3128.3074
 Red. masses --      1.0664                 1.0954                 1.1014
 Frc consts  --      5.9374                 6.2543                 6.3505
 IR Inten    --     31.9460                28.2899                31.7127

                    103                    104                    105
                      A                      A                      A
 Frequencies --   3138.3285              3140.3546              3154.1767
 Red. masses --      1.0955                 1.1020                 1.0908
 Frc consts  --      6.3573                 6.4028                 6.3936
 IR Inten    --      2.2742                28.7661                 9.6793

                    106                    107                    108
                      A                      A                      A
 Frequencies --   3179.6475              3182.7436              3218.9151
 Red. masses --      1.0882                 1.0923                 1.0938
 Frc consts  --      6.4821                 6.5194                 6.6775
 IR Inten    --     27.7234                14.4488                 9.9119

                    109                    110                    111
                      A                      A                      A
 Frequencies --   3462.0375              3551.7605              3715.7550
 Red. masses --      1.0496                 1.0929                 1.0657
 Frc consts  --      7.4120                 8.1233                 8.6695
 IR Inten    --      3.0481                 0.6844                 8.8743

 - Thermochemistry -
 -------------------
 Temperature   298.150 Kelvin.  Pressure   1.00000 Atm.
 Atom     1 has atomic number  6 and mass  12.00000

 Molecular mass:   273.14773 amu.
 Principal axes and moments of inertia in atomic units:
                           1         2         3
     Eigenvalues --  4022.427167822.77566**********
           X            0.99996   0.00260   0.00842
           Y           -0.00267   0.99996   0.00833
           Z           -0.00840  -0.00835   0.99993
 This molecule is an asymmetric top.
 Rotational symmetry number  1.
 Warning -- assumption of classical behavior for rotation
           may cause significant error
 Rotational temperatures (Kelvin)      0.02153     0.01107     0.00852
 Rotational constants (GHZ):           0.44867     0.23070     0.17745
 Zero-point vibrational energy     858417.6 (Joules/Mol)
                                  205.16673 (Kcal/Mol)
 Warning -- explicit consideration of  30 degrees of freedom as
           vibrations may cause significant error
 Vibrational temperatures:     33.68    53.45    74.80    80.72    83.69
          (Kelvin)            106.45   115.56   131.47   167.55   220.46
                              285.46   312.49   328.74   350.14   362.89
                              384.39   402.44   426.10   451.19   498.56
                              513.68   522.89   564.75   607.68   658.42
                              673.95   731.92   763.53   787.78   839.92
                              895.73   961.34   991.51  1065.04  1089.19
                             1132.24  1143.85  1193.35  1237.07  1267.10
                             1286.67  1325.56  1345.90  1364.13  1368.88
                             1373.78  1415.67  1417.87  1448.77  1464.73
                             1494.42  1544.13  1549.38  1582.54  1585.32
                             1626.36  1679.12  1688.03  1722.20  1738.71
                             1759.31  1771.54  1785.54  1805.14  1841.33
                             1859.43  1871.44  1897.70  1906.36  1919.04
                             1938.90  1951.21  2001.84  2008.34  2044.43
                             2061.17  2066.54  2073.98  2077.63  2117.37
                             2189.31  2193.22  2194.52  2199.88  2212.51
                             2218.48  2236.97  2291.21  2361.40  2429.51
                             2505.67  3387.83  4269.82  4349.70  4366.13
                             4374.01  4401.52  4403.81  4413.39  4422.93
                             4478.94  4500.94  4515.35  4518.27  4538.16
                             4574.80  4579.26  4631.30  4981.10  5110.19
                             5346.14

 Zero-point correction=                           0.326954 (Hartree/Particle)
 Thermal correction to Energy=                    0.346782
 Thermal correction to Enthalpy=                  0.347726
 Thermal correction to Gibbs Free Energy=         0.276914
 Sum of electronic and zero-point Energies=           -897.418883
 Sum of electronic and thermal Energies=              -897.399055
 Sum of electronic and thermal Enthalpies=            -897.398111
 Sum of electronic and thermal Free Energies=         -897.468923

                     E (Thermal)             CV                S
                      KCal/Mol        Cal/Mol-Kelvin    Cal/Mol-Kelvin
 Total                  217.609             73.555            149.037
 Electronic               0.000              0.000              0.000
 Translational            0.889              2.981             42.713
 Rotational               0.889              2.981             34.125
 Vibrational            215.831             67.594             72.199
 Vibration     1          0.593              1.985              6.322
 Vibration     2          0.594              1.982              5.405
 Vibration     3          0.596              1.977              4.740
 Vibration     4          0.596              1.975              4.590
 Vibration     5          0.596              1.974              4.518
 Vibration     6          0.599              1.966              4.044
 Vibration     7          0.600              1.963              3.883
 Vibration     8          0.602              1.955              3.630
 Vibration     9          0.608              1.936              3.158
 Vibration    10          0.619              1.899              2.632
 Vibration    11          0.637              1.842              2.148
 Vibration    12          0.646              1.815              1.982
 Vibration    13          0.651              1.798              1.891
 Vibration    14          0.659              1.774              1.778
 Vibration    15          0.664              1.759              1.715
 Vibration    16          0.672              1.733              1.614
 Vibration    17          0.680              1.711              1.535
 Vibration    18          0.690              1.681              1.439
 Vibration    19          0.701              1.648              1.343
 Vibration    20          0.725              1.582              1.182
 Vibration    21          0.732              1.561              1.135
 Vibration    22          0.737              1.548              1.107
 Vibration    23          0.760              1.486              0.991
 Vibration    24          0.785              1.422              0.884
 Vibration    25          0.816              1.344              0.773
 Vibration    26          0.826              1.320              0.742
 Vibration    27          0.864              1.231              0.637
 Vibration    28          0.886              1.182              0.586
 Vibration    29          0.903              1.145              0.549
 Vibration    30          0.941              1.066              0.478

                           ! Non-Optimized Parameters !
 Normal termination of Gaussian 16 at Mon Dec 14 14:23:21 2020.

 ----------------------------------------------------------------------
 # B3LYP/6-311++G(d,p) empiricaldispersion=gd3bj scf=xqc pop=npa geom=c
 heck
 ----------------------------------------------------------------------

 ----------------------------------------
 CID_115966538_JID_10348_Energie_neutraal
 ----------------------------------------
 Structure from the checkpoint file:  "JID_10348.chk"
 Charge =  0 Multiplicity = 1

 SCF Done:  E(RB3LYP) =  -898.007473979     A.U. after   16 cycles
 Normal termination of Gaussian 16 at Mon Dec 14 14:32:03 2020.

 ----------------------------------------------------------------------
 # B3LYP/6-311++G(d,p) empiricaldispersion=gd3bj scf=xqc pop=npa geom=c
 heck
 ----------------------------------------------------------------------

 --------------------------------------
 CID_115966538_JID_10348_Energie_kation
 --------------------------------------
 Structure from the checkpoint file:  "JID_10348.chk"
 Charge =  1 Multiplicity = 2

 SCF Done:  E(UB3LYP) =  -897.703098238     A.U. after   33 cycles
 SCF Done:  E(UB3LYP) =  -897.703098238     a.u. after    1 cycles
 Normal termination of Gaussian 16 at Mon Dec 14 14:56:57 2020.
 Gaussian 16:  ES64L-G16RevA.03 25-Dec-2016

 ----------------------------------------------------------------------
 # B3LYP/6-311++G(d,p) empiricaldispersion=gd3bj scf=xqc pop=npa geom=c
 heck
 ----------------------------------------------------------------------

 -------------------------------------
 CID_115966538_JID_10348_Energie_anion
 -------------------------------------
 Structure from the checkpoint file:  "JID_10348.chk"
 Charge = -1 Multiplicity = 2

                         Standard orientation:
 ---------------------------------------------------------------------
 Center     Atomic      Atomic             Coordinates (Angstroms)
 Number     Number       Type             X           Y           Z
 ---------------------------------------------------------------------
      1          6           0       -4.660376   -0.566938   -1.450552
      2          6           0       -3.612043   -0.985393   -0.420054
      3          6           0       -2.779165    0.198119    0.111075
      4          6           0       -1.882771    0.859206   -0.956958
      5          6           0       -0.632038   -0.026047   -0.983508
      6          7           0       -0.515762   -0.456226    0.413891
      7          6           0       -1.760390   -0.257865    1.170083
      8          6           0        0.560495   -0.999964    1.027808
      9          8           0        0.532593   -1.413887    2.185812
     10          6           0        1.846079   -1.087062    0.241955
     11          6           0        2.586721    0.060860   -0.111161
     12          6           0        3.828750   -0.130121   -0.745624
     13          7           0        4.345414   -1.322990   -1.036896
     14          6           0        3.632761   -2.402173   -0.682707
     15          6           0        2.399888   -2.334523   -0.037481
     16          6           0        2.097118    1.371926    0.157099
     17          6           0        1.620138    2.459112    0.397692
     18          6           0        1.019276    3.768018    0.645946
     19          7           0       -0.151059    3.981742   -0.226739
     20          8           0       -4.232620   -1.694787    0.655629
     21          1           0       -5.335516    0.188859   -1.026178
     22          1           0       -5.258992   -1.434727   -1.742463
     23          1           0       -4.209515   -0.140500   -2.352033
     24          1           0       -2.937975   -1.725117   -0.868608
     25          1           0       -3.476851    0.929272    0.541920
     26          1           0       -1.596726    1.865563   -0.631259
     27          1           0       -2.352967    0.938468   -1.940810
     28          1           0       -0.758366   -0.894230   -1.645564
     29          1           0        0.250478    0.525413   -1.306716
     30          1           0       -1.597653    0.505634    1.940124
     31          1           0       -2.061929   -1.180059    1.670326
     32          1           0        4.420333    0.739895   -1.023042
     33          1           0        4.074274   -3.366951   -0.923853
     34          1           0        1.875092   -3.238288    0.254426
     35          1           0        0.668846    3.810850    1.685268
     36          1           0        1.798969    4.543702    0.548288
     37          1           0       -0.544128    4.901867   -0.030725
     38          1           0        0.158778    4.000486   -1.197315
     39          1           0       -4.852756   -1.081368    1.083213
 ---------------------------------------------------------------------

 SCF Done:  E(UB3LYP) =  -898.018166328     A.U. after   31 cycles

 The electronic state is 2-A.
 Alpha  occ. eigenvalues --  -19.04715 -18.96927 -14.23000 -14.19465 -14.18148
 Alpha  occ. eigenvalues --  -10.15278 -10.14451 -10.11062 -10.10322 -10.09887
 Alpha  occ. eigenvalues --  -10.09197 -10.09097 -10.08504 -10.07511 -10.06982
 Alpha  occ. eigenvalues --  -10.06892 -10.06351 -10.05977 -10.04477 -10.04196
 Alpha  occ. eigenvalues --   -0.94966  -0.92207  -0.83763  -0.81818  -0.78531
 Alpha  occ. eigenvalues --   -0.71989  -0.69897  -0.66319  -0.65777  -0.64117
 Alpha  occ. eigenvalues --   -0.62946  -0.57253  -0.56367  -0.54606  -0.51624
 Alpha  occ. eigenvalues --   -0.51155  -0.49206  -0.45216  -0.43016  -0.41900
 Alpha  occ. eigenvalues --   -0.40683  -0.39164  -0.38124  -0.37846  -0.36739
 Alpha  occ. eigenvalues --   -0.35831  -0.35358  -0.34396  -0.33908  -0.33237
 Alpha  occ. eigenvalues --   -0.32621  -0.31471  -0.31290  -0.30812  -0.29722
 Alpha  occ. eigenvalues --   -0.29277  -0.28401  -0.28074  -0.27576  -0.26215
 Alpha  occ. eigenvalues --   -0.25917  -0.25225  -0.24110  -0.23286  -0.20191
 Alpha  occ. eigenvalues --   -0.19872  -0.16991  -0.16209  -0.14918  -0.14052
 Alpha  occ. eigenvalues --   -0.13425  -0.12755  -0.12065   0.03256
 Alpha virt. eigenvalues --    0.05280   0.06181   0.07023   0.08239   0.08586
 Alpha virt. eigenvalues --    0.08974   0.09218   0.09338   0.09661   0.10679
 Alpha virt. eigenvalues --    0.10841   0.11474   0.11838   0.12033   0.12614

  Beta  occ. eigenvalues --  -19.04711 -18.96875 -14.22984 -14.19370 -14.18067
  Beta  occ. eigenvalues --  -10.15272 -10.14451 -10.11065 -10.10321 -10.09885
  Beta  occ. eigenvalues --  -10.09194 -10.09089 -10.08508 -10.07503 -10.06725
  Beta  occ. eigenvalues --  -10.06698 -10.06102 -10.06046 -10.04443 -10.04067
  Beta  occ. eigenvalues --   -0.94958  -0.92112  -0.83715  -0.81544  -0.78345
  Beta  occ. eigenvalues --   -0.71915  -0.69522  -0.66245  -0.65541  -0.64100
  Beta  occ. eigenvalues --   -0.62647  -0.57045  -0.56318  -0.54563  -0.51222
  Beta  occ. eigenvalues --   -0.51079  -0.49159  -0.45157  -0.42904  -0.41856
  Beta  occ. eigenvalues --   -0.40524  -0.39109  -0.37971  -0.37757  -0.36603
  Beta  occ. eigenvalues --   -0.35718  -0.35324  -0.34329  -0.33863  -0.33081
  Beta  occ. eigenvalues --   -0.32512  -0.31401  -0.31240  -0.30784  -0.29571
  Beta  occ. eigenvalues --   -0.29151  -0.28123  -0.27799  -0.27441  -0.26061
  Beta  occ. eigenvalues --   -0.25825  -0.25198  -0.23969  -0.23272  -0.19985
  Beta  occ. eigenvalues --   -0.19054  -0.16402  -0.16087  -0.14786  -0.13816
  Beta  occ. eigenvalues --   -0.13264  -0.12623  -0.11008
  Beta virt. eigenvalues --    0.05244   0.06601   0.06951   0.08186   0.08271
  Beta virt. eigenvalues --    0.08647   0.09136   0.09297   0.09431   0.09957
  Beta virt. eigenvalues --    0.10633   0.10821   0.11512   0.11932   0.11996

 Mulliken charges and spin densities:
               1          2
     1  C   -0.237179  -0.244986
     2  C   -0.523391   0.098768
     3  C    0.683506  -0.107350
     4  C   -0.938821  -0.003946
     5  C   -0.119988  -0.043461
     6  N    0.241982   0.007582
     7  C   -0.622412   0.062741
     8  C   -0.699359  -0.009549
     9  O   -0.310469   0.017049
    10  C    0.527836   0.206151
    11  C   -0.143405   0.135101
    12  C   -0.099056  -0.010356
    13  N   -0.081115   0.026493
    14  C   -0.545207   0.205984
    15  C    0.193031  -0.073068
    16  C    0.069489   0.003809
    17  C   -0.082876   0.293728
    18  C   -0.003903  -0.641410
    19  N   -0.288601  -0.098401
    20  O   -0.203595  -0.003594
    21  H    0.056624   0.076844
    22  H    0.115806   0.034948
    23  H    0.123552   0.017274
    24  H    0.189490   0.018802
    25  H    0.022871   0.181339
    26  H    0.567842  -0.287130
    27  H   -0.051460   0.178281
    28  H    0.180377  -0.015250
    29  H    0.090108  -0.008673
    30  H    0.192178   0.005260
    31  H    0.209862   0.007282
    32  H    0.139505   0.009807
    33  H    0.131411  -0.017924
    34  H    0.170957   0.007962
    35  H    0.029027   0.138492
    36  H    0.016478   0.140108
    37  H   -0.226810   0.475026
    38  H    0.001290   0.205057
    39  H    0.224425   0.011210
 Sum of Mulliken charges =  -1.00000   1.00000

 Dipole moment (field-independent basis, Debye):
    X=             -6.8889    Y=             -1.5361    Z=             -2.1190  Tot=              7.3693
 Quadrupole moment (field-independent basis, Debye-Ang):
   XX=           -173.1940   YY=           -172.2751   ZZ=           -142.5017
   XY=              7.6023   XZ=              3.3335   YZ=              6.3906

 Summary of Natural Population Analysis:

                                       Natural Population
                Natural  -----------------------------------------------
    Atom  No    Charge         Core      Valence    Rydberg      Total
 -----------------------------------------------------------------------
      C    1   -0.29702      0.99965     2.29249    0.00488     3.29702
      C    2    0.06144      0.99955     1.92623    0.01278     2.93856
      C    3   -0.12752      0.99958     2.11448    0.01346     3.12752
      C    4   -0.20414      0.99961     2.19562    0.00890     3.20414
      C    5   -0.08220      0.99963     2.07351    0.00906     3.08220
      N    6   -0.24937      0.99963     2.74056    0.00918     3.74937
      C    7   -0.08253      0.99961     2.07298    0.00993     3.08253
      C    8    0.34425      0.99958     1.63391    0.02226     2.65575
      O    9   -0.31892      0.99988     3.31388    0.00516     4.31892
      C   10    0.02236      0.99944     1.96543    0.01277     2.97764
      C   11   -0.07181      0.99945     2.05832    0.01404     3.07181
      C   12    0.04310      0.99956     1.94310    0.01424     2.95690
      N   13   -0.23350      0.99972     2.72182    0.01197     3.73350
      C   14    0.07105      0.99960     1.91494    0.01441     2.92895
      C   15   -0.13273      0.99952     2.12558    0.00763     3.13273
      C   16    0.02148      0.99927     1.96962    0.00963     2.97852
      C   17    0.00064      0.99931     1.98879    0.01126     2.99936
      C   18   -0.12553      0.99958     2.11324    0.01271     3.12553
      N   19   -0.41444      0.99978     2.90328    0.01139     3.91444
      O   20   -0.36883      0.99990     3.36261    0.00632     4.36883
      H   21    0.09436      0.00000     0.40449    0.00116     0.40564
      H   22    0.10213      0.00000     0.39691    0.00097     0.39787
      H   23    0.10257      0.00000     0.39660    0.00083     0.39743
      H   24    0.08750      0.00000     0.41086    0.00164     0.41250
      H   25    0.09823      0.00000     0.40078    0.00099     0.40177
      H   26    0.12287      0.00000     0.37517    0.00196     0.37713
      H   27    0.09696      0.00000     0.40213    0.00091     0.40304
      H   28    0.08577      0.00000     0.41311    0.00112     0.41423
      H   29    0.11421      0.00000     0.38460    0.00119     0.38579
      H   30    0.09928      0.00000     0.39953    0.00119     0.40072
      H   31    0.11044      0.00000     0.38836    0.00120     0.38956
      H   32    0.08606      0.00000     0.41262    0.00133     0.41394
      H   33    0.07897      0.00000     0.41982    0.00121     0.42103
      H   34    0.10220      0.00000     0.39674    0.00106     0.39780
      H   35    0.10203      0.00000     0.39648    0.00149     0.39797
      H   36    0.09045      0.00000     0.40787    0.00168     0.40955
      H   37    0.17593      0.00000     0.31810    0.00597     0.32407
      H   38    0.17349      0.00000     0.32454    0.00197     0.32651
      H   39    0.22227      0.00000     0.27516    0.00257     0.27773
 =======================================================================
   * Total *    0.00149     19.99186    52.75423    0.25242    72.99851

 Normal termination of Gaussian 16 at Mon Dec 14 15:19:28 2020.
