 Gaussian 16, Revision A.03,

 -----------------------------------------------------------
 # opt freq B3LYP/6-31G(d) empiricaldispersion=gd3bj scf=xqc
 -----------------------------------------------------------

 ----------------------------
 CID_62142441_JID_28_neutraal
 ----------------------------
 Symbolic Z-matrix:
 Charge =  0 Multiplicity = 1

 SCF Done:  E(RB3LYP) =  -497.041101134     A.U. after   14 cycles
 SCF Done:  E(RB3LYP) =  -497.040275660     A.U. after   14 cycles
 SCF Done:  E(RB3LYP) =  -497.044568461     A.U. after   12 cycles
 SCF Done:  E(RB3LYP) =  -497.045192707     A.U. after   13 cycles
 SCF Done:  E(RB3LYP) =  -497.046962035     A.U. after   12 cycles
 SCF Done:  E(RB3LYP) =  -497.046469761     A.U. after   13 cycles
 SCF Done:  E(RB3LYP) =  -497.047745409     A.U. after   12 cycles
 SCF Done:  E(RB3LYP) =  -497.047412733     A.U. after   11 cycles
 SCF Done:  E(RB3LYP) =  -497.047955275     A.U. after   11 cycles
 SCF Done:  E(RB3LYP) =  -497.048054516     A.U. after   10 cycles
 SCF Done:  E(RB3LYP) =  -497.048102519     A.U. after    9 cycles
 SCF Done:  E(RB3LYP) =  -497.048119238     A.U. after   10 cycles
 SCF Done:  E(RB3LYP) =  -497.048121594     A.U. after    8 cycles
 SCF Done:  E(RB3LYP) =  -497.048122122     A.U. after    7 cycles
 SCF Done:  E(RB3LYP) =  -497.048122256     A.U. after    7 cycles
 SCF Done:  E(RB3LYP) =  -497.048122291     A.U. after    7 cycles
 Optimization completed.
    -- Stationary point found.
 Normal termination of Gaussian 16 at Tue Dec  8 10:17:36 2020.

 --------------------------------------------------------------------
 #N Geom=AllCheck Guess=TCheck SCRF=Check GenChk RB3LYP/6-31G(d) Freq
 --------------------------------------------------------------------

 Structure from the checkpoint file:  "JID_28.chk"
 ----------------------------
 CID_62142441_JID_28_neutraal
 ----------------------------
 Charge =  0 Multiplicity = 1

 SCF Done:  E(RB3LYP) =  -497.048122291     A.U. after    1 cycles

  Exact polarizability:  91.740   0.747  84.015  -1.547  -0.985  73.330
 Approx polarizability: 115.253   1.464 107.353  -7.667  -5.427 117.427

                      1                      2                      3
                      A                      A                      A
 Frequencies --     35.0550                50.1619               118.4829
 Red. masses --      3.9664                 3.3061                 1.4786
 Frc consts  --      0.0029                 0.0049                 0.0122
 IR Inten    --      0.7717                 0.8804                 0.1809

                      4                      5                      6
                      A                      A                      A
 Frequencies --    145.1976               153.1633               180.9305
 Red. masses --      1.9823                 3.8105                 3.1764
 Frc consts  --      0.0246                 0.0527                 0.0613
 IR Inten    --      0.1870                 7.4405                 2.6922

                      7                      8                      9
                      A                      A                      A
 Frequencies --    196.0732               234.3501               255.2715
 Red. masses --      3.2072                 1.2685                 2.1207
 Frc consts  --      0.0726                 0.0410                 0.0814
 IR Inten    --      0.3533                 3.9863                 2.7056

                     10                     11                     12
                      A                      A                      A
 Frequencies --    275.9620               300.7272               329.6038
 Red. masses --      1.8497                 2.7924                 1.3998
 Frc consts  --      0.0830                 0.1488                 0.0896
 IR Inten    --     14.3457                15.5036                48.0346

                     13                     14                     15
                      A                      A                      A
 Frequencies --    348.3532               446.6356               465.6741
 Red. masses --      3.9977                 2.1471                 3.4467
 Frc consts  --      0.2858                 0.2524                 0.4404
 IR Inten    --     25.4201                 4.1698                 1.1286

                     16                     17                     18
                      A                      A                      A
 Frequencies --    554.2883               671.7043               752.1224
 Red. masses --      2.5436                 2.5050                 2.8074
 Frc consts  --      0.4604                 0.6659                 0.9357
 IR Inten    --      9.1234                28.3718                45.5267

                     19                     20                     21
                      A                      A                      A
 Frequencies --    769.3136               827.9018               862.9717
 Red. masses --      3.4586                 1.5212                 3.1189
 Frc consts  --      1.2060                 0.6143                 1.3685
 IR Inten    --     49.1277                 5.5823                11.4646

                     22                     23                     24
                      A                      A                      A
 Frequencies --    893.0530               932.6851               942.7182
 Red. masses --      2.5516                 1.3402                 1.5942
 Frc consts  --      1.1990                 0.6869                 0.8348
 IR Inten    --     11.1353               151.4042                23.8371

                     25                     26                     27
                      A                      A                      A
 Frequencies --   1014.6690              1064.9861              1070.4892
 Red. masses --      5.1527                 1.7837                 2.4088
 Frc consts  --      3.1256                 1.1919                 1.6264
 IR Inten    --     16.2284                16.3297                17.8025

                     28                     29                     30
                      A                      A                      A
 Frequencies --   1105.4704              1113.3064              1163.7280
 Red. masses --      1.5653                 2.2053                 2.6844
 Frc consts  --      1.1270                 1.6104                 2.1419
 IR Inten    --     31.8738                 5.8353                42.3389

                     31                     32                     33
                      A                      A                      A
 Frequencies --   1184.9057              1192.0503              1211.7597
 Red. masses --      1.2786                 2.0808                 1.6638
 Frc consts  --      1.0577                 1.7421                 1.4394
 IR Inten    --      1.7006                33.2706                40.8416

                     34                     35                     36
                      A                      A                      A
 Frequencies --   1216.5810              1236.7318              1305.1187
 Red. masses --      1.5078                 2.2279                 1.4572
 Frc consts  --      1.3149                 2.0076                 1.4624
 IR Inten    --      9.1942               244.9969                11.5162

                     37                     38                     39
                      A                      A                      A
 Frequencies --   1343.7275              1365.1821              1398.7273
 Red. masses --      1.5065                 1.2934                 1.2285
 Frc consts  --      1.6027                 1.4202                 1.4160
 IR Inten    --     33.6265                21.9953                 7.1423

                     40                     41                     42
                      A                      A                      A
 Frequencies --   1411.2765              1427.9850              1440.5803
 Red. masses --      1.2841                 1.2575                 1.4183
 Frc consts  --      1.5068                 1.5108                 1.7342
 IR Inten    --     10.1655                 8.9112                10.5649

                     43                     44                     45
                      A                      A                      A
 Frequencies --   1491.2535              1497.2790              1510.8397
 Red. masses --      1.2152                 1.0929                 1.1342
 Frc consts  --      1.5922                 1.4435                 1.5254
 IR Inten    --      6.6516                 4.0534                13.2092

                     46                     47                     48
                      A                      A                      A
 Frequencies --   1513.1057              1521.4356              1523.3667
 Red. masses --      1.0488                 1.0580                 1.0476
 Frc consts  --      1.4148                 1.4429                 1.4324
 IR Inten    --      5.0875                11.6972                10.2616

                     49                     50                     51
                      A                      A                      A
 Frequencies --   1530.3222              1538.0726              1713.1529
 Red. masses --      1.0863                 1.1522                 1.0936
 Frc consts  --      1.4988                 1.6059                 1.8911
 IR Inten    --      1.0649                13.7111                36.0306

                     52                     53                     54
                      A                      A                      A
 Frequencies --   1801.5150              2935.2007              3041.9732
 Red. masses --      9.8015                 1.0732                 1.0641
 Frc consts  --     18.7420                 5.4474                 5.8017
 IR Inten    --    171.5241                93.9182                30.4985

                     55                     56                     57
                      A                      A                      A
 Frequencies --   3058.1589              3066.8359              3077.4559
 Red. masses --      1.0353                 1.0866                 1.0298
 Frc consts  --      5.7047                 6.0214                 5.7465
 IR Inten    --     19.9568                61.9183                27.2994

                     58                     59                     60
                      A                      A                      A
 Frequencies --   3084.2251              3099.0408              3128.5966
 Red. masses --      1.0845                 1.1023                 1.1023
 Frc consts  --      6.0780                 6.2371                 6.3570
 IR Inten    --     10.3907                41.9488                27.5778

                     61                     62                     63
                      A                      A                      A
 Frequencies --   3151.7445              3152.9194              3186.2706
 Red. masses --      1.1031                 1.1075                 1.1073
 Frc consts  --      6.4560                 6.4867                 6.6232
 IR Inten    --     14.4859                21.1593                16.8233

                     64                     65                     66
                      A                      A                      A
 Frequencies --   3472.4669              3505.3034              3554.8595
 Red. masses --      1.0502                 1.0731                 1.0919
 Frc consts  --      7.4613                 7.7687                 8.1297
 IR Inten    --     17.0893                 1.6057                 9.4571

 - Thermochemistry -
 -------------------
 Temperature   298.150 Kelvin.  Pressure   1.00000 Atm.
 Atom     1 has atomic number  6 and mass  12.00000

 Molecular mass:   146.10553 amu.
 Principal axes and moments of inertia in atomic units:
                           1         2         3
     Eigenvalues --  1123.229251759.472962398.52512
           X            0.99993   0.00838   0.00864
           Y           -0.00851   0.99985   0.01503
           Z           -0.00851  -0.01510   0.99985
 This molecule is an asymmetric top.
 Rotational symmetry number  1.
 Warning -- assumption of classical behavior for rotation
           may cause significant error
 Rotational temperatures (Kelvin)      0.07711     0.04923     0.03611
 Rotational constants (GHZ):           1.60674     1.02573     0.75244
 Zero-point vibrational energy     557250.9 (Joules/Mol)
                                  133.18615 (Kcal/Mol)
 Warning -- explicit consideration of  16 degrees of freedom as
           vibrations may cause significant error
 Vibrational temperatures:     50.44    72.17   170.47   208.91   220.37
          (Kelvin)            260.32   282.11   337.18   367.28   397.05
                              432.68   474.23   501.20   642.61   670.00
                              797.50   966.43  1082.14  1106.87  1191.17
                             1241.62  1284.90  1341.93  1356.36  1459.88
                             1532.28  1540.20  1590.53  1601.80  1674.35
                             1704.82  1715.09  1743.45  1750.39  1779.38
                             1877.77  1933.32  1964.19  2012.46  2030.51
                             2054.55  2072.67  2145.58  2154.25  2173.76
                             2177.02  2189.01  2191.78  2201.79  2212.94
                             2464.84  2591.98  4223.10  4376.72  4400.01
                             4412.49  4427.77  4437.51  4458.83  4501.35
                             4534.66  4536.35  4584.33  4996.11  5043.35
                             5114.65

 Zero-point correction=                           0.212246 (Hartree/Particle)
 Thermal correction to Energy=                    0.224161
 Thermal correction to Enthalpy=                  0.225106
 Thermal correction to Gibbs Free Energy=         0.174017
 Sum of electronic and zero-point Energies=           -496.835877
 Sum of electronic and thermal Energies=              -496.823961
 Sum of electronic and thermal Enthalpies=            -496.823017
 Sum of electronic and thermal Free Energies=         -496.874105

                     E (Thermal)             CV                S
                      KCal/Mol        Cal/Mol-Kelvin    Cal/Mol-Kelvin
 Total                  140.663             42.385            107.525
 Electronic               0.000              0.000              0.000
 Translational            0.889              2.981             40.848
 Rotational               0.889              2.981             29.940
 Vibrational            138.886             36.423             36.737
 Vibration     1          0.594              1.982              5.521
 Vibration     2          0.595              1.978              4.811
 Vibration     3          0.609              1.934              3.125
 Vibration     4          0.617              1.908              2.734
 Vibration     5          0.619              1.899              2.633
 Vibration     6          0.630              1.866              2.319
 Vibration     7          0.636              1.845              2.170
 Vibration     8          0.654              1.788              1.845
 Vibration     9          0.666              1.754              1.694
 Vibration    10          0.678              1.718              1.559
 Vibration    11          0.693              1.672              1.413
 Vibration    12          0.712              1.616              1.262
 Vibration    13          0.726              1.579              1.174
 Vibration    14          0.806              1.368              0.806
 Vibration    15          0.823              1.326              0.750
 Vibration    16          0.910              1.130              0.535

 Optimization completed.
    -- Stationary point found.
 Normal termination of Gaussian 16 at Tue Dec  8 10:21:46 2020.

 ----------------------------------------------------------------------
 # B3LYP/6-311++G(d,p) empiricaldispersion=gd3bj scf=xqc pop=npa geom=c
 heck
 ----------------------------------------------------------------------

 ------------------------------------
 CID_62142441_JID_28_Energie_neutraal
 ------------------------------------
 Structure from the checkpoint file:  "JID_28.chk"
 Charge =  0 Multiplicity = 1

 SCF Done:  E(RB3LYP) =  -497.208073129     A.U. after   14 cycles
 Normal termination of Gaussian 16 at Tue Dec  8 10:23:17 2020.

 ----------------------------------------------------------------------
 # B3LYP/6-311++G(d,p) empiricaldispersion=gd3bj scf=xqc pop=npa geom=c
 heck
 ----------------------------------------------------------------------

 ----------------------------------
 CID_62142441_JID_28_Energie_kation
 ----------------------------------
 Structure from the checkpoint file:  "JID_28.chk"
 Charge =  1 Multiplicity = 2

 SCF Done:  E(UB3LYP) =  -496.904675547     A.U. after   20 cycles
 Normal termination of Gaussian 16 at Tue Dec  8 10:26:11 2020.
 Gaussian 16:  ES64L-G16RevA.03 25-Dec-2016

 ----------------------------------------------------------------------
 # B3LYP/6-311++G(d,p) empiricaldispersion=gd3bj scf=xqc pop=npa geom=c
 heck
 ----------------------------------------------------------------------

 ---------------------------------
 CID_62142441_JID_28_Energie_anion
 ---------------------------------
 Structure from the checkpoint file:  "JID_28.chk"
 Charge = -1 Multiplicity = 2

                         Standard orientation:
 ---------------------------------------------------------------------
 Center     Atomic      Atomic             Coordinates (Angstroms)
 Number     Number       Type             X           Y           Z
 ---------------------------------------------------------------------
      1          6           0        0.992434    2.420102    0.364129
      2          6           0        0.222746    1.243303   -0.260739
      3          6           0        0.931972   -0.044514    0.163844
      4          8           0        0.695022   -0.658323    1.187507
      5          8           0        1.904237   -0.395020   -0.699513
      6          6           0        2.669328   -1.556128   -0.331562
      7          7           0       -1.175909    1.306261    0.122823
      8          6           0       -2.112841    0.524528   -0.685584
      9          6           0       -1.991863   -1.004833   -0.620461
     10          7           0       -2.191587   -1.473544    0.751781
     11          1           0        0.951607    2.358554    1.457354
     12          1           0        0.527131    3.358434    0.052482
     13          1           0        2.043343    2.414591    0.056563
     14          1           0        0.284012    1.317006   -1.351588
     15          1           0        3.162886   -1.399442    0.630854
     16          1           0        2.019348   -2.431925   -0.259572
     17          1           0        3.404197   -1.686416   -1.125850
     18          1           0       -1.275875    1.062040    1.106554
     19          1           0       -3.121074    0.796636   -0.354699
     20          1           0       -2.006577    0.853530   -1.727966
     21          1           0       -2.781910   -1.430158   -1.252205
     22          1           0       -1.031295   -1.322130   -1.070310
     23          1           0       -2.331763   -2.481692    0.753772
     24          1           0       -1.336285   -1.306044    1.280669
 ---------------------------------------------------------------------

 SCF Done:  E(UB3LYP) =  -497.192711094     A.U. after   29 cycles

 The electronic state is 2-A.
 Alpha  occ. eigenvalues --  -19.06959 -19.01574 -14.20101 -14.18216 -10.19910
 Alpha  occ. eigenvalues --  -10.11541 -10.11377 -10.08942 -10.08466 -10.06988
 Alpha  occ. eigenvalues --   -1.00963  -0.92295  -0.81749  -0.76989  -0.67691
 Alpha  occ. eigenvalues --   -0.62504  -0.59884  -0.53959  -0.49389  -0.46426
 Alpha  occ. eigenvalues --   -0.42996  -0.39982  -0.38694  -0.37491  -0.36989
 Alpha  occ. eigenvalues --   -0.36153  -0.33556  -0.32772  -0.30943  -0.29505
 Alpha  occ. eigenvalues --   -0.28430  -0.27679  -0.26831  -0.26014  -0.25599
 Alpha  occ. eigenvalues --   -0.24390  -0.21019  -0.18673  -0.14534  -0.12744
 Alpha  occ. eigenvalues --    0.04716
 Alpha virt. eigenvalues --    0.07150   0.07410   0.08415   0.09372   0.09766
 Alpha virt. eigenvalues --    0.10182   0.10446   0.10817   0.11336   0.12300
 Alpha virt. eigenvalues --    0.12799   0.13782   0.14481   0.15157   0.15350

  Beta  occ. eigenvalues --  -19.06949 -19.01558 -14.20098 -14.18195 -10.19902
  Beta  occ. eigenvalues --  -10.11533 -10.11310 -10.08931 -10.08442 -10.06961
  Beta  occ. eigenvalues --   -1.00939  -0.92268  -0.81735  -0.76952  -0.67656
  Beta  occ. eigenvalues --   -0.62431  -0.59834  -0.53893  -0.49332  -0.46369
  Beta  occ. eigenvalues --   -0.42969  -0.39941  -0.38656  -0.37443  -0.36947
  Beta  occ. eigenvalues --   -0.36119  -0.33503  -0.32731  -0.30894  -0.29472
  Beta  occ. eigenvalues --   -0.28388  -0.27637  -0.26792  -0.25981  -0.25550
  Beta  occ. eigenvalues --   -0.24365  -0.20976  -0.18654  -0.14512  -0.12727
  Beta virt. eigenvalues --    0.07085   0.07958   0.08380   0.08969   0.09610
  Beta virt. eigenvalues --    0.10078   0.10686   0.11247   0.11410   0.11630
  Beta virt. eigenvalues --    0.13005   0.13175   0.14215   0.14634   0.15205

 Mulliken charges and spin densities:
               1          2
     1  C    0.909769  -1.264537
     2  C   -0.529720  -0.083573
     3  C   -0.378130   0.168902
     4  O   -0.281815   0.046791
     5  O   -0.132733   0.146516
     6  C    1.622911  -1.825135
     7  N    0.031904   0.015527
     8  C   -0.082107  -0.179130
     9  C    0.641636  -0.956173
    10  N   -0.429076   0.034483
    11  H   -0.045704   0.194457
    12  H   -0.033421   0.209075
    13  H   -0.123094   0.262751
    14  H   -0.143166   0.357019
    15  H   -0.493706   0.668047
    16  H   -0.463406   0.636311
    17  H   -0.845648   1.006173
    18  H    0.271804  -0.025036
    19  H    0.072443   0.090255
    20  H   -0.085031   0.212758
    21  H   -0.517068   0.696620
    22  H   -0.140198   0.284531
    23  H   -0.023195   0.256809
    24  H    0.196752   0.046556
 Sum of Mulliken charges =  -1.00000   1.00000

 Dipole moment (field-independent basis, Debye):
    X=             -3.4213    Y=              4.0701    Z=              1.8930  Tot=              5.6440
 Quadrupole moment (field-independent basis, Debye-Ang):
   XX=           -124.5349   YY=           -107.3640   ZZ=            -94.4551
   XY=              4.3187   XZ=              3.4794   YZ=             -2.1039

 Summary of Natural Population Analysis:

                                       Natural Population
                Natural  -----------------------------------------------
    Atom  No    Charge         Core      Valence    Rydberg      Total
 -----------------------------------------------------------------------
      C    1   -0.28167      0.99964     2.27506    0.00696     3.28167
      C    2   -0.05392      0.99955     2.04075    0.01362     3.05392
      C    3    0.40746      0.99965     1.56539    0.02749     2.59254
      O    4   -0.32112      0.99986     3.31477    0.00649     4.32112
      O    5   -0.27509      0.99986     3.26519    0.01003     4.27509
      C    6   -0.10399      0.99959     2.09512    0.00929     3.10399
      N    7   -0.34100      0.99974     2.82939    0.01186     3.84100
      C    8   -0.08802      0.99962     2.07577    0.01264     3.08802
      C    9   -0.10162      0.99964     2.09072    0.01126     3.10162
      N   10   -0.43527      0.99977     2.92426    0.01124     3.93527
      H   11    0.09901      0.00000     0.39998    0.00102     0.40099
      H   12    0.10422      0.00000     0.39442    0.00136     0.39578
      H   13    0.10414      0.00000     0.39471    0.00114     0.39586
      H   14    0.10573      0.00000     0.39238    0.00190     0.39427
      H   15    0.09238      0.00000     0.40525    0.00236     0.40762
      H   16    0.09387      0.00000     0.40368    0.00246     0.40613
      H   17    0.09623      0.00000     0.40009    0.00368     0.40377
      H   18    0.17858      0.00000     0.31853    0.00289     0.32142
      H   19    0.09405      0.00000     0.40476    0.00119     0.40595
      H   20    0.09089      0.00000     0.40788    0.00123     0.40911
      H   21    0.09250      0.00000     0.40587    0.00162     0.40750
      H   22    0.08013      0.00000     0.41780    0.00207     0.41987
      H   23    0.17611      0.00000     0.32213    0.00176     0.32389
      H   24    0.18640      0.00000     0.31131    0.00228     0.31360
 =======================================================================
   * Total *   -0.00000      9.99693    29.85521    0.14785    40.00000

 Normal termination of Gaussian 16 at Tue Dec  8 10:30:10 2020.
