 Gaussian 16, Revision A.03,

 -----------------------------------------------------------
 # opt freq B3LYP/6-31G(d) empiricaldispersion=gd3bj scf=xqc
 -----------------------------------------------------------

 -------------------------------
 CID_145930782_JID_8672_neutraal
 -------------------------------
 Symbolic Z-matrix:
 Charge =  0 Multiplicity = 1

 SCF Done:  E(RB3LYP) =  -1189.01907031     A.U. after   16 cycles
 SCF Done:  E(RB3LYP) =  -1189.02306624     A.U. after   12 cycles
 SCF Done:  E(RB3LYP) =  -1189.02404366     A.U. after   12 cycles
 SCF Done:  E(RB3LYP) =  -1189.02427264     A.U. after   12 cycles
 SCF Done:  E(RB3LYP) =  -1189.02443197     A.U. after   11 cycles
 SCF Done:  E(RB3LYP) =  -1189.02452588     A.U. after   11 cycles
 SCF Done:  E(RB3LYP) =  -1189.02464347     A.U. after   12 cycles
 SCF Done:  E(RB3LYP) =  -1189.02470846     A.U. after   12 cycles
 SCF Done:  E(RB3LYP) =  -1189.02472887     A.U. after   12 cycles
 SCF Done:  E(RB3LYP) =  -1189.02474922     A.U. after   10 cycles
 SCF Done:  E(RB3LYP) =  -1189.02527664     A.U. after   10 cycles
 SCF Done:  E(RB3LYP) =  -1189.02527874     A.U. after   10 cycles
 SCF Done:  E(RB3LYP) =  -1189.02527889     A.U. after    8 cycles
 SCF Done:  E(RB3LYP) =  -1189.02527887     A.U. after    8 cycles
 Optimization completed.
    -- Stationary point found.
 Normal termination of Gaussian 16 at Fri Dec 11 21:33:43 2020.

 --------------------------------------------------------------------
 #N Geom=AllCheck Guess=TCheck SCRF=Check GenChk RB3LYP/6-31G(d) Freq
 --------------------------------------------------------------------

 Structure from the checkpoint file:  "JID_8672.chk"
 -------------------------------
 CID_145930782_JID_8672_neutraal
 -------------------------------
 Charge =  0 Multiplicity = 1

 SCF Done:  E(RB3LYP) =  -1189.02527887     A.U. after    1 cycles

  Exact polarizability: 213.527  14.080 150.312  17.957 -19.589  97.482
 Approx polarizability: 295.985  25.611 279.900  31.449 -49.903 163.264

                      1                      2                      3
                      A                      A                      A
 Frequencies --     22.9160                24.1035                48.5329
 Red. masses --      6.9387                 7.0665                 5.9931
 Frc consts  --      0.0021                 0.0024                 0.0083
 IR Inten    --      0.5286                 2.4589                 0.6248

                      4                      5                      6
                      A                      A                      A
 Frequencies --     64.5835                91.5303               110.7377
 Red. masses --      5.8101                 6.7532                 8.7245
 Frc consts  --      0.0143                 0.0333                 0.0630
 IR Inten    --      5.4637                 1.8784                 0.3331

                      7                      8                      9
                      A                      A                      A
 Frequencies --    138.6832               167.1444               242.4332
 Red. masses --      5.4723                 5.9704                 6.6235
 Frc consts  --      0.0620                 0.0983                 0.2294
 IR Inten    --      1.7498                 5.5965                 0.9281

                     10                     11                     12
                      A                      A                      A
 Frequencies --    270.4826               274.2449               318.9422
 Red. masses --      3.5515                 7.3561                 5.4858
 Frc consts  --      0.1531                 0.3260                 0.3288
 IR Inten    --      0.4854                 0.7311                 2.1182

                     13                     14                     15
                      A                      A                      A
 Frequencies --    345.4357               361.1478               428.6120
 Red. masses --      5.6702                 3.0940                 3.4382
 Frc consts  --      0.3986                 0.2378                 0.3721
 IR Inten    --      6.5842                 0.9402                 0.3117

                     16                     17                     18
                      A                      A                      A
 Frequencies --    483.7844               493.0079               511.6964
 Red. masses --      1.7190                 3.7978                 2.9632
 Frc consts  --      0.2370                 0.5439                 0.4571
 IR Inten    --     45.5915                 1.2678                10.2578

                     19                     20                     21
                      A                      A                      A
 Frequencies --    548.7846               573.0402               591.5514
 Red. masses --      9.5650                 5.2603                 3.0740
 Frc consts  --      1.6972                 1.0177                 0.6338
 IR Inten    --     14.7552                13.0421                40.9699

                     22                     23                     24
                      A                      A                      A
 Frequencies --    627.5787               655.1967               661.4255
 Red. masses --      4.4355                 2.0419                 2.8458
 Frc consts  --      1.0293                 0.5165                 0.7335
 IR Inten    --     13.1142                23.3283                25.7288

                     25                     26                     27
                      A                      A                      A
 Frequencies --    684.6050               697.1079               721.0923
 Red. masses --      5.7883                 1.6818                 2.6889
 Frc consts  --      1.5984                 0.4815                 0.8238
 IR Inten    --      1.4055                82.4396                35.3149

                     28                     29                     30
                      A                      A                      A
 Frequencies --    722.8425               743.6914               752.3637
 Red. masses --      2.6338                 1.6612                 3.2697
 Frc consts  --      0.8108                 0.5413                 1.0905
 IR Inten    --      1.5192                92.6764                10.9392

                     31                     32                     33
                      A                      A                      A
 Frequencies --    783.0549               801.5402               849.6187
 Red. masses --      6.6410                 4.3937                 1.2471
 Frc consts  --      2.3992                 1.6632                 0.5304
 IR Inten    --      6.9827                 3.1776                 0.3634

                     34                     35                     36
                      A                      A                      A
 Frequencies --    865.4140               883.7022               898.5187
 Red. masses --      4.6739                 1.9886                 1.3439
 Frc consts  --      2.0624                 0.9150                 0.6392
 IR Inten    --     13.6564                39.9412                 9.7176

                     37                     38                     39
                      A                      A                      A
 Frequencies --    955.6535               982.5139              1001.6225
 Red. masses --      2.6464                 5.8233                 7.5223
 Frc consts  --      1.4240                 3.3120                 4.4464
 IR Inten    --     11.8987                11.3779                15.6614

                     40                     41                     42
                      A                      A                      A
 Frequencies --   1029.3528              1049.0208              1095.1416
 Red. masses --      2.4170                 2.5843                 1.6023
 Frc consts  --      1.5089                 1.6756                 1.1322
 IR Inten    --     34.2484                15.6406                 4.4698

                     43                     44                     45
                      A                      A                      A
 Frequencies --   1114.6368              1144.6733              1169.8864
 Red. masses --      1.8214                 2.2357                 2.3242
 Frc consts  --      1.3333                 1.7260                 1.8742
 IR Inten    --      2.8336                15.1907                23.8873

                     46                     47                     48
                      A                      A                      A
 Frequencies --   1173.6512              1202.8327              1209.6528
 Red. masses --      2.4216                 2.6037                 2.0748
 Frc consts  --      1.9653                 2.2195                 1.7887
 IR Inten    --      5.4744                20.3963                12.7643

                     49                     50                     51
                      A                      A                      A
 Frequencies --   1261.9177              1277.2530              1294.1695
 Red. masses --      1.7017                 2.7340                 1.6039
 Frc consts  --      1.5966                 2.6278                 1.5828
 IR Inten    --     30.0120                36.1606                55.9468

                     52                     53                     54
                      A                      A                      A
 Frequencies --   1308.1337              1342.9655              1357.1782
 Red. masses --      3.8594                 2.3446                 2.3245
 Frc consts  --      3.8911                 2.4914                 2.5226
 IR Inten    --     60.9384                46.4526                 1.6223

                     55                     56                     57
                      A                      A                      A
 Frequencies --   1377.1490              1398.3994              1421.0414
 Red. masses --      2.0282                 2.0242                 2.1772
 Frc consts  --      2.2663                 2.3322                 2.5904
 IR Inten    --     85.1778                45.0883                18.9740

                     58                     59                     60
                      A                      A                      A
 Frequencies --   1429.3812              1467.8823              1490.3705
 Red. masses --      2.3415                 4.5905                 2.1358
 Frc consts  --      2.8187                 5.8276                 2.7951
 IR Inten    --      3.0747                10.2974                15.3628

                     61                     62                     63
                      A                      A                      A
 Frequencies --   1495.1920              1508.6496              1515.2404
 Red. masses --      1.5315                 1.2250                 1.6641
 Frc consts  --      2.0173                 1.6427                 2.2511
 IR Inten    --     30.7297                30.6245                40.9922

                     64                     65                     66
                      A                      A                      A
 Frequencies --   1527.1560              1568.3815              1579.6617
 Red. masses --      2.5923                 6.2385                 3.9204
 Frc consts  --      3.5620                 9.0414                 5.7638
 IR Inten    --     17.9623               311.2912                 4.5508

                     67                     68                     69
                      A                      A                      A
 Frequencies --   1623.0128              1741.1950              3070.3251
 Red. masses --      6.0731                 7.1977                 1.0607
 Frc consts  --      9.4255                12.8569                 5.8913
 IR Inten    --     18.5650               262.6526                11.2101

                     70                     71                     72
                      A                      A                      A
 Frequencies --   3088.7752              3117.9429              3175.3590
 Red. masses --      1.0706                 1.1013                 1.0980
 Frc consts  --      6.0180                 6.3081                 6.5226
 IR Inten    --     30.3028                25.9214                 3.1061

                     73                     74                     75
                      A                      A                      A
 Frequencies --   3273.0005              3277.6431              3295.8327
 Red. masses --      1.0902                 1.0989                 1.1018
 Frc consts  --      6.8811                 6.9553                 7.0517
 IR Inten    --      5.7644                 0.4525                 2.1899

                     76                     77                     78
                      A                      A                      A
 Frequencies --   3324.5490              3582.1497              3670.9448
 Red. masses --      1.0985                 1.0752                 1.0823
 Frc consts  --      7.1531                 8.1290                 8.5930
 IR Inten    --      4.7642                26.7151               107.6356

 - Thermochemistry -
 -------------------
 Temperature   298.150 Kelvin.  Pressure   1.00000 Atm.
 Atom     1 has atomic number  6 and mass  12.00000

 Molecular mass:   262.06368 amu.
 Principal axes and moments of inertia in atomic units:
                           1         2         3
     Eigenvalues --  2050.107749882.49385**********
           X            0.99995  -0.00640   0.00725
           Y            0.00661   0.99955  -0.02931
           Z           -0.00706   0.02936   0.99954
 This molecule is an asymmetric top.
 Rotational symmetry number  1.
 Warning -- assumption of classical behavior for rotation
           may cause significant error
 Rotational temperatures (Kelvin)      0.04225     0.00876     0.00810
 Rotational constants (GHZ):           0.88032     0.18262     0.16886
 Zero-point vibrational energy     552965.7 (Joules/Mol)
                                  132.16196 (Kcal/Mol)
 Warning -- explicit consideration of  21 degrees of freedom as
           vibrations may cause significant error
 Vibrational temperatures:     32.97    34.68    69.83    92.92   131.69
          (Kelvin)            159.33   199.53   240.48   348.81   389.16
                              394.58   458.89   497.00   519.61   616.68
                              696.06   709.33   736.22   789.58   824.48
                              851.11   902.95   942.68   951.64   984.99
                             1002.98  1037.49  1040.01  1070.01  1082.48
                             1126.64  1153.24  1222.41  1245.14  1271.45
                             1292.77  1374.97  1413.62  1441.11  1481.01
                             1509.31  1575.66  1603.71  1646.93  1683.21
                             1688.62  1730.61  1740.42  1815.62  1837.68
                             1862.02  1882.11  1932.23  1952.68  1981.41
                             2011.98  2044.56  2056.56  2111.96  2144.31
                             2151.25  2170.61  2180.09  2197.24  2256.55
                             2272.78  2335.15  2505.19  4417.51  4444.06
                             4486.02  4568.63  4709.12  4715.80  4741.97
                             4783.28  5153.91  5281.67

 Zero-point correction=                           0.210613 (Hartree/Particle)
 Thermal correction to Energy=                    0.225527
 Thermal correction to Enthalpy=                  0.226471
 Thermal correction to Gibbs Free Energy=         0.165522
 Sum of electronic and zero-point Energies=          -1188.814665
 Sum of electronic and thermal Energies=             -1188.799752
 Sum of electronic and thermal Enthalpies=           -1188.798808
 Sum of electronic and thermal Free Energies=        -1188.859757

                     E (Thermal)             CV                S
                      KCal/Mol        Cal/Mol-Kelvin    Cal/Mol-Kelvin
 Total                  141.520             56.509            128.279
 Electronic               0.000              0.000              0.000
 Translational            0.889              2.981             42.590
 Rotational               0.889              2.981             33.737
 Vibrational            139.743             50.547             51.952
 Vibration     1          0.593              1.985              6.364
 Vibration     2          0.593              1.985              6.264
 Vibration     3          0.595              1.978              4.876
 Vibration     4          0.597              1.971              4.312
 Vibration     5          0.602              1.955              3.627
 Vibration     6          0.607              1.941              3.256
 Vibration     7          0.614              1.915              2.822
 Vibration     8          0.624              1.883              2.467
 Vibration     9          0.659              1.775              1.785
 Vibration    10          0.674              1.728              1.593
 Vibration    11          0.677              1.721              1.569
 Vibration    12          0.705              1.637              1.316
 Vibration    13          0.724              1.585              1.187
 Vibration    14          0.735              1.552              1.117
 Vibration    15          0.790              1.408              0.863
 Vibration    16          0.840              1.286              0.700
 Vibration    17          0.849              1.266              0.676
 Vibration    18          0.867              1.224              0.630
 Vibration    19          0.904              1.142              0.547
 Vibration    20          0.929              1.090              0.498
 Vibration    21          0.949              1.050              0.464

                           ! Non-Optimized Parameters !
 Normal termination of Gaussian 16 at Fri Dec 11 21:42:58 2020.

 ----------------------------------------------------------------------
 # B3LYP/6-311++G(d,p) empiricaldispersion=gd3bj scf=xqc pop=npa geom=c
 heck
 ----------------------------------------------------------------------

 ---------------------------------------
 CID_145930782_JID_8672_Energie_neutraal
 ---------------------------------------
 Structure from the checkpoint file:  "JID_8672.chk"
 Charge =  0 Multiplicity = 1

 SCF Done:  E(RB3LYP) =  -1189.26786941     A.U. after   17 cycles
 Normal termination of Gaussian 16 at Fri Dec 11 21:47:01 2020.

 ----------------------------------------------------------------------
 # B3LYP/6-311++G(d,p) empiricaldispersion=gd3bj scf=xqc pop=npa geom=c
 heck
 ----------------------------------------------------------------------

 -------------------------------------
 CID_145930782_JID_8672_Energie_kation
 -------------------------------------
 Structure from the checkpoint file:  "JID_8672.chk"
 Charge =  1 Multiplicity = 2

 SCF Done:  E(UB3LYP) =  -1188.96478757     A.U. after   33 cycles
 SCF Done:  E(UB3LYP) =  -1188.96478757     a.u. after    1 cycles
 Normal termination of Gaussian 16 at Fri Dec 11 21:57:34 2020.
 Gaussian 16:  ES64L-G16RevA.03 25-Dec-2016

 ----------------------------------------------------------------------
 # B3LYP/6-311++G(d,p) empiricaldispersion=gd3bj scf=xqc pop=npa geom=c
 heck
 ----------------------------------------------------------------------

 ------------------------------------
 CID_145930782_JID_8672_Energie_anion
 ------------------------------------
 Structure from the checkpoint file:  "JID_8672.chk"
 Charge = -1 Multiplicity = 2

                         Standard orientation:
 ---------------------------------------------------------------------
 Center     Atomic      Atomic             Coordinates (Angstroms)
 Number     Number       Type             X           Y           Z
 ---------------------------------------------------------------------
      1          6           0       -4.166309    0.686771   -1.073703
      2          6           0       -4.785595   -0.494296   -0.863381
      3         16           0       -3.821269   -1.628787    0.085654
      4          6           0       -2.544477   -0.432644    0.185053
      5          7           0       -1.353124   -0.360977    0.722469
      6          6           0       -0.905838    0.912631    0.387897
      7          6           0       -1.846848    1.597879   -0.358534
      8          7           0       -2.905858    0.726697   -0.486696
      9          6           0        0.397303    1.521083    0.750347
     10          8           0        0.642500    2.673878    0.385098
     11          7           0        1.298684    0.820092    1.506896
     12          6           0        1.426768   -0.629120    1.653848
     13          6           0        1.817807   -1.338532    0.341462
     14          6           0        3.078616   -0.804392   -0.263080
     15          7           0        4.210335   -1.522225   -0.290333
     16          7           0        5.082281   -0.697850   -0.868890
     17          7           0        4.628458    0.500247   -1.226200
     18          6           0        3.347566    0.456458   -0.846735
     19          1           0       -4.539937    1.541591   -1.619169
     20          1           0       -5.767595   -0.780691   -1.209794
     21          1           0       -1.832704    2.590521   -0.776462
     22          1           0        2.157442    1.349718    1.604044
     23          1           0        2.197137   -0.797602    2.412339
     24          1           0        0.485386   -1.038619    2.016749
     25          1           0        1.945096   -2.408078    0.538738
     26          1           0        0.984104   -1.234817   -0.361667
     27          1           0        6.037915   -0.973846   -1.039354
     28          1           0        2.694068    1.304472   -0.996441
 ---------------------------------------------------------------------

 SCF Done:  E(UB3LYP) =  -1189.26428642     A.U. after   33 cycles
 SCF Done:  E(UB3LYP) =  -1189.26516891     a.u. after    5 cycles

 The electronic state is 2-A.
 Alpha  occ. eigenvalues --  -88.77321 -18.95216 -14.31716 -14.27438 -14.25176
 Alpha  occ. eigenvalues --  -14.25012 -14.21056 -14.18991 -10.14170 -10.13663
 Alpha  occ. eigenvalues --  -10.10643 -10.10433 -10.09963 -10.09590 -10.08719
 Alpha  occ. eigenvalues --  -10.07536 -10.07477 -10.07224  -7.85918  -5.82258
 Alpha  occ. eigenvalues --   -5.81912  -5.81403  -1.00614  -0.92765  -0.90509
 Alpha  occ. eigenvalues --   -0.80557  -0.79796  -0.79434  -0.73315  -0.72843
 Alpha  occ. eigenvalues --   -0.65525  -0.63228  -0.62047  -0.56261  -0.53719
 Alpha  occ. eigenvalues --   -0.53164  -0.50215  -0.48721  -0.45457  -0.44726
 Alpha  occ. eigenvalues --   -0.43957  -0.39868  -0.38533  -0.37892  -0.37193
 Alpha  occ. eigenvalues --   -0.35725  -0.34877  -0.34198  -0.32963  -0.32517
 Alpha  occ. eigenvalues --   -0.31904  -0.30157  -0.29934  -0.27483  -0.27035
 Alpha  occ. eigenvalues --   -0.26154  -0.25847  -0.23043  -0.22904  -0.21294
 Alpha  occ. eigenvalues --   -0.20445  -0.19532  -0.17637  -0.16663  -0.14121
 Alpha  occ. eigenvalues --   -0.13094  -0.12653  -0.11127   0.04582
 Alpha virt. eigenvalues --    0.05742   0.07102   0.08293   0.08554   0.08944
 Alpha virt. eigenvalues --    0.09395   0.09995   0.10898   0.11324   0.11765
 Alpha virt. eigenvalues --    0.12394   0.12532   0.12886   0.13157   0.13507

  Beta  occ. eigenvalues --  -88.77302 -18.95083 -14.31666 -14.27480 -14.25158
  Beta  occ. eigenvalues --  -14.25010 -14.21010 -14.19025 -10.14138 -10.13499
  Beta  occ. eigenvalues --  -10.10644 -10.10287 -10.09961 -10.09587 -10.08388
  Beta  occ. eigenvalues --  -10.07531 -10.07216 -10.07147  -7.85901  -5.82253
  Beta  occ. eigenvalues --   -5.81909  -5.81330  -1.00576  -0.92676  -0.90251
  Beta  occ. eigenvalues --   -0.80436  -0.79733  -0.79348  -0.73250  -0.72590
  Beta  occ. eigenvalues --   -0.65469  -0.62930  -0.61663  -0.56145  -0.53455
  Beta  occ. eigenvalues --   -0.52964  -0.49951  -0.48670  -0.45311  -0.44648
  Beta  occ. eigenvalues --   -0.43824  -0.39638  -0.38472  -0.37762  -0.37028
  Beta  occ. eigenvalues --   -0.35362  -0.34823  -0.34116  -0.32849  -0.32362
  Beta  occ. eigenvalues --   -0.31723  -0.30062  -0.29812  -0.27137  -0.26651
  Beta  occ. eigenvalues --   -0.25972  -0.25711  -0.22886  -0.22216  -0.20845
  Beta  occ. eigenvalues --   -0.20418  -0.19472  -0.17634  -0.16608  -0.13738
  Beta  occ. eigenvalues --   -0.12835  -0.11675  -0.10071
  Beta virt. eigenvalues --    0.07071   0.07433   0.08348   0.08572   0.08898
  Beta virt. eigenvalues --    0.09162   0.09760   0.10559   0.10849   0.11540
  Beta virt. eigenvalues --    0.11837   0.12412   0.12478   0.12926   0.13172

 Mulliken charges and spin densities:
               1          2
     1  C   -0.165381   0.060332
     2  C   -0.471772   0.270863
     3  S   -0.286634   0.025625
     4  C   -0.299845  -0.000325
     5  N    0.050793  -0.021523
     6  C    0.362760   0.029565
     7  C   -0.066316   0.197298
     8  N    0.233072  -0.014573
     9  C   -0.310834   0.126135
    10  O   -0.416475   0.051586
    11  N   -0.174522   0.014679
    12  C   -0.305583   0.036830
    13  C    0.085308  -0.112771
    14  C   -0.300851  -0.214837
    15  N   -0.055333  -0.032915
    16  N    0.194728  -0.133701
    17  N   -0.020854  -0.101495
    18  C   -0.379008   0.091705
    19  H    0.117815  -0.009512
    20  H    0.205815  -0.015386
    21  H    0.174863  -0.019199
    22  H    0.287279  -0.001850
    23  H    0.146703   0.000922
    24  H    0.226740   0.011489
    25  H    0.171404  -0.006289
    26  H    0.169847  -0.001911
    27  H   -0.381150   0.726567
    28  H    0.207433   0.042693
 Sum of Mulliken charges =  -1.00000   1.00000

 Dipole moment (field-independent basis, Debye):
    X=             -6.4143    Y=             -1.5788    Z=              0.6712  Tot=              6.6397
 Quadrupole moment (field-independent basis, Debye-Ang):
   XX=           -196.6469   YY=           -140.4611   ZZ=           -124.9589
   XY=              0.3829   XZ=             16.2691   YZ=             -3.7081

 Summary of Natural Population Analysis:

                                       Natural Population
                Natural  -----------------------------------------------
    Atom  No    Charge         Core      Valence    Rydberg      Total
 -----------------------------------------------------------------------
      C    1   -0.00219      0.99952     1.99182    0.01084     3.00219
      C    2   -0.14071      0.99953     2.13103    0.01015     3.14071
      S    3    0.16895      4.99948     2.80934    0.02223     7.83105
      C    4    0.11327      0.99957     1.86786    0.01931     2.88673
      N    5   -0.27997      0.99965     2.77034    0.00999     3.77997
      C    6    0.01538      0.99949     1.97176    0.01337     2.98462
      C    7    0.03666      0.99953     1.95343    0.01038     2.96334
      N    8   -0.20804      0.99960     2.69818    0.01026     3.70804
      C    9    0.34599      0.99961     1.63370    0.02071     2.65401
      O   10   -0.32735      0.99989     3.32188    0.00558     4.32735
      N   11   -0.31715      0.99968     2.80678    0.01070     3.81715
      C   12   -0.08537      0.99962     2.07655    0.00920     3.08537
      C   13   -0.21300      0.99959     2.20526    0.00815     3.21300
      C   14    0.05136      0.99958     1.93241    0.01665     2.94864
      N   15   -0.14636      0.99971     2.63383    0.01282     3.64636
      N   16   -0.07572      0.99975     2.55822    0.01775     3.57572
      N   17   -0.13524      0.99974     2.62227    0.01323     3.63524
      C   18   -0.03994      0.99956     2.02528    0.01509     3.03994
      H   19    0.10012      0.00000     0.39889    0.00099     0.39988
      H   20    0.10315      0.00000     0.39598    0.00087     0.39685
      H   21    0.10629      0.00000     0.39274    0.00096     0.39371
      H   22    0.18913      0.00000     0.30920    0.00166     0.31087
      H   23    0.09002      0.00000     0.40902    0.00096     0.40998
      H   24    0.11415      0.00000     0.38480    0.00105     0.38585
      H   25    0.10621      0.00000     0.39237    0.00142     0.39379
      H   26    0.11393      0.00000     0.38473    0.00134     0.38607
      H   27    0.20145      0.00000     0.28762    0.01093     0.29855
      H   28    0.11498      0.00000     0.38345    0.00157     0.38502
 =======================================================================
   * Total *   -0.00000     21.99310    45.74875    0.25816    68.00000

 Normal termination of Gaussian 16 at Fri Dec 11 22:44:02 2020.
