 Gaussian 16, Revision A.03,

 -----------------------------------------------------------
 # opt freq B3LYP/6-31G(d) empiricaldispersion=gd3bj scf=xqc
 -----------------------------------------------------------

 -------------------------------
 CID_131206967_JID_1820_neutraal
 -------------------------------
 Symbolic Z-matrix:
 Charge =  0 Multiplicity = 1

 SCF Done:  E(RB3LYP) =  -1178.66301539     A.U. after   15 cycles
 SCF Done:  E(RB3LYP) =  -1178.63674855     A.U. after   16 cycles
 SCF Done:  E(RB3LYP) =  -1178.66904656     A.U. after   14 cycles
 SCF Done:  E(RB3LYP) =  -1178.67007553     A.U. after   15 cycles
 SCF Done:  E(RB3LYP) =  -1178.67084453     A.U. after   14 cycles
 SCF Done:  E(RB3LYP) =  -1178.67129796     A.U. after   13 cycles
 SCF Done:  E(RB3LYP) =  -1178.67139247     A.U. after   12 cycles
 SCF Done:  E(RB3LYP) =  -1178.67141806     A.U. after   11 cycles
 SCF Done:  E(RB3LYP) =  -1178.67143514     A.U. after   11 cycles
 SCF Done:  E(RB3LYP) =  -1178.67144932     A.U. after   11 cycles
 SCF Done:  E(RB3LYP) =  -1178.67145877     A.U. after   11 cycles
 SCF Done:  E(RB3LYP) =  -1178.67146302     A.U. after    9 cycles
 SCF Done:  E(RB3LYP) =  -1178.67146440     A.U. after    9 cycles
 Optimization completed.
    -- Stationary point found.
 Normal termination of Gaussian 16 at Tue Dec  8 21:29:36 2020.

 --------------------------------------------------------------------
 #N Geom=AllCheck Guess=TCheck SCRF=Check GenChk RB3LYP/6-31G(d) Freq
 --------------------------------------------------------------------

 Structure from the checkpoint file:  "JID_1820.chk"
 -------------------------------
 CID_131206967_JID_1820_neutraal
 -------------------------------
 Charge =  0 Multiplicity = 1

 SCF Done:  E(RB3LYP) =  -1178.67146440     A.U. after    1 cycles

  Exact polarizability: 130.839  14.611 101.324  -0.320   2.514  98.865
 Approx polarizability: 187.865  30.915 158.739  -6.780   4.157 184.802

                      1                      2                      3
                      A                      A                      A
 Frequencies --     47.6389                63.8101                92.2376
 Red. masses --      5.8664                 4.8863                 8.8893
 Frc consts  --      0.0078                 0.0117                 0.0446
 IR Inten    --      0.1182                 5.6576                 3.0781

                      4                      5                      6
                      A                      A                      A
 Frequencies --    100.4005               170.7845               195.2485
 Red. masses --      6.8640                 2.8730                 3.2748
 Frc consts  --      0.0408                 0.0494                 0.0736
 IR Inten    --      2.7373                 6.5853                 6.9995

                      7                      8                      9
                      A                      A                      A
 Frequencies --    204.9304               251.9068               285.0935
 Red. masses --      3.1182                 4.2642                 3.3798
 Frc consts  --      0.0772                 0.1594                 0.1619
 IR Inten    --      7.5699                 3.6874                 1.5185

                     10                     11                     12
                      A                      A                      A
 Frequencies --    302.3175               394.8593               403.3465
 Red. masses --      3.4869                 3.6450                 4.2411
 Frc consts  --      0.1878                 0.3348                 0.4065
 IR Inten    --      4.5417                 0.9799                 0.6822

                     13                     14                     15
                      A                      A                      A
 Frequencies --    431.0147               560.0998               568.1921
 Red. masses --      3.5353                 5.8948                 5.4946
 Frc consts  --      0.3870                 1.0896                 1.0451
 IR Inten    --      1.6770                 1.6320                 3.1805

                     16                     17                     18
                      A                      A                      A
 Frequencies --    576.1853               634.8062               663.7456
 Red. masses --      4.3975                 8.2929                 4.7978
 Frc consts  --      0.8602                 1.9690                 1.2454
 IR Inten    --      1.3776                 4.0502                 4.3812

                     19                     20                     21
                      A                      A                      A
 Frequencies --    709.6412               772.9053               854.9378
 Red. masses --      3.0185                 1.6666                 2.7518
 Frc consts  --      0.8956                 0.5866                 1.1851
 IR Inten    --      2.4387                 7.4975                 5.9216

                     22                     23                     24
                      A                      A                      A
 Frequencies --    867.8316               904.3286               932.9887
 Red. masses --      1.8241                 2.4249                 3.5345
 Frc consts  --      0.8094                 1.1684                 1.8127
 IR Inten    --      2.7189                29.6749                38.9749

                     25                     26                     27
                      A                      A                      A
 Frequencies --    973.2182              1015.6161              1020.5269
 Red. masses --      3.6463                 2.1301                 3.0497
 Frc consts  --      2.0348                 1.2945                 1.8714
 IR Inten    --     79.3059                 3.6588                15.3675

                     28                     29                     30
                      A                      A                      A
 Frequencies --   1029.1849              1044.0772              1090.1873
 Red. masses --      1.8406                 1.7663                 2.8679
 Frc consts  --      1.1486                 1.1344                 2.0083
 IR Inten    --      2.6798                12.4824                 0.5079

                     31                     32                     33
                      A                      A                      A
 Frequencies --   1179.8107              1198.3167              1218.1132
 Red. masses --      1.2591                 1.1131                 1.1567
 Frc consts  --      1.0326                 0.9418                 1.0112
 IR Inten    --      1.8201                 2.3016                 0.3049

                     34                     35                     36
                      A                      A                      A
 Frequencies --   1238.9328              1307.7888              1321.5396
 Red. masses --      1.1570                 1.1941                 1.2284
 Frc consts  --      1.0464                 1.2032                 1.2640
 IR Inten    --      6.3983                 1.6449                 4.9537

                     37                     38                     39
                      A                      A                      A
 Frequencies --   1334.2865              1356.1881              1384.5329
 Red. masses --      1.2568                 1.3059                 1.3447
 Frc consts  --      1.3183                 1.4152                 1.5188
 IR Inten    --     13.6463                13.2851                 4.0931

                     40                     41                     42
                      A                      A                      A
 Frequencies --   1403.0685              1494.7570              1501.0152
 Red. masses --      1.3822                 1.0813                 1.0854
 Frc consts  --      1.6032                 1.4234                 1.4409
 IR Inten    --      3.6181                 1.4002                16.4071

                     43                     44                     45
                      A                      A                      A
 Frequencies --   1502.7864              1510.4682              1516.7020
 Red. masses --      1.0881                 1.0889                 1.1023
 Frc consts  --      1.4478                 1.4637                 1.4940
 IR Inten    --      8.4558                 3.6219                10.4045

                     46                     47                     48
                      A                      A                      A
 Frequencies --   1658.1493              2367.5269              3042.6650
 Red. masses --      8.5951                12.6024                 1.0685
 Frc consts  --     13.9236                41.6193                 5.8280
 IR Inten    --     99.2586                 9.0616                38.8646

                     49                     50                     51
                      A                      A                      A
 Frequencies --   3054.3160              3069.2193              3089.1651
 Red. masses --      1.0629                 1.0601                 1.0617
 Frc consts  --      5.8423                 5.8835                 5.9696
 IR Inten    --     26.0139                 9.0188                12.5347

                     52                     53                     54
                      A                      A                      A
 Frequencies --   3103.7592              3104.3493              3113.9962
 Red. masses --      1.0976                 1.0640                 1.1033
 Frc consts  --      6.2297                 6.0413                 6.3036
 IR Inten    --     18.3468                 7.6839                 1.2400

                     55                     56                     57
                      A                      A                      A
 Frequencies --   3114.9832              3144.3502              3168.2526
 Red. masses --      1.0904                 1.1070                 1.1111
 Frc consts  --      6.2336                 6.4487                 6.5711
 IR Inten    --     20.2664                 4.8190                 3.0372

 - Thermochemistry -
 -------------------
 Temperature   298.150 Kelvin.  Pressure   1.00000 Atm.
 Atom     1 has atomic number  6 and mass  12.00000

 Molecular mass:   186.02854 amu.
 Principal axes and moments of inertia in atomic units:
                           1         2         3
     Eigenvalues --  1600.583792367.963503045.37691
           X            0.99960   0.02379   0.01549
           Y           -0.02428   0.99918   0.03237
           Z           -0.01470  -0.03273   0.99936
 This molecule is an asymmetric top.
 Rotational symmetry number  1.
 Warning -- assumption of classical behavior for rotation
           may cause significant error
 Rotational temperatures (Kelvin)      0.05411     0.03658     0.02844
 Rotational constants (GHZ):           1.12755     0.76215     0.59262
 Zero-point vibrational energy     434609.9 (Joules/Mol)
                                  103.87426 (Kcal/Mol)
 Warning -- explicit consideration of  16 degrees of freedom as
           vibrations may cause significant error
 Vibrational temperatures:     68.54    91.81   132.71   144.45   245.72
          (Kelvin)            280.92   294.85   362.44   410.19   434.97
                              568.11   580.33   620.13   805.86   817.50
                              829.00   913.34   954.98  1021.02  1112.04
                             1230.06  1248.62  1301.13  1342.36  1400.24
                             1461.24  1468.31  1480.77  1502.19  1568.54
                             1697.48  1724.11  1752.59  1782.55  1881.62
                             1901.40  1919.74  1951.25  1992.03  2018.70
                             2150.62  2159.63  2162.17  2173.23  2182.20
                             2385.71  3406.34  4377.72  4394.48  4415.92
                             4444.62  4465.62  4466.47  4480.35  4481.77
                             4524.02  4558.41

 Zero-point correction=                           0.165534 (Hartree/Particle)
 Thermal correction to Energy=                    0.177039
 Thermal correction to Enthalpy=                  0.177983
 Thermal correction to Gibbs Free Energy=         0.127122
 Sum of electronic and zero-point Energies=          -1178.505930
 Sum of electronic and thermal Energies=             -1178.494426
 Sum of electronic and thermal Enthalpies=           -1178.493481
 Sum of electronic and thermal Free Energies=        -1178.544342

                     E (Thermal)             CV                S
                      KCal/Mol        Cal/Mol-Kelvin    Cal/Mol-Kelvin
 Total                  111.094             41.633            107.046
 Electronic               0.000              0.000              0.000
 Translational            0.889              2.981             41.568
 Rotational               0.889              2.981             30.824
 Vibrational            109.316             35.672             34.654
 Vibration     1          0.595              1.978              4.913
 Vibration     2          0.597              1.972              4.336
 Vibration     3          0.602              1.955              3.612
 Vibration     4          0.604              1.949              3.447
 Vibration     5          0.626              1.878              2.427
 Vibration     6          0.636              1.846              2.177
 Vibration     7          0.640              1.833              2.088
 Vibration     8          0.664              1.760              1.717
 Vibration     9          0.683              1.701              1.503
 Vibration    10          0.694              1.669              1.404
 Vibration    11          0.762              1.481              0.982
 Vibration    12          0.769              1.463              0.950
 Vibration    13          0.792              1.403              0.855
 Vibration    14          0.916              1.118              0.524
 Vibration    15          0.924              1.100              0.508
 Vibration    16          0.933              1.083              0.492

                           ! Non-Optimized Parameters !
 Normal termination of Gaussian 16 at Tue Dec  8 21:34:07 2020.

 ----------------------------------------------------------------------
 # B3LYP/6-311++G(d,p) empiricaldispersion=gd3bj scf=xqc pop=npa geom=c
 heck
 ----------------------------------------------------------------------

 ---------------------------------------
 CID_131206967_JID_1820_Energie_neutraal
 ---------------------------------------
 Structure from the checkpoint file:  "JID_1820.chk"
 Charge =  0 Multiplicity = 1

 SCF Done:  E(RB3LYP) =  -1178.82933506     A.U. after   14 cycles
 Normal termination of Gaussian 16 at Tue Dec  8 21:36:51 2020.

 ----------------------------------------------------------------------
 # B3LYP/6-311++G(d,p) empiricaldispersion=gd3bj scf=xqc pop=npa geom=c
 heck
 ----------------------------------------------------------------------

 -------------------------------------
 CID_131206967_JID_1820_Energie_kation
 -------------------------------------
 Structure from the checkpoint file:  "JID_1820.chk"
 Charge =  1 Multiplicity = 2

 SCF Done:  E(UB3LYP) =  -1178.51120539     A.U. after   33 cycles
 SCF Done:  E(UB3LYP) =  -1178.51679053     a.u. after   12 cycles
 Normal termination of Gaussian 16 at Tue Dec  8 22:11:33 2020.
 Gaussian 16:  ES64L-G16RevA.03 25-Dec-2016

 ----------------------------------------------------------------------
 # B3LYP/6-311++G(d,p) empiricaldispersion=gd3bj scf=xqc pop=npa geom=c
 heck
 ----------------------------------------------------------------------

 ------------------------------------
 CID_131206967_JID_1820_Energie_anion
 ------------------------------------
 Structure from the checkpoint file:  "JID_1820.chk"
 Charge = -1 Multiplicity = 2

                         Standard orientation:
 ---------------------------------------------------------------------
 Center     Atomic      Atomic             Coordinates (Angstroms)
 Number     Number       Type             X           Y           Z
 ---------------------------------------------------------------------
      1          6           0        2.303915    0.501062    1.176921
      2          6           0        2.518617    0.706452   -0.339642
      3         16           0        1.594683   -0.682811   -1.113523
      4          6           0        0.617099   -0.788760    0.390919
      5          7           0        1.020559   -0.163670    1.421223
      6         16           0       -0.847472   -1.808188    0.390679
      7          6           0       -1.884191   -0.850084   -0.800450
      8          6           0       -2.772901    0.196811   -0.124232
      9          6           0       -2.008025    1.254382    0.696747
     10          6           0       -1.039609    2.006439   -0.103388
     11          7           0       -0.262574    2.581471   -0.746018
     12          1           0        3.092215   -0.133562    1.604733
     13          1           0        2.321639    1.457713    1.707175
     14          1           0        2.079431    1.644418   -0.685766
     15          1           0        3.571392    0.656337   -0.623483
     16          1           0       -1.215319   -0.395318   -1.536182
     17          1           0       -2.502367   -1.586762   -1.320805
     18          1           0       -3.367726    0.695082   -0.900302
     19          1           0       -3.474868   -0.299006    0.554795
     20          1           0       -2.716479    1.960944    1.143605
     21          1           0       -1.458635    0.773716    1.514056
 ---------------------------------------------------------------------

 SCF Done:  E(UB3LYP) =  -1178.82008369     A.U. after   31 cycles

 The electronic state is 2-A.
 Alpha  occ. eigenvalues --  -88.74115 -88.73307 -14.19870 -14.18472 -10.12902
 Alpha  occ. eigenvalues --  -10.10203 -10.10076 -10.09764 -10.09692 -10.08344
 Alpha  occ. eigenvalues --  -10.07233  -7.82751  -7.81854  -5.79109  -5.78772
 Alpha  occ. eigenvalues --   -5.78241  -5.78163  -5.77893  -5.77243  -0.83351
 Alpha  occ. eigenvalues --   -0.79826  -0.71363  -0.67376  -0.66480  -0.62044
 Alpha  occ. eigenvalues --   -0.56944  -0.50587  -0.49237  -0.41292  -0.38784
 Alpha  occ. eigenvalues --   -0.38101  -0.36830  -0.35761  -0.34491  -0.31104
 Alpha  occ. eigenvalues --   -0.29752  -0.29176  -0.27833  -0.27180  -0.25974
 Alpha  occ. eigenvalues --   -0.24908  -0.24271  -0.22461  -0.21746  -0.21550
 Alpha  occ. eigenvalues --   -0.19211  -0.15588  -0.12583  -0.12125   0.04938
 Alpha virt. eigenvalues --    0.07249   0.07687   0.08687   0.09692   0.10282
 Alpha virt. eigenvalues --    0.10731   0.10848   0.11963   0.12341   0.12923
 Alpha virt. eigenvalues --    0.13399   0.13438   0.13801   0.14216   0.15002

  Beta  occ. eigenvalues --  -88.74110 -88.73303 -14.19830 -14.18206 -10.12726
  Beta  occ. eigenvalues --  -10.10217 -10.10068 -10.09762 -10.09679 -10.08230
  Beta  occ. eigenvalues --  -10.07186  -7.82745  -7.81850  -5.79102  -5.78770
  Beta  occ. eigenvalues --   -5.78222  -5.78148  -5.77902  -5.77229  -0.82970
  Beta  occ. eigenvalues --   -0.79760  -0.71236  -0.67277  -0.66263  -0.61905
  Beta  occ. eigenvalues --   -0.56844  -0.50517  -0.49031  -0.41054  -0.38630
  Beta  occ. eigenvalues --   -0.37918  -0.36717  -0.35658  -0.34407  -0.30932
  Beta  occ. eigenvalues --   -0.29631  -0.28973  -0.27692  -0.27023  -0.25760
  Beta  occ. eigenvalues --   -0.24807  -0.23904  -0.22276  -0.21565  -0.21506
  Beta  occ. eigenvalues --   -0.18784  -0.15318  -0.12454  -0.11641
  Beta virt. eigenvalues --    0.07457   0.08254   0.09151   0.09723   0.09836
  Beta virt. eigenvalues --    0.10628   0.11169   0.11398   0.12067   0.12795
  Beta virt. eigenvalues --    0.13076   0.13501   0.13534   0.14271   0.14462

 Mulliken charges and spin densities:
               1          2
     1  C   -0.506145  -0.009848
     2  C   -0.342815   0.009178
     3  S   -0.262612   0.011474
     4  C    0.053182   0.218721
     5  N    0.004534   0.110222
     6  S    0.226597  -0.307747
     7  C   -0.048581  -0.112143
     8  C    1.707404  -2.286619
     9  C   -0.934060   0.958256
    10  C    0.776957  -0.718796
    11  N   -0.408179   0.056256
    12  H    0.131990   0.019551
    13  H    0.148842   0.006852
    14  H    0.198501   0.001274
    15  H    0.170530   0.000532
    16  H    0.137711  -0.014941
    17  H   -0.737635   1.003188
    18  H   -0.195771   0.341970
    19  H   -0.772974   0.958152
    20  H   -0.574434   0.819876
    21  H    0.226959  -0.065407
 Sum of Mulliken charges =  -1.00000   1.00000

 Dipole moment (field-independent basis, Debye):
    X=              8.9968    Y=              0.9349    Z=              0.4906  Tot=              9.0586
 Quadrupole moment (field-independent basis, Debye-Ang):
   XX=           -135.2767   YY=           -118.8287   ZZ=           -105.0554
   XY=             -1.1064   XZ=              0.5936   YZ=              0.1241

 Summary of Natural Population Analysis:

                                       Natural Population
                Natural  -----------------------------------------------
    Atom  No    Charge         Core      Valence    Rydberg      Total
 -----------------------------------------------------------------------
      C    1   -0.10300      0.99962     2.09358    0.00980     3.10300
      C    2   -0.25632      0.99961     2.25005    0.00666     3.25632
      S    3    0.09190      4.99949     2.88839    0.02021     7.90810
      C    4   -0.00425      0.99955     1.98155    0.02315     3.00425
      N    5   -0.21889      0.99960     2.70305    0.01624     3.71889
      S    6    0.11883      4.99947     2.86162    0.02008     7.88117
      C    7   -0.24304      0.99957     2.23048    0.01298     3.24304
      C    8   -0.18640      0.99961     2.17515    0.01164     3.18640
      C    9   -0.25785      0.99953     2.24755    0.01077     3.25785
      C   10    0.17165      0.99966     1.81047    0.01822     2.82835
      N   11   -0.19917      0.99978     2.68872    0.01067     3.69917
      H   12    0.09226      0.00000     0.40644    0.00131     0.40774
      H   13    0.09794      0.00000     0.40101    0.00105     0.40206
      H   14    0.11269      0.00000     0.38593    0.00138     0.38731
      H   15    0.09975      0.00000     0.39916    0.00108     0.40025
      H   16    0.10845      0.00000     0.38992    0.00162     0.39155
      H   17    0.11241      0.00000     0.38457    0.00302     0.38759
      H   18    0.10164      0.00000     0.39628    0.00208     0.39836
      H   19    0.10796      0.00000     0.38602    0.00603     0.39204
      H   20    0.12206      0.00000     0.37548    0.00245     0.37794
      H   21    0.13137      0.00000     0.36614    0.00249     0.36863
 =======================================================================
   * Total *   -0.00000     18.99550    29.82157    0.18293    49.00000

 Normal termination of Gaussian 16 at Tue Dec  8 22:17:45 2020.
