 Gaussian 16, Revision A.03,

 -----------------------------------------------------------
 # opt freq B3LYP/6-31G(d) empiricaldispersion=gd3bj scf=xqc
 -----------------------------------------------------------

 -------------------------------
 CID_61661718_JID_10408_neutraal
 -------------------------------
 Symbolic Z-matrix:
 Charge =  0 Multiplicity = 1

 SCF Done:  E(RB3LYP) =  -1215.72546209     A.U. after   15 cycles
 SCF Done:  E(RB3LYP) =  -1215.73143036     A.U. after   12 cycles
 SCF Done:  E(RB3LYP) =  -1215.73267795     A.U. after   13 cycles
 SCF Done:  E(RB3LYP) =  -1215.73337709     A.U. after   13 cycles
 SCF Done:  E(RB3LYP) =  -1215.73367860     A.U. after   13 cycles
 SCF Done:  E(RB3LYP) =  -1215.73465103     A.U. after   15 cycles
 SCF Done:  E(RB3LYP) =  -1215.73504176     A.U. after   12 cycles
 SCF Done:  E(RB3LYP) =  -1215.73525529     A.U. after   13 cycles
 SCF Done:  E(RB3LYP) =  -1215.73536629     A.U. after   12 cycles
 SCF Done:  E(RB3LYP) =  -1215.73544918     A.U. after   13 cycles
 SCF Done:  E(RB3LYP) =  -1215.73883920     A.U. after    9 cycles
 SCF Done:  E(RB3LYP) =  -1215.73883929     A.U. after    9 cycles
 SCF Done:  E(RB3LYP) =  -1215.73883936     A.U. after    9 cycles
 SCF Done:  E(RB3LYP) =  -1215.73883937     A.U. after    7 cycles
 Optimization completed.
    -- Stationary point found.
 Normal termination of Gaussian 16 at Mon Dec 14 18:16:21 2020.

 --------------------------------------------------------------------
 #N Geom=AllCheck Guess=TCheck SCRF=Check GenChk RB3LYP/6-31G(d) Freq
 --------------------------------------------------------------------

 Structure from the checkpoint file:  "JID_10408.chk"
 -------------------------------
 CID_61661718_JID_10408_neutraal
 -------------------------------
 Charge =  0 Multiplicity = 1

 SCF Done:  E(RB3LYP) =  -1215.73883937     A.U. after    1 cycles

  Exact polarizability: 234.612  12.543 217.223  -6.039  -0.109 136.359
 Approx polarizability: 329.836  29.652 322.451 -17.262  -4.495 237.092

                      1                      2                      3
                      A                      A                      A
 Frequencies --     16.0357                28.2031                40.0676
 Red. masses --      4.5362                 4.1669                 3.1438
 Frc consts  --      0.0007                 0.0020                 0.0030
 IR Inten    --      1.4913                 1.7613                 0.2741

                      4                      5                      6
                      A                      A                      A
 Frequencies --     46.0034                61.2478                64.3939
 Red. masses --      1.2900                 3.6677                 4.1547
 Frc consts  --      0.0016                 0.0081                 0.0102
 IR Inten    --      0.1608                 0.3160                 2.1719

                      7                      8                      9
                      A                      A                      A
 Frequencies --     80.1047               142.4974               153.3283
 Red. masses --      3.7560                 4.6652                 3.5604
 Frc consts  --      0.0142                 0.0558                 0.0493
 IR Inten    --      0.1990                 0.4330                 1.4131

                     10                     11                     12
                      A                      A                      A
 Frequencies --    157.0083               201.0079               208.3185
 Red. masses --      3.8704                 3.7586                 4.1598
 Frc consts  --      0.0562                 0.0895                 0.1064
 IR Inten    --      0.0898                 4.4691                 1.3857

                     13                     14                     15
                      A                      A                      A
 Frequencies --    234.4268               280.2995               290.5356
 Red. masses --      5.0655                 2.9515                 5.5885
 Frc consts  --      0.1640                 0.1366                 0.2779
 IR Inten    --      1.8047                 0.2643                 1.0435

                     16                     17                     18
                      A                      A                      A
 Frequencies --    322.9102               326.3549               371.7370
 Red. masses --      2.5141                 2.9917                 3.4538
 Frc consts  --      0.1545                 0.1877                 0.2812
 IR Inten    --      1.3582                 5.1219                10.6142

                     19                     20                     21
                      A                      A                      A
 Frequencies --    393.5955               406.7859               430.3924
 Red. masses --      4.2164                 3.0084                 1.8645
 Frc consts  --      0.3848                 0.2933                 0.2035
 IR Inten    --      2.3996                 0.4820                 8.4338

                     22                     23                     24
                      A                      A                      A
 Frequencies --    444.9768               484.5128               488.9128
 Red. masses --      2.3362                 4.0888                 3.5267
 Frc consts  --      0.2725                 0.5655                 0.4967
 IR Inten    --     26.1458                 5.0264                 4.7534

                     25                     26                     27
                      A                      A                      A
 Frequencies --    511.2944               533.1994               584.7509
 Red. masses --      4.4100                 3.1367                 3.3242
 Frc consts  --      0.6793                 0.5254                 0.6697
 IR Inten    --      4.3830                62.5061                14.9006

                     28                     29                     30
                      A                      A                      A
 Frequencies --    588.8177               630.7310               645.2803
 Red. masses --      1.6104                 3.7621                 4.3438
 Frc consts  --      0.3290                 0.8818                 1.0657
 IR Inten    --    217.9649                10.5206                 1.3990

                     31                     32                     33
                      A                      A                      A
 Frequencies --    656.2188               670.6311               714.4694
 Red. masses --      3.3467                 4.0076                 5.3384
 Frc consts  --      0.8491                 1.0619                 1.6056
 IR Inten    --      3.5749                10.5276                14.3330

                     34                     35                     36
                      A                      A                      A
 Frequencies --    723.1494               727.0192               754.0596
 Red. masses --      4.6645                 5.6232                 4.5088
 Frc consts  --      1.4372                 1.7512                 1.5105
 IR Inten    --      5.9044                20.8370                 2.6770

                     37                     38                     39
                      A                      A                      A
 Frequencies --    775.3797               802.9335               840.9139
 Red. masses --      5.4037                 1.3730                 1.2040
 Frc consts  --      1.9141                 0.5215                 0.5016
 IR Inten    --     15.6137                12.6806                34.7739

                     40                     41                     42
                      A                      A                      A
 Frequencies --    843.5002               872.2935               882.9777
 Red. masses --      1.4294                 1.3339                 2.3966
 Frc consts  --      0.5992                 0.5980                 1.1009
 IR Inten    --     14.8887                10.7868                 0.6721

                     43                     44                     45
                      A                      A                      A
 Frequencies --    914.6477               942.6088               962.1007
 Red. masses --      1.5343                 2.5703                 1.4600
 Frc consts  --      0.7562                 1.3455                 0.7962
 IR Inten    --      1.0800                 8.3420                 3.9925

                     46                     47                     48
                      A                      A                      A
 Frequencies --    970.8496               998.3281              1014.2965
 Red. masses --      2.6681                 3.9342                 7.1681
 Frc consts  --      1.4817                 2.3102                 4.3449
 IR Inten    --      4.4465                43.0308                15.5121

                     49                     50                     51
                      A                      A                      A
 Frequencies --   1036.0929              1083.5220              1084.7368
 Red. masses --      3.0124                 1.5373                 1.8288
 Frc consts  --      1.9053                 1.0634                 1.2678
 IR Inten    --     18.8542                14.8114                 0.9741

                     52                     53                     54
                      A                      A                      A
 Frequencies --   1114.3185              1138.9263              1147.6525
 Red. masses --      1.8963                 1.9752                 1.7421
 Frc consts  --      1.3873                 1.5096                 1.3519
 IR Inten    --      2.1000                78.3223                27.5764

                     55                     56                     57
                      A                      A                      A
 Frequencies --   1161.1109              1166.9831              1171.4104
 Red. masses --      1.3115                 1.1992                 1.4832
 Frc consts  --      1.0418                 0.9622                 1.1991
 IR Inten    --      2.2831                 1.3388                37.4658

                     58                     59                     60
                      A                      A                      A
 Frequencies --   1192.7427              1201.0744              1218.6848
 Red. masses --      2.1464                 1.8316                 1.4428
 Frc consts  --      1.7991                 1.5568                 1.2625
 IR Inten    --     14.9641                28.2925                 2.9783

                     61                     62                     63
                      A                      A                      A
 Frequencies --   1225.9109              1260.8125              1283.9594
 Red. masses --      2.0043                 2.5683                 1.2827
 Frc consts  --      1.7747                 2.4054                 1.2459
 IR Inten    --     40.1573                 4.9796                 5.6152

                     64                     65                     66
                      A                      A                      A
 Frequencies --   1295.9816              1318.8216              1320.1473
 Red. masses --      1.3541                 4.7472                 4.4449
 Frc consts  --      1.3399                 4.8648                 4.5641
 IR Inten    --      5.2394                 1.4931                 9.9141

                     67                     68                     69
                      A                      A                      A
 Frequencies --   1346.8006              1376.6140              1387.5838
 Red. masses --      1.5990                 5.5281                 1.4541
 Frc consts  --      1.7089                 6.1723                 1.6495
 IR Inten    --     20.5251                 9.3004                 3.4397

                     70                     71                     72
                      A                      A                      A
 Frequencies --   1390.4208              1402.8605              1414.9436
 Red. masses --      1.4426                 1.5593                 4.5822
 Frc consts  --      1.6432                 1.8080                 5.4051
 IR Inten    --     12.5471                35.8789                 8.9323

                     73                     74                     75
                      A                      A                      A
 Frequencies --   1419.2646              1448.1246              1470.8562
 Red. masses --      3.2391                 3.5285                 1.5986
 Frc consts  --      3.8441                 4.3596                 2.0377
 IR Inten    --     34.3537               199.8798                32.2955

                     76                     77                     78
                      A                      A                      A
 Frequencies --   1482.5927              1495.4416              1499.7025
 Red. masses --      4.2721                 2.0084                 1.1169
 Frc consts  --      5.5326                 2.6463                 1.4800
 IR Inten    --     16.3086                 9.3358                 7.4796

                     79                     80                     81
                      A                      A                      A
 Frequencies --   1505.4982              1509.0649              1521.9095
 Red. masses --      1.0518                 1.0986                 1.0917
 Frc consts  --      1.4046                 1.4740                 1.4899
 IR Inten    --      6.2326                 3.2354                 5.0347

                     82                     83                     84
                      A                      A                      A
 Frequencies --   1531.4037              1549.1728              1572.1313
 Red. masses --      1.1034                 1.2394                 4.3844
 Frc consts  --      1.5246                 1.7525                 6.3847
 IR Inten    --      1.6568                 4.9009                37.3809

                     85                     86                     87
                      A                      A                      A
 Frequencies --   1592.2038              1645.2764              1662.0843
 Red. masses --      6.6555                 6.6764                 1.3814
 Frc consts  --      9.9410                10.6481                 2.2484
 IR Inten    --     30.8669                72.5360                61.0284

                     88                     89                     90
                      A                      A                      A
 Frequencies --   1713.0559              3018.8003              3025.1214
 Red. masses --      4.1280                 1.0687                 1.0721
 Frc consts  --      7.1373                 5.7380                 5.7806
 IR Inten    --    233.7376                25.5342                 8.7811

                     91                     92                     93
                      A                      A                      A
 Frequencies --   3034.1693              3041.3010              3068.2818
 Red. masses --      1.0676                 1.0616                 1.0932
 Frc consts  --      5.7910                 5.7851                 6.0637
 IR Inten    --     17.4609                36.0209                37.1651

                     94                     95                     96
                      A                      A                      A
 Frequencies --   3073.0607              3088.3010              3089.6467
 Red. masses --      1.0339                 1.0949                 1.1009
 Frc consts  --      5.7528                 6.1530                 6.1919
 IR Inten    --     50.4169                61.4574                45.7364

                     97                     98                     99
                      A                      A                      A
 Frequencies --   3095.6465              3144.6291              3170.7261
 Red. masses --      1.0953                 1.1034                 1.1057
 Frc consts  --      6.1842                 6.4287                 6.5497
 IR Inten    --     22.1456                12.4915                 8.1739

                    100                    101                    102
                      A                      A                      A
 Frequencies --   3183.1073              3266.1293              3284.7089
 Red. masses --      1.0904                 1.0968                 1.0986
 Frc consts  --      6.5092                 6.8934                 6.9838
 IR Inten    --      8.6957                 3.2236                 0.3168

                    103                    104                    105
                      A                      A                      A
 Frequencies --   3485.7192              3563.9100              3677.0566
 Red. masses --      1.0749                 1.0467                 1.1010
 Frc consts  --      7.6950                 7.8327                 8.7706
 IR Inten    --      1.6087                21.6054                41.8038

 - Thermochemistry -
 -------------------
 Temperature   298.150 Kelvin.  Pressure   1.00000 Atm.
 Atom     1 has atomic number  6 and mass  12.00000

 Molecular mass:   287.12047 amu.
 Principal axes and moments of inertia in atomic units:
                           1         2         3
     Eigenvalues --  4833.977707631.24091**********
           X            0.99986  -0.01515   0.00655
           Y            0.01511   0.99987   0.00626
           Z           -0.00665  -0.00616   0.99996
 This molecule is an asymmetric top.
 Rotational symmetry number  1.
 Warning -- assumption of classical behavior for rotation
           may cause significant error
 Rotational temperatures (Kelvin)      0.01792     0.01135     0.00743
 Rotational constants (GHZ):           0.37334     0.23649     0.15488
 Zero-point vibrational energy     794944.4 (Joules/Mol)
                                  189.99626 (Kcal/Mol)
 Warning -- explicit consideration of  28 degrees of freedom as
           vibrations may cause significant error
 Vibrational temperatures:     23.07    40.58    57.65    66.19    88.12
          (Kelvin)             92.65   115.25   205.02   220.61   225.90
                              289.21   299.72   337.29   403.29   418.02
                              464.60   469.55   534.85   566.30   585.27
                              619.24   640.22   697.11   703.44   735.64
                              767.16   841.33   847.18   907.48   928.41
                              944.15   964.89  1027.96  1040.45  1046.02
                             1084.92  1115.60  1155.24  1209.89  1213.61
                             1255.04  1270.41  1315.97  1356.20  1384.25
                             1396.84  1436.37  1459.35  1490.71  1558.95
                             1560.69  1603.26  1638.66  1651.22  1670.58
                             1679.03  1685.40  1716.09  1728.08  1753.42
                             1763.81  1814.03  1847.33  1864.63  1897.49
                             1899.40  1937.75  1980.64  1996.42  2000.51
                             2018.40  2035.79  2042.01  2083.53  2116.23
                             2133.12  2151.61  2157.74  2166.08  2171.21
                             2189.69  2203.35  2228.91  2261.95  2290.83
                             2367.19  2391.37  2464.71  4343.38  4352.48
                             4365.49  4375.75  4414.57  4421.45  4443.38
                             4445.31  4453.94  4524.42  4561.97  4579.78
                             4699.23  4725.96  5015.17  5127.67  5290.46

 Zero-point correction=                           0.302778 (Hartree/Particle)
 Thermal correction to Energy=                    0.321471
 Thermal correction to Enthalpy=                  0.322416
 Thermal correction to Gibbs Free Energy=         0.252869
 Sum of electronic and zero-point Energies=          -1215.436061
 Sum of electronic and thermal Energies=             -1215.417368
 Sum of electronic and thermal Enthalpies=           -1215.416424
 Sum of electronic and thermal Free Energies=        -1215.485971

                     E (Thermal)             CV                S
                      KCal/Mol        Cal/Mol-Kelvin    Cal/Mol-Kelvin
 Total                  201.726             70.470            146.374
 Electronic               0.000              0.000              0.000
 Translational            0.889              2.981             42.862
 Rotational               0.889              2.981             34.418
 Vibrational            199.949             64.508             69.094
 Vibration     1          0.593              1.986              7.073
 Vibration     2          0.593              1.984              5.952
 Vibration     3          0.594              1.981              5.256
 Vibration     4          0.595              1.979              4.982
 Vibration     5          0.597              1.973              4.417
 Vibration     6          0.597              1.971              4.318
 Vibration     7          0.600              1.963              3.888
 Vibration     8          0.616              1.911              2.770
 Vibration     9          0.619              1.899              2.631
 Vibration    10          0.621              1.895              2.586
 Vibration    11          0.638              1.838              2.124
 Vibration    12          0.642              1.828              2.058
 Vibration    13          0.654              1.788              1.845
 Vibration    14          0.680              1.710              1.532
 Vibration    15          0.687              1.691              1.471
 Vibration    16          0.708              1.630              1.295
 Vibration    17          0.710              1.623              1.278
 Vibration    18          0.743              1.530              1.073
 Vibration    19          0.761              1.484              0.986
 Vibration    20          0.772              1.455              0.938
 Vibration    21          0.792              1.404              0.857
 Vibration    22          0.804              1.372              0.811
 Vibration    23          0.841              1.284              0.698
 Vibration    24          0.845              1.275              0.686
 Vibration    25          0.866              1.225              0.630
 Vibration    26          0.888              1.177              0.580
 Vibration    27          0.942              1.064              0.477
 Vibration    28          0.946              1.056              0.469

 Optimization completed.
    -- Stationary point found.
 Normal termination of Gaussian 16 at Mon Dec 14 18:34:22 2020.

 ----------------------------------------------------------------------
 # B3LYP/6-311++G(d,p) empiricaldispersion=gd3bj scf=xqc pop=npa geom=c
 heck
 ----------------------------------------------------------------------

 ---------------------------------------
 CID_61661718_JID_10408_Energie_neutraal
 ---------------------------------------
 Structure from the checkpoint file:  "JID_10408.chk"
 Charge =  0 Multiplicity = 1

 SCF Done:  E(RB3LYP) =  -1215.98715848     A.U. after   16 cycles
 Normal termination of Gaussian 16 at Mon Dec 14 18:43:36 2020.

 ----------------------------------------------------------------------
 # B3LYP/6-311++G(d,p) empiricaldispersion=gd3bj scf=xqc pop=npa geom=c
 heck
 ----------------------------------------------------------------------

 -------------------------------------
 CID_61661718_JID_10408_Energie_kation
 -------------------------------------
 Structure from the checkpoint file:  "JID_10408.chk"
 Charge =  1 Multiplicity = 2

 SCF Done:  E(UB3LYP) =  -1215.70091688     A.U. after   33 cycles
 SCF Done:  E(UB3LYP) =  -1215.70091688     a.u. after    1 cycles
 Normal termination of Gaussian 16 at Mon Dec 14 19:11:29 2020.
 Gaussian 16:  ES64L-G16RevA.03 25-Dec-2016

 ----------------------------------------------------------------------
 # B3LYP/6-311++G(d,p) empiricaldispersion=gd3bj scf=xqc pop=npa geom=c
 heck
 ----------------------------------------------------------------------

 ------------------------------------
 CID_61661718_JID_10408_Energie_anion
 ------------------------------------
 Structure from the checkpoint file:  "JID_10408.chk"
 Charge = -1 Multiplicity = 2

                         Standard orientation:
 ---------------------------------------------------------------------
 Center     Atomic      Atomic             Coordinates (Angstroms)
 Number     Number       Type             X           Y           Z
 ---------------------------------------------------------------------
      1          6           0       -5.005099   -1.666446   -0.912851
      2          7           0       -4.021981   -0.801316   -0.292069
      3          6           0       -3.133305    0.021377   -0.894713
      4          6           0       -2.455126    0.682026    0.118858
      5          6           0       -3.021744    0.175139    1.313005
      6          7           0       -3.972731   -0.719442    1.062766
      7         16           0       -1.183702    1.878720   -0.068915
      8          6           0        0.305107    0.848958   -0.011669
      9          6           0        1.575644    1.463190   -0.048236
     10          6           0        2.674790    0.605927   -0.046760
     11          6           0        2.521333   -0.781004    0.007071
     12          6           0        3.722891   -1.702117    0.045471
     13          6           0        3.366307   -3.150305   -0.309286
     14          6           0        2.130197   -3.599976    0.476555
     15          6           0        0.912216   -2.755919    0.086091
     16          6           0        1.209122   -1.273292    0.048070
     17          7           0        0.138354   -0.463467    0.027460
     18          6           0        1.811890    2.940878   -0.133386
     19          7           0        2.549843    3.506070   -1.020192
     20          7           0        1.254708    3.697732    0.877248
     21          1           0       -4.952960   -2.656603   -0.454925
     22          1           0       -6.012916   -1.261951   -0.777475
     23          1           0       -4.784203   -1.744407   -1.979163
     24          1           0       -3.031941    0.079470   -1.968368
     25          1           0       -2.761921    0.428391    2.331972
     26          1           0        3.672168    1.039085   -0.075237
     27          1           0        4.156879   -1.678076    1.056198
     28          1           0        4.502270   -1.320280   -0.625761
     29          1           0        4.221133   -3.803978   -0.102304
     30          1           0        3.158863   -3.226230   -1.385652
     31          1           0        1.920396   -4.661036    0.300559
     32          1           0        2.327292   -3.489873    1.551977
     33          1           0        0.559470   -3.056378   -0.911613
     34          1           0        0.068732   -2.922601    0.764562
     35          1           0        2.908386    2.804661   -1.669322
     36          1           0        0.438720    3.331394    1.347874
     37          1           0        1.226185    4.691225    0.683499
 ---------------------------------------------------------------------

 SCF Done:  E(UB3LYP) =  -1215.98585473     A.U. after   33 cycles
 SCF Done:  E(UB3LYP) =  -1215.98585473     a.u. after    1 cycles

 The electronic state is 2-A.
 Alpha  occ. eigenvalues --  -88.75287 -14.30039 -14.23594 -14.21844 -14.17909
 Alpha  occ. eigenvalues --  -14.16505 -10.13679 -10.12400 -10.12212 -10.11515
 Alpha  occ. eigenvalues --  -10.09834 -10.09468 -10.08389 -10.07731 -10.07617
 Alpha  occ. eigenvalues --  -10.07236 -10.06721 -10.06668 -10.06073 -10.05781
 Alpha  occ. eigenvalues --   -7.83904  -5.80310  -5.79871  -5.79327  -0.95932
 Alpha  occ. eigenvalues --   -0.84552  -0.82942  -0.75482  -0.74509  -0.73343
 Alpha  occ. eigenvalues --   -0.71239  -0.69063  -0.66671  -0.63671  -0.62825
 Alpha  occ. eigenvalues --   -0.59239  -0.54704  -0.52327  -0.50586  -0.49157
 Alpha  occ. eigenvalues --   -0.48436  -0.47850  -0.45693  -0.43368  -0.42552
 Alpha  occ. eigenvalues --   -0.40134  -0.38809  -0.37288  -0.37221  -0.35236
 Alpha  occ. eigenvalues --   -0.34807  -0.34102  -0.33323  -0.33171  -0.32484
 Alpha  occ. eigenvalues --   -0.31177  -0.30819  -0.30615  -0.29552  -0.28764
 Alpha  occ. eigenvalues --   -0.27929  -0.26886  -0.25875  -0.25408  -0.23993
 Alpha  occ. eigenvalues --   -0.23049  -0.21803  -0.20799  -0.18318  -0.17464
 Alpha  occ. eigenvalues --   -0.16651  -0.15538  -0.15063  -0.13964  -0.13600
 Alpha  occ. eigenvalues --   -0.11327   0.03895
 Alpha virt. eigenvalues --    0.05537   0.06555   0.07782   0.08070   0.08245
 Alpha virt. eigenvalues --    0.08668   0.08807   0.09220   0.09487   0.09674
 Alpha virt. eigenvalues --    0.10724   0.11074   0.11117   0.11249   0.11570

  Beta  occ. eigenvalues --  -88.75287 -14.30031 -14.23585 -14.21828 -14.17705
  Beta  occ. eigenvalues --  -14.16444 -10.13655 -10.12438 -10.12170 -10.11499
  Beta  occ. eigenvalues --  -10.09835 -10.09468 -10.08166 -10.07724 -10.07615
  Beta  occ. eigenvalues --  -10.07229 -10.06746 -10.06593 -10.06087 -10.05511
  Beta  occ. eigenvalues --   -7.83905  -5.80310  -5.79872  -5.79330  -0.95916
  Beta  occ. eigenvalues --   -0.84428  -0.82658  -0.75459  -0.74419  -0.73264
  Beta  occ. eigenvalues --   -0.71210  -0.68723  -0.66589  -0.63560  -0.62701
  Beta  occ. eigenvalues --   -0.59179  -0.54457  -0.52257  -0.50390  -0.49069
  Beta  occ. eigenvalues --   -0.48336  -0.47786  -0.45625  -0.43295  -0.42489
  Beta  occ. eigenvalues --   -0.40018  -0.38771  -0.37194  -0.37112  -0.35203
  Beta  occ. eigenvalues --   -0.34728  -0.34031  -0.33264  -0.33106  -0.32360
  Beta  occ. eigenvalues --   -0.31073  -0.30722  -0.30285  -0.29482  -0.28670
  Beta  occ. eigenvalues --   -0.27802  -0.26694  -0.25633  -0.25364  -0.23910
  Beta  occ. eigenvalues --   -0.23003  -0.21721  -0.20756  -0.17712  -0.17114
  Beta  occ. eigenvalues --   -0.16620  -0.15038  -0.14778  -0.13599  -0.13389
  Beta  occ. eigenvalues --   -0.10898
  Beta virt. eigenvalues --    0.06324   0.06576   0.07722   0.07850   0.08111
  Beta virt. eigenvalues --    0.08726   0.08994   0.09145   0.09396   0.09553
  Beta virt. eigenvalues --    0.09705   0.10910   0.11161   0.11266   0.11342

 Mulliken charges and spin densities:
               1          2
     1  C    0.939351  -1.215675
     2  N    0.072309   0.112944
     3  C   -0.134372   0.070092
     4  C    0.409607  -0.181630
     5  C   -0.001789  -0.111252
     6  N   -0.258705   0.090693
     7  S   -0.988766  -0.125716
     8  C    0.072148   0.073025
     9  C    0.688002   0.043447
    10  C   -0.043759   0.214794
    11  C    0.211808  -0.007988
    12  C   -0.519468  -0.136182
    13  C   -0.200989  -0.079546
    14  C   -0.267247  -0.075557
    15  C   -0.164256  -0.050532
    16  C   -0.668112  -0.030085
    17  N    0.389625   0.130844
    18  C   -0.663209   0.060251
    19  N   -0.334856   0.027656
    20  N   -0.210288  -0.003321
    21  H   -0.137552   0.307299
    22  H   -0.090491   0.260740
    23  H   -0.549241   0.702161
    24  H   -0.162312   0.349786
    25  H    0.148162   0.004704
    26  H    0.194456  -0.030345
    27  H    0.162380  -0.006276
    28  H    0.086938   0.050521
    29  H    0.126766   0.015668
    30  H    0.054094   0.083231
    31  H    0.033022   0.133840
    32  H    0.118618   0.003394
    33  H   -0.097335   0.288428
    34  H    0.150846  -0.016358
    35  H    0.170331   0.013633
    36  H    0.227151   0.012274
    37  H    0.237134   0.021038
 Sum of Mulliken charges =  -1.00000   1.00000

 Dipole moment (field-independent basis, Debye):
    X=              2.7876    Y=              0.1648    Z=              3.4072  Tot=              4.4053
 Quadrupole moment (field-independent basis, Debye-Ang):
   XX=           -192.9719   YY=           -176.7587   ZZ=           -150.3128
   XY=            -25.1286   XZ=             -4.1028   YZ=             -0.9209

 Summary of Natural Population Analysis:

                                       Natural Population
                Natural  -----------------------------------------------
    Atom  No    Charge         Core      Valence    Rydberg      Total
 -----------------------------------------------------------------------
      C    1   -0.17096      0.99964     2.16307    0.00825     3.17096
      N    2   -0.10392      0.99966     2.59183    0.01243     3.60392
      C    3    0.01149      0.99946     1.97675    0.01229     2.98851
      C    4   -0.15345      0.99940     2.13990    0.01414     3.15345
      C    5   -0.00107      0.99954     1.98698    0.01454     3.00107
      N    6   -0.15610      0.99973     2.64457    0.01179     3.65610
      S    7    0.11911      4.99946     2.86139    0.02004     7.88089
      C    8    0.04793      0.99942     1.93498    0.01768     2.95207
      C    9   -0.06896      0.99934     2.05886    0.01076     3.06896
      C   10   -0.01549      0.99944     2.00629    0.00976     3.01549
      C   11   -0.05901      0.99947     2.04949    0.01005     3.05901
      C   12   -0.19284      0.99961     2.18312    0.01011     3.19284
      C   13   -0.18919      0.99964     2.18091    0.00864     3.18919
      C   14   -0.18831      0.99964     2.18019    0.00848     3.18831
      C   15   -0.20500      0.99960     2.19525    0.01014     3.20500
      C   16    0.15162      0.99948     1.83538    0.01353     2.84838
      N   17   -0.22854      0.99961     2.71605    0.01289     3.72854
      C   18    0.22319      0.99963     1.75931    0.01786     2.77681
      N   19   -0.36158      0.99971     2.85378    0.00809     3.86158
      N   20   -0.39955      0.99970     2.89168    0.00817     3.89955
      H   21    0.10494      0.00000     0.39357    0.00149     0.39506
      H   22    0.09745      0.00000     0.40142    0.00113     0.40255
      H   23    0.10408      0.00000     0.39370    0.00221     0.39592
      H   24    0.10873      0.00000     0.38986    0.00141     0.39127
      H   25    0.09905      0.00000     0.40003    0.00092     0.40095
      H   26    0.09577      0.00000     0.40338    0.00086     0.40423
      H   27    0.09597      0.00000     0.40296    0.00107     0.40403
      H   28    0.09957      0.00000     0.39918    0.00124     0.40043
      H   29    0.09370      0.00000     0.40552    0.00078     0.40630
      H   30    0.09532      0.00000     0.40351    0.00118     0.40468
      H   31    0.09692      0.00000     0.40219    0.00088     0.40308
      H   32    0.09122      0.00000     0.40776    0.00102     0.40878
      H   33    0.10602      0.00000     0.39205    0.00193     0.39398
      H   34    0.10809      0.00000     0.39076    0.00116     0.39191
      H   35    0.16501      0.00000     0.33258    0.00241     0.33499
      H   36    0.19266      0.00000     0.30515    0.00219     0.30734
      H   37    0.18615      0.00000     0.31148    0.00237     0.31385
 =======================================================================
   * Total *    0.00004     23.99119    51.74489    0.26388    75.99996

 Normal termination of Gaussian 16 at Mon Dec 14 19:38:13 2020.
