 Gaussian 16, Revision A.03,

 -----------------------------------------------------------
 # opt freq B3LYP/6-31G(d) empiricaldispersion=gd3bj scf=xqc
 -----------------------------------------------------------

 ------------------------------
 CID_130786145_JID_591_neutraal
 ------------------------------
 Symbolic Z-matrix:
 Charge =  0 Multiplicity = 1

 SCF Done:  E(RB3LYP) =  -425.371860844     A.U. after   15 cycles
 SCF Done:  E(RB3LYP) =  -425.372533885     A.U. after   13 cycles
 SCF Done:  E(RB3LYP) =  -425.373251853     A.U. after   13 cycles
 SCF Done:  E(RB3LYP) =  -425.375138011     A.U. after   13 cycles
 SCF Done:  E(RB3LYP) =  -425.375274204     A.U. after   12 cycles
 SCF Done:  E(RB3LYP) =  -425.375361041     A.U. after   12 cycles
 SCF Done:  E(RB3LYP) =  -425.375397237     A.U. after   11 cycles
 SCF Done:  E(RB3LYP) =  -425.375428172     A.U. after   12 cycles
 SCF Done:  E(RB3LYP) =  -425.375434934     A.U. after   11 cycles
 SCF Done:  E(RB3LYP) =  -425.375437740     A.U. after   10 cycles
 SCF Done:  E(RB3LYP) =  -425.375438897     A.U. after   10 cycles
 SCF Done:  E(RB3LYP) =  -425.375439059     A.U. after    8 cycles
 SCF Done:  E(RB3LYP) =  -425.375439173     A.U. after    9 cycles
 SCF Done:  E(RB3LYP) =  -425.375439196     A.U. after    7 cycles
 Optimization completed.
    -- Stationary point found.

 1\1\GINC-NODE358\FOpt\RB3LYP\6-31G(d)\C9H12O1\VSC10255\08-Dec-2020\0\\
 # opt freq B3LYP/6-31G(d) empiricaldispersion=gd3bj scf=xqc\\CID_13078
 6145_JID_591_neutraal\\0,1\C,0.9516632333,0.0319330154,0.0759912662\C,
 0.4302866729,-1.327714902,-0.2823946716\C,-0.4519232904,-2.0796172507,
 0.4070690079\C,-0.9278930894,-3.4079312158,-0.1577694476\C,-0.45141588
 1,-4.5626236179,0.7070359434\O,-1.1772723448,-5.3719838951,1.237884489
 \C,-1.0336534608,-1.7414276103,1.7104280552\C,-0.427009011,-1.09854922
 44,2.7311340396\C,-1.0731506271,-0.8199146938,4.0000430427\C,-0.475941

 Normal termination of Gaussian 16 at Tue Dec  8 12:27:07 2020.

 --------------------------------------------------------------------
 #N Geom=AllCheck Guess=TCheck SCRF=Check GenChk RB3LYP/6-31G(d) Freq
 --------------------------------------------------------------------

 Structure from the checkpoint file:  "JID_591.chk"
 ------------------------------
 CID_130786145_JID_591_neutraal
 ------------------------------
 Charge =  0 Multiplicity = 1

 SCF Done:  E(RB3LYP) =  -425.375439196     A.U. after    1 cycles

  Exact polarizability: 140.670 -19.872 113.406 -14.477 -11.049  67.774
 Approx polarizability: 207.714 -33.287 171.179 -33.065 -20.539 105.121

                      1                      2                      3
                      A                      A                      A
 Frequencies --     41.0919                50.4344                65.4794
 Red. masses --      7.4131                 3.4255                 2.4272
 Frc consts  --      0.0074                 0.0051                 0.0061
 IR Inten    --      3.3636                 2.9947                 1.9737

                      4                      5                      6
                      A                      A                      A
 Frequencies --    107.4899               139.7957               162.3793
 Red. masses --      2.7915                 1.6670                 2.5402
 Frc consts  --      0.0190                 0.0192                 0.0395
 IR Inten    --      0.0464                 2.3304                 1.0493

                      7                      8                      9
                      A                      A                      A
 Frequencies --    205.7305               244.1101               283.6969
 Red. masses --      2.0764                 1.9737                 1.9406
 Frc consts  --      0.0518                 0.0693                 0.0920
 IR Inten    --      0.2519                 0.7677                 1.2685

                     10                     11                     12
                      A                      A                      A
 Frequencies --    315.5751               339.9387               390.4916
 Red. masses --      2.8543                 2.7203                 3.1509
 Frc consts  --      0.1675                 0.1852                 0.2831
 IR Inten    --      6.1268                 2.9818                 2.1930

                     13                     14                     15
                      A                      A                      A
 Frequencies --    449.0065               507.6837               581.3974
 Red. masses --      4.2038                 2.3542                 2.1141
 Frc consts  --      0.4993                 0.3575                 0.4210
 IR Inten    --      8.3672                 5.1323                 3.5801

                     16                     17                     18
                      A                      A                      A
 Frequencies --    609.6219               692.7319               826.2971
 Red. masses --      2.3675                 1.9373                 1.4096
 Frc consts  --      0.5184                 0.5477                 0.5671
 IR Inten    --      7.1117                 5.4357                 7.9491

                     19                     20                     21
                      A                      A                      A
 Frequencies --    831.8374               873.2952               897.1843
 Red. masses --      1.5461                 2.5613                 1.8619
 Frc consts  --      0.6303                 1.1509                 0.8830
 IR Inten    --      5.8787                 5.2430                 4.7065

                     22                     23                     24
                      A                      A                      A
 Frequencies --    926.3501               966.7525               988.0550
 Red. masses --      1.3873                 1.5158                 1.1961
 Frc consts  --      0.7014                 0.8347                 0.6880
 IR Inten    --     31.6676                 1.6588                 7.2966

                     25                     26                     27
                      A                      A                      A
 Frequencies --   1014.2229              1055.0086              1059.1784
 Red. masses --      1.7082                 1.1144                 2.2634
 Frc consts  --      1.0353                 0.7308                 1.4960
 IR Inten    --      1.2565                25.9210                33.4055

                     28                     29                     30
                      A                      A                      A
 Frequencies --   1071.5252              1079.8783              1097.4098
 Red. masses --      1.6546                 2.2248                 2.4043
 Frc consts  --      1.1193                 1.5286                 1.7060
 IR Inten    --      3.6691                13.1736                 1.1870

                     31                     32                     33
                      A                      A                      A
 Frequencies --   1182.3462              1220.5584              1238.9427
 Red. masses --      1.8812                 1.9205                 1.4326
 Frc consts  --      1.5495                 1.6857                 1.2957
 IR Inten    --      6.6733                 8.9301                 5.1442

                     34                     35                     36
                      A                      A                      A
 Frequencies --   1306.1304              1316.0540              1334.0845
 Red. masses --      1.3756                 1.4032                 1.4073
 Frc consts  --      1.3827                 1.4319                 1.4757
 IR Inten    --      0.5345                 1.2604                 1.7816

                     37                     38                     39
                      A                      A                      A
 Frequencies --   1362.8704              1408.2509              1430.8448
 Red. masses --      1.3057                 1.4101                 1.1845
 Frc consts  --      1.4290                 1.6477                 1.4288
 IR Inten    --      3.0465                 4.6536                 5.3898

                     40                     41                     42
                      A                      A                      A
 Frequencies --   1443.8233              1477.8451              1486.1187
 Red. masses --      1.2935                 1.2766                 1.1038
 Frc consts  --      1.5887                 1.6427                 1.4363
 IR Inten    --      1.9881                 0.8884                 7.7431

                     43                     44                     45
                      A                      A                      A
 Frequencies --   1516.2375              1519.8919              1676.5727
 Red. masses --      1.0605                 1.0503                 4.8123
 Frc consts  --      1.4365                 1.4296                 7.9697
 IR Inten    --      7.2737                 5.0998                 8.5684

                     46                     47                     48
                      A                      A                      A
 Frequencies --   1699.8249              1726.2766              1835.3762
 Red. masses --      5.0565                 5.1430                 9.7877
 Frc consts  --      8.6082                 9.0300                19.4259
 IR Inten    --      2.9474                 0.6883               182.8645

                     49                     50                     51
                      A                      A                      A
 Frequencies --   2904.2388              3029.3576              3045.5677
 Red. masses --      1.0843                 1.0454                 1.0589
 Frc consts  --      5.3887                 5.6527                 5.7871
 IR Inten    --    102.0637                24.3038                16.1497

                     52                     53                     54
                      A                      A                      A
 Frequencies --   3084.0064              3101.0149              3128.2227
 Red. masses --      1.0911                 1.1038                 1.0983
 Frc consts  --      6.1140                 6.2540                 6.3324
 IR Inten    --     28.2725                12.2484                 2.8130

                     55                     56                     57
                      A                      A                      A
 Frequencies --   3135.4760              3153.2407              3155.2696
 Red. masses --      1.0875                 1.0897                 1.0809
 Frc consts  --      6.2994                 6.3837                 6.3402
 IR Inten    --     17.7751                28.3915                15.4503

                     58                     59                     60
                      A                      A                      A
 Frequencies --   3166.3186              3183.8142              3250.2560
 Red. masses --      1.0689                 1.0883                 1.1155
 Frc consts  --      6.3140                 6.4994                 6.9433
 IR Inten    --      5.0439                14.0550                14.4743

 - Thermochemistry -
 -------------------
 Temperature   298.150 Kelvin.  Pressure   1.00000 Atm.
 Atom     1 has atomic number  6 and mass  12.00000

 Molecular mass:   136.08882 amu.
 Principal axes and moments of inertia in atomic units:
                           1         2         3
     Eigenvalues --  1237.514662239.299233277.92054
           X            0.99922  -0.03890  -0.00691
           Y            0.03877   0.99909  -0.01776
           Z            0.00759   0.01748   0.99982
 This molecule is an asymmetric top.
 Rotational symmetry number  1.
 Warning -- assumption of classical behavior for rotation
           may cause significant error
 Rotational temperatures (Kelvin)      0.06999     0.03868     0.02642
 Rotational constants (GHZ):           1.45836     0.80594     0.55058
 Zero-point vibrational energy     486835.2 (Joules/Mol)
                                  116.35640 (Kcal/Mol)
 Warning -- explicit consideration of  16 degrees of freedom as
           vibrations may cause significant error
 Vibrational temperatures:     59.12    72.56    94.21   154.65   201.13
          (Kelvin)            233.63   296.00   351.22   408.18   454.04
                              489.10   561.83   646.02   730.44   836.50
                              877.11   996.69  1188.86  1196.83  1256.48
                             1290.85  1332.81  1390.94  1421.59  1459.24
                             1517.92  1523.92  1541.69  1553.70  1578.93
                             1701.13  1756.11  1782.56  1879.23  1893.51
                             1919.45  1960.87  2026.16  2058.67  2077.34
                             2126.29  2138.19  2181.53  2186.79  2412.21
                             2445.67  2483.73  2640.70  4178.55  4358.57
                             4381.89  4437.20  4461.67  4500.81  4511.25
                             4536.81  4539.73  4555.63  4580.80  4676.39

 Zero-point correction=                           0.185426 (Hartree/Particle)
 Thermal correction to Energy=                    0.196949
 Thermal correction to Enthalpy=                  0.197894
 Thermal correction to Gibbs Free Energy=         0.146819
 Sum of electronic and zero-point Energies=           -425.190013
 Sum of electronic and thermal Energies=              -425.178490
 Sum of electronic and thermal Enthalpies=            -425.177546
 Sum of electronic and thermal Free Energies=         -425.228620

                     E (Thermal)             CV                S
                      KCal/Mol        Cal/Mol-Kelvin    Cal/Mol-Kelvin
 Total                  123.588             40.451            107.496
 Electronic               0.000              0.000              0.000
 Translational            0.889              2.981             40.637
 Rotational               0.889              2.981             30.586
 Vibrational            121.810             34.489             36.273
 Vibration     1          0.594              1.981              5.206
 Vibration     2          0.595              1.977              4.800
 Vibration     3          0.597              1.971              4.285
 Vibration     4          0.606              1.943              3.314
 Vibration     5          0.615              1.914              2.807
 Vibration     6          0.622              1.889              2.522
 Vibration     7          0.640              1.832              2.081
 Vibration     8          0.659              1.773              1.773
 Vibration     9          0.682              1.704              1.511
 Vibration    10          0.703              1.644              1.333
 Vibration    11          0.720              1.596              1.212
 Vibration    12          0.758              1.491              0.998
 Vibration    13          0.808              1.363              0.799
 Vibration    14          0.863              1.233              0.639
 Vibration    15          0.938              1.072              0.483
 Vibration    16          0.969              1.011              0.433

                           ! Non-Optimized Parameters !

 1\1\GINC-NODE358\Freq\RB3LYP\6-31G(d)\C9H12O1\VSC10255\08-Dec-2020\0\\
 #N Geom=AllCheck Guess=TCheck SCRF=Check GenChk RB3LYP/6-31G(d) Freq\\
 CID_130786145_JID_591_neutraal\\0,1\C,0.9516632333,0.0319330154,0.0759
 912662\C,0.4302866729,-1.327714902,-0.2823946716\C,-0.4519232904,-2.07
 96172507,0.4070690079\C,-0.9278930894,-3.4079312158,-0.1577694476\C,-0
 .451415881,-4.5626236179,0.7070359434\O,-1.1772723448,-5.3719838951,1.
 237884489\C,-1.0336534608,-1.7414276103,1.7104280552\C,-0.427009011,-1
 .0985492244,2.7311340396\C,-1.0731506271,-0.8199146938,4.0000430427\C,

 Normal termination of Gaussian 16 at Tue Dec  8 12:32:49 2020.

 ----------------------------------------------------------------------
 # B3LYP/6-311++G(d,p) empiricaldispersion=gd3bj scf=xqc pop=npa geom=c
 heck
 ----------------------------------------------------------------------

 --------------------------------------
 CID_130786145_JID_591_Energie_neutraal
 --------------------------------------
 Structure from the checkpoint file:  "JID_591.chk"
 Charge =  0 Multiplicity = 1

 SCF Done:  E(RB3LYP) =  -425.499883435     A.U. after   14 cycles
 Normal termination of Gaussian 16 at Tue Dec  8 12:41:00 2020.

 ----------------------------------------------------------------------
 # B3LYP/6-311++G(d,p) empiricaldispersion=gd3bj scf=xqc pop=npa geom=c
 heck
 ----------------------------------------------------------------------

 ------------------------------------
 CID_130786145_JID_591_Energie_kation
 ------------------------------------
 Structure from the checkpoint file:  "JID_591.chk"
 Charge =  1 Multiplicity = 2

 SCF Done:  E(UB3LYP) =  -425.207367015     A.U. after   21 cycles
 Normal termination of Gaussian 16 at Tue Dec  8 12:49:35 2020.
 Gaussian 16:  ES64L-G16RevA.03 25-Dec-2016

 -----------------------------------
 CID_130786145_JID_591_Energie_anion
 -----------------------------------
 Structure from the checkpoint file:  "JID_591.chk"
 Charge = -1 Multiplicity = 2

                         Standard orientation:
 ---------------------------------------------------------------------
 Center     Atomic      Atomic             Coordinates (Angstroms)
 Number     Number       Type             X           Y           Z
 ---------------------------------------------------------------------
      1          6           0        0.488854    2.829728   -0.216066
      2          6           0       -0.747301    1.992778   -0.073406
      3          6           0       -0.828211    0.701207    0.306476
      4          6           0       -2.185749    0.038454    0.473373
      5          6           0       -2.378651   -1.061004   -0.557265
      6          8           0       -2.606159   -2.219960   -0.294980
      7          6           0        0.307432   -0.182521    0.590851
      8          6           0        1.504362   -0.197492   -0.033877
      9          6           0        2.571120   -1.122729    0.299634
     10          6           0        3.758286   -1.158654   -0.324634
     11          1           0        1.324460    2.423300    0.361183
     12          1           0        0.295909    3.854774    0.121154
     13          1           0        0.815099    2.899712   -1.263740
     14          1           0       -1.686585    2.510086   -0.267754
     15          1           0       -2.296460   -0.410564    1.467338
     16          1           0       -2.984025    0.779450    0.334884
     17          1           0       -2.277272   -0.718622   -1.612036
     18          1           0        0.127240   -0.941211    1.354559
     19          1           0        1.696945    0.490417   -0.854295
     20          1           0        2.370123   -1.822143    1.111138
     21          1           0        4.530435   -1.868259   -0.044910
     22          1           0        3.992552   -0.475858   -1.138199
 ---------------------------------------------------------------------

 SCF Done:  E(UB3LYP) =  -425.507167214     A.U. after   28 cycles

 The electronic state is 2-A.
 Alpha  occ. eigenvalues --  -18.97206 -10.10668 -10.03840 -10.03267 -10.02628
 Alpha  occ. eigenvalues --  -10.02245 -10.00960 -10.00839 -10.00592 -10.00576
 Alpha  occ. eigenvalues --   -0.90440  -0.68200  -0.64346  -0.60912  -0.57998
 Alpha  occ. eigenvalues --   -0.52269  -0.46476  -0.43612  -0.40678  -0.37706
 Alpha  occ. eigenvalues --   -0.33714  -0.33127  -0.30300  -0.29634  -0.29084
 Alpha  occ. eigenvalues --   -0.28020  -0.27513  -0.25417  -0.24173  -0.23070
 Alpha  occ. eigenvalues --   -0.21972  -0.20944  -0.18596  -0.17803  -0.13238
 Alpha  occ. eigenvalues --   -0.11156  -0.07107   0.05028
 Alpha virt. eigenvalues --    0.08944   0.09832   0.10206   0.10339   0.11290
 Alpha virt. eigenvalues --    0.11887   0.12213   0.13264   0.13925   0.14283
 Alpha virt. eigenvalues --    0.15192   0.15327   0.16293   0.16853   0.17905

  Beta  occ. eigenvalues --  -18.96989 -10.10516 -10.03849 -10.03292 -10.02620
  Beta  occ. eigenvalues --  -10.02238 -10.00684 -10.00609 -10.00366 -10.00270
  Beta  occ. eigenvalues --   -0.90042  -0.67811  -0.63905  -0.60622  -0.57581
  Beta  occ. eigenvalues --   -0.51965  -0.45753  -0.43216  -0.40381  -0.37358
  Beta  occ. eigenvalues --   -0.33536  -0.32891  -0.30020  -0.29362  -0.28901
  Beta  occ. eigenvalues --   -0.27708  -0.27252  -0.25131  -0.23692  -0.22811
  Beta  occ. eigenvalues --   -0.21716  -0.20600  -0.18243  -0.16681  -0.12383
  Beta  occ. eigenvalues --   -0.10558  -0.05333
  Beta virt. eigenvalues --    0.08901   0.09792   0.10093   0.10407   0.11114
  Beta virt. eigenvalues --    0.11822   0.12128   0.12332   0.13279   0.13905
  Beta virt. eigenvalues --    0.14218   0.15249   0.15687   0.16631   0.17073

 Mulliken charges and spin densities:
               1          2
     1  C   -0.736901  -0.023859
     2  C   -0.000953   0.181119
     3  C    0.754596   0.001692
     4  C   -0.152125  -0.136210
     5  C   -0.301790   0.181411
     6  O   -0.292229   0.065063
     7  C   -0.543286   0.248498
     8  C   -0.421798   0.190545
     9  C    0.206425  -0.065114
    10  C   -0.682723   0.325526
    11  H    0.147361  -0.004362
    12  H    0.090805   0.004503
    13  H    0.116746   0.026410
    14  H    0.112620  -0.017424
    15  H    0.126140   0.012842
    16  H    0.051280   0.068978
    17  H    0.058435  -0.011054
    18  H    0.153654  -0.008819
    19  H    0.068419  -0.010886
    20  H    0.081360  -0.000417
    21  H    0.091834  -0.014845
    22  H    0.072129  -0.013595
 Sum of Mulliken charges =  -1.00000   1.00000

 Dipole moment (field-independent basis, Debye):
    X=             -0.9270    Y=              3.0667    Z=              0.1065  Tot=              3.2055
 Quadrupole moment (field-independent basis, Debye-Ang):
   XX=           -100.2929   YY=            -87.2748   ZZ=            -69.4506
   XY=             -3.9531   XZ=              0.8161   YZ=             -4.2943

 Summary of Natural Population Analysis:

                                       Natural Population
                Natural  -----------------------------------------------
    Atom  No    Charge         Core      Valence    Rydberg      Total
 -----------------------------------------------------------------------
      C    1   -0.30557      0.99966     2.30098    0.00493     3.30557
      C    2   -0.02556      0.99948     2.01781    0.00827     3.02556
      C    3   -0.03892      0.99947     2.02698    0.01247     3.03892
      C    4   -0.23747      0.99959     2.22826    0.00962     3.23747
      C    5    0.24994      0.99974     1.72969    0.02062     2.75006
      O    6   -0.27050      0.99987     3.26247    0.00815     4.27050
      C    7   -0.07774      0.99951     2.06907    0.00916     3.07774
      C    8   -0.06702      0.99951     2.05837    0.00913     3.06702
      C    9   -0.10659      0.99957     2.09733    0.00970     3.10659
      C   10   -0.14679      0.99960     2.13829    0.00890     3.14679
      H   11    0.10695      0.00000     0.39196    0.00109     0.39305
      H   12    0.09069      0.00000     0.40822    0.00109     0.40931
      H   13    0.09762      0.00000     0.40107    0.00132     0.40238
      H   14    0.07735      0.00000     0.42122    0.00143     0.42265
      H   15    0.09880      0.00000     0.39850    0.00270     0.40120
      H   16    0.10290      0.00000     0.39535    0.00175     0.39710
      H   17    0.03719      0.00000     0.46046    0.00235     0.46281
      H   18    0.08602      0.00000     0.41249    0.00149     0.41398
      H   19    0.08525      0.00000     0.41290    0.00185     0.41475
      H   20    0.08434      0.00000     0.41398    0.00168     0.41566
      H   21    0.07993      0.00000     0.41902    0.00105     0.42007
      H   22    0.07919      0.00000     0.41967    0.00114     0.42081
 =======================================================================
   * Total *    0.00000      9.99599    26.88411    0.11990    37.00000

 Normal termination of Gaussian 16 at Tue Dec  8 13:04:42 2020.
