 Gaussian 16, Revision A.03,

 -----------------------------------------------------------
 # opt freq B3LYP/6-31G(d) empiricaldispersion=gd3bj scf=xqc
 -----------------------------------------------------------

 -------------------------------
 CID_146614600_JID_6163_neutraal
 -------------------------------
 Symbolic Z-matrix:
 Charge =  0 Multiplicity = 1

 SCF Done:  E(RB3LYP) =  -764.070435526     A.U. after   15 cycles
 SCF Done:  E(RB3LYP) =  -764.076548206     A.U. after   12 cycles
 SCF Done:  E(RB3LYP) =  -764.077220930     A.U. after   12 cycles
 SCF Done:  E(RB3LYP) =  -764.077328817     A.U. after   12 cycles
 SCF Done:  E(RB3LYP) =  -764.077536826     A.U. after   11 cycles
 SCF Done:  E(RB3LYP) =  -764.077573557     A.U. after   10 cycles
 SCF Done:  E(RB3LYP) =  -764.077605901     A.U. after   10 cycles
 SCF Done:  E(RB3LYP) =  -764.077614824     A.U. after   10 cycles
 SCF Done:  E(RB3LYP) =  -764.077620488     A.U. after    9 cycles
 SCF Done:  E(RB3LYP) =  -764.077622007     A.U. after    8 cycles
 SCF Done:  E(RB3LYP) =  -764.077622250     A.U. after    7 cycles
 SCF Done:  E(RB3LYP) =  -764.077622392     A.U. after    7 cycles
 SCF Done:  E(RB3LYP) =  -764.077622535     A.U. after    7 cycles
 SCF Done:  E(RB3LYP) =  -764.077622605     A.U. after    7 cycles
 SCF Done:  E(RB3LYP) =  -764.077622635     A.U. after    7 cycles
 Optimization completed.
    -- Stationary point found.
 Normal termination of Gaussian 16 at Thu Dec 10 21:47:34 2020.

 --------------------------------------------------------------------
 #N Geom=AllCheck Guess=TCheck SCRF=Check GenChk RB3LYP/6-31G(d) Freq
 --------------------------------------------------------------------

 Structure from the checkpoint file:  "JID_6163.chk"
 -------------------------------
 CID_146614600_JID_6163_neutraal
 -------------------------------
 Charge =  0 Multiplicity = 1

 SCF Done:  E(RB3LYP) =  -764.077622635     A.U. after    1 cycles

  Exact polarizability: 160.250   0.249 150.743  -0.852  -0.564  90.181
 Approx polarizability: 206.363  -1.547 258.664   1.702  -2.346 134.416

                      1                      2                      3
                      A                      A                      A
 Frequencies --     47.1863                55.5289                87.4466
 Red. masses --      3.8189                 3.1253                 4.7628
 Frc consts  --      0.0050                 0.0057                 0.0215
 IR Inten    --      0.1333                 1.6209                 1.3590

                      4                      5                      6
                      A                      A                      A
 Frequencies --    115.7338               121.0577               148.9440
 Red. masses --      3.5292                 2.0228                 1.3081
 Frc consts  --      0.0279                 0.0175                 0.0171
 IR Inten    --      6.3389                 0.7209                 0.1942

                      7                      8                      9
                      A                      A                      A
 Frequencies --    179.9177               197.6049               228.7719
 Red. masses --      2.2331                 3.5386                 1.7727
 Frc consts  --      0.0426                 0.0814                 0.0547
 IR Inten    --      1.0365                 0.7847                 0.6685

                     10                     11                     12
                      A                      A                      A
 Frequencies --    236.4150               241.5946               259.8056
 Red. masses --      1.1370                 1.9730                 2.8302
 Frc consts  --      0.0374                 0.0679                 0.1126
 IR Inten    --      0.3835                 2.5665                 2.3718

                     13                     14                     15
                      A                      A                      A
 Frequencies --    285.7628               297.7821               345.1856
 Red. masses --      3.7543                 3.3648                 2.7070
 Frc consts  --      0.1806                 0.1758                 0.1900
 IR Inten    --      6.1363                 2.5611                 3.9275

                     16                     17                     18
                      A                      A                      A
 Frequencies --    377.9693               422.0718               439.9347
 Red. masses --      3.3101                 3.6258                 4.9546
 Frc consts  --      0.2786                 0.3806                 0.5650
 IR Inten    --      4.0607                 0.5164                28.6551

                     19                     20                     21
                      A                      A                      A
 Frequencies --    449.9340               455.7071               485.0207
 Red. masses --      6.7226                 4.0619                 3.5112
 Frc consts  --      0.8018                 0.4970                 0.4867
 IR Inten    --     21.9119                 0.2849                 2.0411

                     22                     23                     24
                      A                      A                      A
 Frequencies --    503.4452               549.6189               574.4879
 Red. masses --      4.8236                 3.9601                 4.2868
 Frc consts  --      0.7203                 0.7048                 0.8336
 IR Inten    --      3.1761                 1.2139                 1.0921

                     25                     26                     27
                      A                      A                      A
 Frequencies --    608.1680               660.4865               750.5304
 Red. masses --      3.0292                 5.7068                 8.8897
 Frc consts  --      0.6601                 1.4668                 2.9504
 IR Inten    --      1.4703                13.6148                 2.5655

                     28                     29                     30
                      A                      A                      A
 Frequencies --    755.2895               782.3678               832.9166
 Red. masses --      7.9763                 4.0683                 3.9148
 Frc consts  --      2.6809                 1.4672                 1.6002
 IR Inten    --     25.2464                 2.9143                 4.3504

                     31                     32                     33
                      A                      A                      A
 Frequencies --    876.5854               922.0445               937.3271
 Red. masses --      2.6237                 2.8971                 2.7451
 Frc consts  --      1.1878                 1.4512                 1.4210
 IR Inten    --      5.5192                 5.6594                16.4151

                     34                     35                     36
                      A                      A                      A
 Frequencies --    956.1534               968.1638               988.9957
 Red. masses --      1.2013                 1.4257                 2.6329
 Frc consts  --      0.6471                 0.7874                 1.5173
 IR Inten    --      2.5449                 0.0861                 9.7281

                     37                     38                     39
                      A                      A                      A
 Frequencies --   1019.0074              1026.9015              1071.4674
 Red. masses --      2.8287                 1.8754                 2.7915
 Frc consts  --      1.7306                 1.1652                 1.8882
 IR Inten    --     13.4652                 1.1879                26.5519

                     40                     41                     42
                      A                      A                      A
 Frequencies --   1114.0666              1115.1997              1120.9361
 Red. masses --      2.2342                 2.3633                 2.4344
 Frc consts  --      1.6338                 1.7317                 1.8022
 IR Inten    --     51.3096                26.4885                10.0664

                     43                     44                     45
                      A                      A                      A
 Frequencies --   1161.1822              1170.4754              1172.4274
 Red. masses --      1.2828                 5.1949                 2.3235
 Frc consts  --      1.0191                 4.1932                 1.8818
 IR Inten    --      2.2199                61.1161                 6.2865

                     46                     47                     48
                      A                      A                      A
 Frequencies --   1207.1013              1230.2687              1245.6688
 Red. masses --      2.3343                 1.5089                 2.5043
 Frc consts  --      2.0040                 1.3456                 2.2895
 IR Inten    --     27.8795                 1.6303                 8.4579

                     49                     50                     51
                      A                      A                      A
 Frequencies --   1253.1643              1282.7245              1291.2704
 Red. masses --      1.5170                 3.6337                 1.7201
 Frc consts  --      1.4036                 3.5226                 1.6898
 IR Inten    --      1.1862                52.0523                16.1789

                     52                     53                     54
                      A                      A                      A
 Frequencies --   1333.9047              1372.3758              1384.2051
 Red. masses --      1.2320                 2.7713                 1.7666
 Frc consts  --      1.2916                 3.0752                 1.9943
 IR Inten    --      4.4992               105.3144                71.5892

                     55                     56                     57
                      A                      A                      A
 Frequencies --   1396.9350              1400.2948              1425.2811
 Red. masses --      1.5170                 1.2629                 1.3050
 Frc consts  --      1.7441                 1.4590                 1.5619
 IR Inten    --     30.6159                 0.6173                12.4863

                     58                     59                     60
                      A                      A                      A
 Frequencies --   1432.5051              1438.5934              1449.5276
 Red. masses --      1.4326                 1.2683                 1.3661
 Frc consts  --      1.7321                 1.5465                 1.6911
 IR Inten    --     48.5535                53.5756                18.0498

                     61                     62                     63
                      A                      A                      A
 Frequencies --   1469.9866              1489.8724              1506.5743
 Red. masses --      1.3706                 2.3218                 1.0963
 Frc consts  --      1.7450                 3.0366                 1.4661
 IR Inten    --     47.2474               102.4569                 2.0984

                     64                     65                     66
                      A                      A                      A
 Frequencies --   1511.4861              1512.6051              1524.7143
 Red. masses --      1.2565                 1.0427                 1.0532
 Frc consts  --      1.6912                 1.4057                 1.4426
 IR Inten    --     39.0671                 0.3000                19.9728

                     67                     68                     69
                      A                      A                      A
 Frequencies --   1530.4886              1532.8100              1533.8871
 Red. masses --      1.1261                 1.0808                 1.0505
 Frc consts  --      1.5541                 1.4962                 1.4562
 IR Inten    --     23.1003                26.7893                 0.7589

                     70                     71                     72
                      A                      A                      A
 Frequencies --   1544.3943              1550.9626              1706.5530
 Red. masses --      1.0887                 1.0566                 8.5681
 Frc consts  --      1.5300                 1.4975                14.7019
 IR Inten    --     34.5707                 9.4199                44.8301

                     73                     74                     75
                      A                      A                      A
 Frequencies --   1744.3554              1784.2800              2956.3846
 Red. masses --     11.6000                10.6216                 1.0726
 Frc consts  --     20.7959                19.9234                 5.5233
 IR Inten    --    631.3334               220.9808                42.7443

                     76                     77                     78
                      A                      A                      A
 Frequencies --   3000.3329              3051.6546              3058.9025
 Red. masses --      1.0722                 1.0660                 1.0377
 Frc consts  --      5.6869                 5.8489                 5.7209
 IR Inten    --     57.4997                21.8528                29.6344

                     79                     80                     81
                      A                      A                      A
 Frequencies --   3063.0377              3066.2049              3099.5314
 Red. masses --      1.0385                 1.0405                 1.0951
 Frc consts  --      5.7406                 5.7638                 6.1984
 IR Inten    --     24.8387                34.7265                23.4742

                     82                     83                     84
                      A                      A                      A
 Frequencies --   3100.4701              3120.0390              3123.2019
 Red. masses --      1.0886                 1.1024                 1.1020
 Frc consts  --      6.1654                 6.3227                 6.3334
 IR Inten    --      9.6672                14.8962                46.0667

                     85                     86                     87
                      A                      A                      A
 Frequencies --   3129.6305              3130.9800              3138.4492
 Red. masses --      1.0946                 1.1035                 1.0873
 Frc consts  --      6.3168                 6.3735                 6.3099
 IR Inten    --     39.6927                20.7551                10.1014

                     88                     89                     90
                      A                      A                      A
 Frequencies --   3165.0864              3172.9294              3209.5704
 Red. masses --      1.1003                 1.0969                 1.0980
 Frc consts  --      6.4945                 6.5063                 6.6640
 IR Inten    --      0.5538                12.8877                 1.4687

 - Thermochemistry -
 -------------------
 Temperature   298.150 Kelvin.  Pressure   1.00000 Atm.
 Atom     1 has atomic number  6 and mass  12.00000

 Molecular mass:   224.11609 amu.
 Principal axes and moments of inertia in atomic units:
                           1         2         3
     Eigenvalues --  1921.492464448.543855894.86301
           X            0.99995   0.00872  -0.00448
           Y           -0.00871   0.99996   0.00167
           Z            0.00449  -0.00163   0.99999
 This molecule is an asymmetric top.
 Rotational symmetry number  1.
 Warning -- assumption of classical behavior for rotation
           may cause significant error
 Rotational temperatures (Kelvin)      0.04508     0.01947     0.01469
 Rotational constants (GHZ):           0.93924     0.40569     0.30615
 Zero-point vibrational energy     710526.9 (Joules/Mol)
                                  169.82000 (Kcal/Mol)
 Warning -- explicit consideration of  25 degrees of freedom as
           vibrations may cause significant error
 Vibrational temperatures:     67.89    79.89   125.82   166.52   174.17
          (Kelvin)            214.30   258.86   284.31   329.15   340.15
                              347.60   373.80   411.15   428.44   496.65
                              543.81   607.27   632.97   647.35   655.66
                              697.84   724.35   790.78   826.56   875.02
                              950.29  1079.85  1086.69  1125.65  1198.38
                             1261.21  1326.62  1348.60  1375.69  1392.97
                             1422.94  1466.12  1477.48  1541.60  1602.89
                             1604.52  1612.78  1670.68  1684.05  1686.86
                             1736.75  1770.08  1792.24  1803.02  1845.55
                             1857.85  1919.19  1974.54  1991.56  2009.88
                             2014.71  2050.66  2061.06  2069.82  2085.55
                             2114.98  2143.59  2167.62  2174.69  2176.30
                             2193.72  2202.03  2205.37  2206.92  2222.04
                             2231.49  2455.35  2509.74  2567.18  4253.58
                             4316.81  4390.65  4401.08  4407.03  4411.58
                             4459.53  4460.88  4489.04  4493.59  4502.84
                             4504.78  4515.53  4553.85  4565.14  4617.86

 Zero-point correction=                           0.270625 (Hartree/Particle)
 Thermal correction to Energy=                    0.285873
 Thermal correction to Enthalpy=                  0.286817
 Thermal correction to Gibbs Free Energy=         0.228581
 Sum of electronic and zero-point Energies=           -763.806997
 Sum of electronic and thermal Energies=              -763.791750
 Sum of electronic and thermal Enthalpies=            -763.790806
 Sum of electronic and thermal Free Energies=         -763.849042

                     E (Thermal)             CV                S
                      KCal/Mol        Cal/Mol-Kelvin    Cal/Mol-Kelvin
 Total                  179.388             57.905            122.568
 Electronic               0.000              0.000              0.000
 Translational            0.889              2.981             42.123
 Rotational               0.889              2.981             32.288
 Vibrational            177.610             51.943             48.156
 Vibration     1          0.595              1.979              4.932
 Vibration     2          0.596              1.975              4.610
 Vibration     3          0.601              1.958              3.716
 Vibration     4          0.608              1.936              3.170
 Vibration     5          0.609              1.932              3.083
 Vibration     6          0.618              1.904              2.686
 Vibration     7          0.629              1.867              2.329
 Vibration     8          0.637              1.843              2.155
 Vibration     9          0.651              1.797              1.889
 Vibration    10          0.655              1.785              1.830
 Vibration    11          0.658              1.777              1.791
 Vibration    12          0.668              1.746              1.663
 Vibration    13          0.684              1.700              1.499
 Vibration    14          0.691              1.678              1.429
 Vibration    15          0.724              1.585              1.188
 Vibration    16          0.748              1.517              1.047
 Vibration    17          0.784              1.422              0.885
 Vibration    18          0.800              1.383              0.827
 Vibration    19          0.809              1.361              0.796
 Vibration    20          0.814              1.348              0.779
 Vibration    21          0.841              1.283              0.697
 Vibration    22          0.859              1.242              0.650
 Vibration    23          0.905              1.141              0.545
 Vibration    24          0.931              1.086              0.496
 Vibration    25          0.967              1.015              0.436

 Optimization completed.
    -- Stationary point found.
 Normal termination of Gaussian 16 at Thu Dec 10 22:01:53 2020.

 ----------------------------------------------------------------------
 # B3LYP/6-311++G(d,p) empiricaldispersion=gd3bj scf=xqc pop=npa geom=c
 heck
 ----------------------------------------------------------------------

 ---------------------------------------
 CID_146614600_JID_6163_Energie_neutraal
 ---------------------------------------
 Structure from the checkpoint file:  "JID_6163.chk"
 Charge =  0 Multiplicity = 1

 SCF Done:  E(RB3LYP) =  -764.290700108     A.U. after   14 cycles
 Normal termination of Gaussian 16 at Thu Dec 10 22:07:08 2020.

 ----------------------------------------------------------------------
 # B3LYP/6-311++G(d,p) empiricaldispersion=gd3bj scf=xqc pop=npa geom=c
 heck
 ----------------------------------------------------------------------

 -------------------------------------
 CID_146614600_JID_6163_Energie_kation
 -------------------------------------
 Structure from the checkpoint file:  "JID_6163.chk"
 Charge =  1 Multiplicity = 2

 SCF Done:  E(UB3LYP) =  -763.984821291     A.U. after   24 cycles
 Normal termination of Gaussian 16 at Thu Dec 10 22:19:12 2020.
 Gaussian 16:  ES64L-G16RevA.03 25-Dec-2016

 ----------------------------------------------------------------------
 # B3LYP/6-311++G(d,p) empiricaldispersion=gd3bj scf=xqc pop=npa geom=c
 heck
 ----------------------------------------------------------------------

 ------------------------------------
 CID_146614600_JID_6163_Energie_anion
 ------------------------------------
 Structure from the checkpoint file:  "JID_6163.chk"
 Charge = -1 Multiplicity = 2

                         Standard orientation:
 ---------------------------------------------------------------------
 Center     Atomic      Atomic             Coordinates (Angstroms)
 Number     Number       Type             X           Y           Z
 ---------------------------------------------------------------------
      1          6           0       -3.453643   -0.364709    1.271133
      2          6           0       -2.709665   -0.797122    0.005838
      3          6           0       -3.433186   -0.419298   -1.288434
      4          7           0       -1.299484   -0.311935    0.007153
      5          6           0       -0.281318   -1.296095    0.043906
      6          8           0       -0.552855   -2.492242    0.065395
      7          6           0        1.080699   -0.793052    0.048425
      8          6           0        1.313267    0.540683    0.030188
      9          6           0        2.729754    1.080288    0.039365
     10          8           0        3.688617    0.103061    0.358847
     11          6           0        3.500547   -1.106809   -0.376555
     12          6           0        2.209882   -1.788627    0.057418
     13          7           0        0.276899    1.453996   -0.024762
     14          6           0       -1.069368    1.055080   -0.023653
     15          8           0       -1.971015    1.883667   -0.049075
     16          6           0        0.535327    2.895025   -0.037878
     17          1           0       -3.601575    0.716209    1.298077
     18          1           0       -2.900895   -0.671818    2.165444
     19          1           0       -4.433489   -0.854172    1.295863
     20          1           0       -2.589833   -1.879847    0.029780
     21          1           0       -3.581536    0.659258   -1.363391
     22          1           0       -2.865872   -0.763062   -2.160055
     23          1           0       -4.412070   -0.910892   -1.308273
     24          1           0        2.835418    1.867667    0.792277
     25          1           0        2.945266    1.536493   -0.944659
     26          1           0        3.477977   -0.888172   -1.456604
     27          1           0        4.378057   -1.722782   -0.167186
     28          1           0        1.963890   -2.622583   -0.608937
     29          1           0        2.329587   -2.218903    1.060115
     30          1           0        0.929637    3.232397    0.926498
     31          1           0        1.246014    3.147665   -0.828905
     32          1           0       -0.414233    3.390032   -0.226639
 ---------------------------------------------------------------------

 SCF Done:  E(UB3LYP) =  -764.285054494     A.U. after   31 cycles

 The electronic state is 2-A.
 Alpha  occ. eigenvalues --  -19.02335 -18.98501 -18.96989 -14.25709 -14.24798
 Alpha  occ. eigenvalues --  -10.20000 -10.15218 -10.11845 -10.11286 -10.10942
 Alpha  occ. eigenvalues --  -10.10312 -10.09469 -10.06376 -10.06311 -10.06249
 Alpha  occ. eigenvalues --  -10.05458  -0.96083  -0.94028  -0.92172  -0.85700
 Alpha  occ. eigenvalues --   -0.82253  -0.70416  -0.68320  -0.66247  -0.61157
 Alpha  occ. eigenvalues --   -0.59415  -0.57530  -0.55518  -0.51524  -0.50439
 Alpha  occ. eigenvalues --   -0.47382  -0.43739  -0.40633  -0.39053  -0.38459
 Alpha  occ. eigenvalues --   -0.37102  -0.36007  -0.35337  -0.34106  -0.33695
 Alpha  occ. eigenvalues --   -0.32810  -0.31983  -0.31262  -0.30488  -0.30292
 Alpha  occ. eigenvalues --   -0.29620  -0.28849  -0.28320  -0.27388  -0.26527
 Alpha  occ. eigenvalues --   -0.25663  -0.25321  -0.24363  -0.21880  -0.20778
 Alpha  occ. eigenvalues --   -0.17628  -0.16257  -0.15791  -0.14701  -0.11260
 Alpha  occ. eigenvalues --    0.04560
 Alpha virt. eigenvalues --    0.07212   0.07375   0.08052   0.08730   0.09537
 Alpha virt. eigenvalues --    0.10075   0.10329   0.10734   0.10991   0.12029
 Alpha virt. eigenvalues --    0.12208   0.12549   0.13035   0.13106   0.13732

  Beta  occ. eigenvalues --  -19.02331 -18.98495 -18.96875 -14.25683 -14.24738
  Beta  occ. eigenvalues --  -10.19997 -10.15104 -10.11832 -10.11267 -10.10945
  Beta  occ. eigenvalues --  -10.10011 -10.09426 -10.06372 -10.06307 -10.06237
  Beta  occ. eigenvalues --  -10.05460  -0.96025  -0.94013  -0.91978  -0.85555
  Beta  occ. eigenvalues --   -0.82123  -0.70271  -0.68249  -0.66073  -0.61067
  Beta  occ. eigenvalues --   -0.59398  -0.57319  -0.55404  -0.51453  -0.50328
  Beta  occ. eigenvalues --   -0.47314  -0.43564  -0.40537  -0.38903  -0.38299
  Beta  occ. eigenvalues --   -0.37029  -0.35879  -0.35321  -0.33948  -0.33599
  Beta  occ. eigenvalues --   -0.32747  -0.31878  -0.31183  -0.30461  -0.30202
  Beta  occ. eigenvalues --   -0.29374  -0.28772  -0.28272  -0.27311  -0.26242
  Beta  occ. eigenvalues --   -0.25582  -0.25205  -0.24341  -0.21667  -0.20407
  Beta  occ. eigenvalues --   -0.17595  -0.15887  -0.15706  -0.14591  -0.10713
  Beta virt. eigenvalues --    0.06998   0.07717   0.08400   0.08752   0.09360
  Beta virt. eigenvalues --    0.10054   0.10181   0.10412   0.10977   0.11437
  Beta virt. eigenvalues --    0.12061   0.12322   0.12647   0.13044   0.13176

 Mulliken charges and spin densities:
               1          2
     1  C   -0.294379  -0.161553
     2  C   -0.295487   0.278443
     3  C   -0.336624  -0.104874
     4  N    0.166883   0.026574
     5  C   -0.470185   0.292107
     6  O   -0.356289   0.041014
     7  C    0.870314  -0.280823
     8  C   -0.686715   0.836753
     9  C    2.027610  -2.182139
    10  O   -0.173180   0.074282
    11  C    0.323974  -0.762492
    12  C   -1.195339   0.377499
    13  N   -0.334039   0.253772
    14  C   -0.470937   0.419541
    15  O   -0.330217   0.007770
    16  C    0.923406  -1.209022
    17  H    0.150103   0.035728
    18  H    0.082942   0.065779
    19  H    0.073796   0.054177
    20  H    0.191143   0.002259
    21  H    0.172356   0.010130
    22  H    0.094060   0.054004
    23  H    0.123221   0.005750
    24  H    0.012986   0.171564
    25  H   -0.593427   0.831528
    26  H   -0.191435   0.317007
    27  H    0.050636   0.125273
    28  H    0.178251  -0.023136
    29  H    0.087710   0.092732
    30  H   -0.399449   0.584019
    31  H   -0.367634   0.532747
    32  H   -0.034054   0.233586
 Sum of Mulliken charges =  -1.00000   1.00000

 Dipole moment (field-independent basis, Debye):
    X=             -4.4973    Y=             -3.6966    Z=              0.8679  Tot=              5.8859
 Quadrupole moment (field-independent basis, Debye-Ang):
   XX=           -146.7671   YY=           -144.7003   ZZ=           -120.0470
   XY=             -9.4568   XZ=              5.3172   YZ=              3.4124

 Summary of Natural Population Analysis:

                                       Natural Population
                Natural  -----------------------------------------------
    Atom  No    Charge         Core      Valence    Rydberg      Total
 -----------------------------------------------------------------------
      C    1   -0.29046      0.99964     2.28640    0.00443     3.29046
      C    2   -0.01363      0.99960     2.00312    0.01090     3.01363
      C    3   -0.29073      0.99964     2.28667    0.00442     3.29073
      N    4   -0.25111      0.99960     2.74224    0.00926     3.75111
      C    5    0.34959      0.99958     1.63000    0.02083     2.65041
      O    6   -0.32245      0.99988     3.31744    0.00513     4.32245
      C    7   -0.09863      0.99942     2.08931    0.00990     3.09863
      C    8    0.16967      0.99943     1.81991    0.01099     2.83033
      C    9   -0.02611      0.99954     2.01316    0.01341     3.02611
      O   10   -0.29590      0.99989     3.28621    0.00979     4.29590
      C   11   -0.00888      0.99959     1.99633    0.01297     3.00888
      C   12   -0.20232      0.99961     2.19475    0.00796     3.20232
      N   13   -0.23248      0.99961     2.72337    0.00949     3.73248
      C   14    0.41932      0.99966     1.55803    0.02299     2.58068
      O   15   -0.34123      0.99988     3.33642    0.00493     4.34123
      C   16   -0.18229      0.99963     2.17455    0.00810     3.18229
      H   17    0.11026      0.00000     0.38874    0.00100     0.38974
      H   18    0.10086      0.00000     0.39821    0.00093     0.39914
      H   19    0.09425      0.00000     0.40491    0.00083     0.40575
      H   20    0.11519      0.00000     0.38267    0.00214     0.38481
      H   21    0.11015      0.00000     0.38889    0.00097     0.38985
      H   22    0.10112      0.00000     0.39806    0.00082     0.39888
      H   23    0.09385      0.00000     0.40539    0.00076     0.40615
      H   24    0.09966      0.00000     0.39865    0.00168     0.40034
      H   25    0.09732      0.00000     0.39478    0.00790     0.40268
      H   26    0.08073      0.00000     0.41767    0.00159     0.41927
      H   27    0.08799      0.00000     0.41101    0.00100     0.41201
      H   28    0.10891      0.00000     0.38969    0.00140     0.39109
      H   29    0.10032      0.00000     0.39829    0.00139     0.39968
      H   30    0.09840      0.00000     0.39953    0.00207     0.40160
      H   31    0.10023      0.00000     0.39815    0.00162     0.39977
      H   32    0.11838      0.00000     0.38057    0.00104     0.38162
 =======================================================================
   * Total *   -0.00000     15.99419    43.81314    0.19266    60.00000

 Normal termination of Gaussian 16 at Thu Dec 10 22:34:33 2020.
