 Gaussian 16, Revision A.03,

 -----------------------------------------------------------
 # opt freq B3LYP/6-31G(d) empiricaldispersion=gd3bj scf=xqc
 -----------------------------------------------------------

 -------------------------------
 CID_117547379_JID_8171_neutraal
 -------------------------------
 Symbolic Z-matrix:
 Charge =  0 Multiplicity = 1

 SCF Done:  E(RB3LYP) =  -825.375011465     A.U. after   15 cycles
 SCF Done:  E(RB3LYP) =  -825.383534915     A.U. after   13 cycles
 SCF Done:  E(RB3LYP) =  -825.383697833     A.U. after   13 cycles
 SCF Done:  E(RB3LYP) =  -825.384338273     A.U. after   13 cycles
 SCF Done:  E(RB3LYP) =  -825.384446236     A.U. after   11 cycles
 SCF Done:  E(RB3LYP) =  -825.384684229     A.U. after   11 cycles
 SCF Done:  E(RB3LYP) =  -825.384692021     A.U. after   11 cycles
 SCF Done:  E(RB3LYP) =  -825.384722514     A.U. after   10 cycles
 SCF Done:  E(RB3LYP) =  -825.384725232     A.U. after   10 cycles
 SCF Done:  E(RB3LYP) =  -825.384728189     A.U. after   10 cycles
 SCF Done:  E(RB3LYP) =  -825.384728526     A.U. after    8 cycles
 SCF Done:  E(RB3LYP) =  -825.384728589     A.U. after    7 cycles
 Optimization completed.
    -- Stationary point found.
 Normal termination of Gaussian 16 at Mon Dec 14 13:20:05 2020.

 --------------------------------------------------------------------
 #N Geom=AllCheck Guess=TCheck SCRF=Check GenChk RB3LYP/6-31G(d) Freq
 --------------------------------------------------------------------

 Structure from the checkpoint file:  "JID_8171.chk"
 -------------------------------
 CID_117547379_JID_8171_neutraal
 -------------------------------
 Charge =  0 Multiplicity = 1

 SCF Done:  E(RB3LYP) =  -825.384728589     A.U. after    1 cycles

  Exact polarizability: 198.509   3.136 121.818  -1.132  10.969 139.761
 Approx polarizability: 268.411   6.207 168.056  -5.310  26.931 252.609

 ******    1 imaginary frequencies (negative Signs) ******

                      1                      2                      3
                      A                      A                      A
 Frequencies --    -41.5858                33.1862                42.4136
 Red. masses --      2.7347                 5.4705                 4.7927
 Frc consts  --      0.0028                 0.0035                 0.0051
 IR Inten    --      0.3288                 0.0270                 0.6646

                      4                      5                      6
                      A                      A                      A
 Frequencies --     60.8199                78.6700                91.5034
 Red. masses --      4.1700                 5.7910                 5.8427
 Frc consts  --      0.0091                 0.0211                 0.0288
 IR Inten    --      0.8401                 1.8423                 3.2973

                      7                      8                      9
                      A                      A                      A
 Frequencies --    109.8720               124.5994               142.8598
 Red. masses --      4.9242                 3.9601                 4.2826
 Frc consts  --      0.0350                 0.0362                 0.0515
 IR Inten    --      1.8854                 0.4022                 0.8202

                     10                     11                     12
                      A                      A                      A
 Frequencies --    203.6482               208.0661               230.4787
 Red. masses --      2.4340                 2.5721                 2.6831
 Frc consts  --      0.0595                 0.0656                 0.0840
 IR Inten    --      1.7842                 1.5913                 1.5170

                     13                     14                     15
                      A                      A                      A
 Frequencies --    250.5868               257.9537               274.3668
 Red. masses --      1.0858                 1.2232                 3.9207
 Frc consts  --      0.0402                 0.0480                 0.1739
 IR Inten    --      0.7164                 0.8180                 0.5051

                     16                     17                     18
                      A                      A                      A
 Frequencies --    319.7222               340.2528               368.4560
 Red. masses --      2.5398                 3.1117                 2.4058
 Frc consts  --      0.1530                 0.2122                 0.1924
 IR Inten    --      1.0755                 1.9050                 0.1959

                     19                     20                     21
                      A                      A                      A
 Frequencies --    414.8211               421.7110               447.9771
 Red. masses --      3.2172                 3.0675                 3.2543
 Frc consts  --      0.3262                 0.3214                 0.3848
 IR Inten    --      0.3176                 0.1275                 0.3326

                     22                     23                     24
                      A                      A                      A
 Frequencies --    467.2900               488.4484               520.1502
 Red. masses --      2.6934                 3.5107                 2.6643
 Frc consts  --      0.3465                 0.4935                 0.4247
 IR Inten    --      4.2656                 7.6672                 6.1734

                     25                     26                     27
                      A                      A                      A
 Frequencies --    544.6562               597.3565               611.7252
 Red. masses --      2.8002                 2.9656                 2.5761
 Frc consts  --      0.4894                 0.6235                 0.5680
 IR Inten    --     35.1526                11.3489                31.9433

                     28                     29                     30
                      A                      A                      A
 Frequencies --    626.2317               655.9100               698.6675
 Red. masses --      2.2540                 6.8855                 1.8720
 Frc consts  --      0.5208                 1.7453                 0.5384
 IR Inten    --     24.7591                 0.1117                99.5179

                     31                     32                     33
                      A                      A                      A
 Frequencies --    767.1600               778.1656               805.3217
 Red. masses --      3.8525                 4.9627                 2.9012
 Frc consts  --      1.3359                 1.7706                 1.1086
 IR Inten    --      2.8824                 3.1105                 4.0948

                     34                     35                     36
                      A                      A                      A
 Frequencies --    835.9285               849.0242               863.1621
 Red. masses --      2.8143                 1.3097                 2.0081
 Frc consts  --      1.1587                 0.5562                 0.8815
 IR Inten    --     29.3015                 1.6306                19.1097

                     37                     38                     39
                      A                      A                      A
 Frequencies --    877.8223               932.2111               962.8390
 Red. masses --      2.2890                 2.3475                 1.3486
 Frc consts  --      1.0392                 1.2020                 0.7366
 IR Inten    --      6.6759                10.5887                 0.2639

                     40                     41                     42
                      A                      A                      A
 Frequencies --    966.7434               968.2434               968.8725
 Red. masses --      1.5703                 3.2730                 1.5680
 Frc consts  --      0.8647                 1.8079                 0.8672
 IR Inten    --      7.0688                28.5768                 5.1806

                     43                     44                     45
                      A                      A                      A
 Frequencies --    986.5546              1005.0107              1039.7125
 Red. masses --      1.5587                 3.2567                 3.1810
 Frc consts  --      0.8938                 1.9381                 2.0260
 IR Inten    --      1.0050                 5.8847                11.4896

                     46                     47                     48
                      A                      A                      A
 Frequencies --   1040.2526              1054.0408              1073.1562
 Red. masses --      7.5074                 2.9272                 1.6109
 Frc consts  --      4.7865                 1.9161                 1.0930
 IR Inten    --     65.0545                 0.2321                14.0778

                     49                     50                     51
                      A                      A                      A
 Frequencies --   1091.7044              1107.3288              1129.6420
 Red. masses --      2.9321                 2.3558                 1.2374
 Frc consts  --      2.0589                 1.7020                 0.9303
 IR Inten    --      4.4451                24.5478                 6.5815

                     52                     53                     54
                      A                      A                      A
 Frequencies --   1141.9849              1170.7887              1175.1129
 Red. masses --      1.3952                 1.1903                 1.7364
 Frc consts  --      1.0720                 0.9613                 1.4127
 IR Inten    --      5.0848                 2.7616                64.1648

                     55                     56                     57
                      A                      A                      A
 Frequencies --   1177.3492              1182.7388              1197.1646
 Red. masses --      1.7666                 1.8016                 1.4436
 Frc consts  --      1.4428                 1.4849                 1.2190
 IR Inten    --     23.3553               126.9798                 3.0096

                     58                     59                     60
                      A                      A                      A
 Frequencies --   1214.0390              1219.9958              1239.1279
 Red. masses --      1.4273                 1.4864                 3.5084
 Frc consts  --      1.2395                 1.3034                 3.1739
 IR Inten    --     22.8555                10.7855                23.1020

                     61                     62                     63
                      A                      A                      A
 Frequencies --   1247.2855              1254.0232              1317.4407
 Red. masses --      1.3737                 1.6542                 1.2806
 Frc consts  --      1.2592                 1.5327                 1.3095
 IR Inten    --      1.5672                 9.0320                 1.8650

                     64                     65                     66
                      A                      A                      A
 Frequencies --   1330.0467              1335.1258              1340.5889
 Red. masses --      1.7339                 1.7369                 2.5364
 Frc consts  --      1.8072                 1.8242                 2.6858
 IR Inten    --      1.9046                 2.2100                15.8437

                     67                     68                     69
                      A                      A                      A
 Frequencies --   1343.5791              1350.7366              1393.0881
 Red. masses --      3.1359                 1.9083                 1.4451
 Frc consts  --      3.3353                 2.0514                 1.6524
 IR Inten    --      1.4748                 7.7077                 6.4094

                     70                     71                     72
                      A                      A                      A
 Frequencies --   1403.2769              1433.5218              1452.8667
 Red. masses --      1.7610                 1.9619                 2.9451
 Frc consts  --      2.0432                 2.3754                 3.6627
 IR Inten    --      2.6363                43.5678                 2.5840

                     73                     74                     75
                      A                      A                      A
 Frequencies --   1465.0564              1492.5677              1497.7275
 Red. masses --      1.1496                 1.1716                 1.0968
 Frc consts  --      1.4538                 1.5377                 1.4496
 IR Inten    --      0.8999                 2.2155                16.2727

                     76                     77                     78
                      A                      A                      A
 Frequencies --   1508.9391              1512.2140              1524.6170
 Red. masses --      1.0475                 1.0849                 1.0644
 Frc consts  --      1.4052                 1.4617                 1.4578
 IR Inten    --      9.4494                 5.8392                21.6485

                     79                     80                     81
                      A                      A                      A
 Frequencies --   1527.8907              1539.0889              1541.6649
 Red. masses --      1.0482                 1.0807                 1.0914
 Frc consts  --      1.4417                 1.5083                 1.5283
 IR Inten    --      5.0640                 2.0044                 2.6286

                     82                     83                     84
                      A                      A                      A
 Frequencies --   1563.1550              1566.7545              1627.1889
 Red. masses --      1.2669                 1.8917                 6.6185
 Frc consts  --      1.8239                 2.7359                10.3250
 IR Inten    --      7.8411                42.6040                 1.7592

                     85                     86                     87
                      A                      A                      A
 Frequencies --   1674.0661              1847.6176              2952.9807
 Red. masses --      5.8507                 9.5121                 1.0589
 Frc consts  --      9.6606                19.1316                 5.4405
 IR Inten    --      4.9621               179.4963                45.1503

                     88                     89                     90
                      A                      A                      A
 Frequencies --   2961.6788              3027.3184              3038.3903
 Red. masses --      1.0600                 1.0532                 1.0576
 Frc consts  --      5.4783                 5.6870                 5.7526
 IR Inten    --    100.5853                84.6259                12.3179

                     91                     92                     93
                      A                      A                      A
 Frequencies --   3051.6269              3061.5028              3076.5807
 Red. masses --      1.0658                 1.0634                 1.0754
 Frc consts  --      5.8477                 5.8726                 5.9972
 IR Inten    --     13.8599                12.7342                19.5394

                     94                     95                     96
                      A                      A                      A
 Frequencies --   3078.8351              3079.7941              3083.4441
 Red. masses --      1.0736                 1.1100                 1.1111
 Frc consts  --      5.9961                 6.2031                 6.2243
 IR Inten    --     87.6439                32.8782                70.4242

                     97                     98                     99
                      A                      A                      A
 Frequencies --   3103.3267              3115.5725              3129.8647
 Red. masses --      1.1022                 1.0965                 1.1022
 Frc consts  --      6.2543                 6.2707                 6.3615
 IR Inten    --     10.6172                16.0510                27.0660

                    100                    101                    102
                      A                      A                      A
 Frequencies --   3133.1194              3176.9399              3187.0249
 Red. masses --      1.1023                 1.0875                 1.0879
 Frc consts  --      6.3755                 6.4669                 6.5105
 IR Inten    --     34.0757                15.0950                13.7368

                    103                    104                    105
                      A                      A                      A
 Frequencies --   3199.7562              3212.2453              3685.4047
 Red. masses --      1.0934                 1.0936                 1.0638
 Frc consts  --      6.5956                 6.6485                 8.5130
 IR Inten    --     12.9554                 8.1577                32.7469

 - Thermochemistry -
 -------------------
 Temperature   298.150 Kelvin.  Pressure   1.00000 Atm.
 Atom     1 has atomic number  6 and mass  12.00000

 Molecular mass:   249.13649 amu.
 Principal axes and moments of inertia in atomic units:
                           1         2         3
     Eigenvalues --  2759.023726187.226367695.50123
           X            0.99991  -0.01277  -0.00349
           Y            0.01282   0.99981   0.01441
           Z            0.00330  -0.01445   0.99989
 This molecule is an asymmetric top.
 Rotational symmetry number  1.
 Warning -- assumption of classical behavior for rotation
           may cause significant error
 Rotational temperatures (Kelvin)      0.03139     0.01400     0.01126
 Rotational constants (GHZ):           0.65412     0.29169     0.23452
    1 imaginary frequencies ignored.
 Zero-point vibrational energy     824820.0 (Joules/Mol)
                                  197.13671 (Kcal/Mol)
 Warning -- explicit consideration of  26 degrees of freedom as
           vibrations may cause significant error
 Vibrational temperatures:     47.75    61.02    87.51   113.19   131.65
          (Kelvin)            158.08   179.27   205.54   293.00   299.36
                              331.61   360.54   371.14   394.75   460.01
                              489.55   530.13   596.83   606.75   644.54
                              672.33   702.77   748.38   783.64   859.46
                              880.14   901.01   943.71  1005.23  1103.77
                             1119.61  1158.68  1202.71  1221.56  1241.90
                             1262.99  1341.24  1385.31  1390.93  1393.09
                             1393.99  1419.43  1445.99  1495.91  1496.69
                             1516.53  1544.03  1570.72  1593.20  1625.30
                             1643.06  1684.50  1690.73  1693.94  1701.70
                             1722.45  1746.73  1755.30  1782.83  1794.57
                             1804.26  1895.50  1913.64  1920.95  1928.81
                             1933.11  1943.41  2004.34  2019.00  2062.52
                             2090.35  2107.89  2147.47  2154.90  2171.03
                             2175.74  2193.58  2198.29  2214.41  2218.11
                             2249.03  2254.21  2341.16  2408.61  2658.31
                             4248.68  4261.20  4355.64  4371.57  4390.61
                             4404.82  4426.51  4429.76  4431.14  4436.39
                             4464.99  4482.61  4503.18  4507.86  4570.91
                             4585.42  4603.74  4621.70  5302.48

 Zero-point correction=                           0.314157 (Hartree/Particle)
 Thermal correction to Energy=                    0.331008
 Thermal correction to Enthalpy=                  0.331952
 Thermal correction to Gibbs Free Energy=         0.268939
 Sum of electronic and zero-point Energies=           -825.070571
 Sum of electronic and thermal Energies=              -825.053721
 Sum of electronic and thermal Enthalpies=            -825.052777
 Sum of electronic and thermal Free Energies=         -825.115789

                     E (Thermal)             CV                S
                      KCal/Mol        Cal/Mol-Kelvin    Cal/Mol-Kelvin
 Total                  207.711             64.600            132.622
 Electronic               0.000              0.000              0.000
 Translational            0.889              2.981             42.439
 Rotational               0.889              2.981             33.240
 Vibrational            205.933             58.638             56.942
 Vibration     1          0.594              1.983              5.629
 Vibration     2          0.595              1.980              5.143
 Vibration     3          0.597              1.973              4.430
 Vibration     4          0.600              1.964              3.924
 Vibration     5          0.602              1.955              3.628
 Vibration     6          0.606              1.941              3.271
 Vibration     7          0.610              1.928              3.028
 Vibration     8          0.616              1.910              2.765
 Vibration     9          0.639              1.835              2.100
 Vibration    10          0.641              1.828              2.061
 Vibration    11          0.652              1.794              1.875
 Vibration    12          0.663              1.762              1.726
 Vibration    13          0.667              1.749              1.676
 Vibration    14          0.677              1.721              1.569
 Vibration    15          0.706              1.636              1.312
 Vibration    16          0.720              1.595              1.211
 Vibration    17          0.741              1.537              1.086
 Vibration    18          0.778              1.438              0.910
 Vibration    19          0.784              1.423              0.886
 Vibration    20          0.807              1.365              0.802
 Vibration    21          0.825              1.323              0.745
 Vibration    22          0.844              1.276              0.688
 Vibration    23          0.875              1.205              0.610
 Vibration    24          0.900              1.151              0.555
 Vibration    25          0.955              1.037              0.454
 Vibration    26          0.971              1.007              0.430

                           ! Non-Optimized Parameters !
 Normal termination of Gaussian 16 at Mon Dec 14 13:38:32 2020.

 ----------------------------------------------------------------------
 # B3LYP/6-311++G(d,p) empiricaldispersion=gd3bj scf=xqc pop=npa geom=c
 heck
 ----------------------------------------------------------------------

 ---------------------------------------
 CID_117547379_JID_8171_Energie_neutraal
 ---------------------------------------
 Structure from the checkpoint file:  "JID_8171.chk"
 Charge =  0 Multiplicity = 1

 SCF Done:  E(RB3LYP) =  -825.622000403     A.U. after   15 cycles
 Normal termination of Gaussian 16 at Mon Dec 14 13:46:47 2020.

 ----------------------------------------------------------------------
 # B3LYP/6-311++G(d,p) empiricaldispersion=gd3bj scf=xqc pop=npa geom=c
 heck
 ----------------------------------------------------------------------

 -------------------------------------
 CID_117547379_JID_8171_Energie_kation
 -------------------------------------
 Structure from the checkpoint file:  "JID_8171.chk"
 Charge =  1 Multiplicity = 2

 SCF Done:  E(UB3LYP) =  -825.325258323     A.U. after   33 cycles
 SCF Done:  E(UB3LYP) =  -825.325258322     a.u. after    3 cycles
 Normal termination of Gaussian 16 at Mon Dec 14 15:02:22 2020.
 Gaussian 16:  ES64L-G16RevA.03 25-Dec-2016

 ----------------------------------------------------------------------
 # B3LYP/6-311++G(d,p) empiricaldispersion=gd3bj scf=xqc pop=npa geom=c
 heck
 ----------------------------------------------------------------------

 ------------------------------------
 CID_117547379_JID_8171_Energie_anion
 ------------------------------------
 Structure from the checkpoint file:  "JID_8171.chk"
 Charge = -1 Multiplicity = 2

                         Standard orientation:
 ---------------------------------------------------------------------
 Center     Atomic      Atomic             Coordinates (Angstroms)
 Number     Number       Type             X           Y           Z
 ---------------------------------------------------------------------
      1          6           0        4.361779   -1.628006    0.133672
      2          7           0        3.645261   -0.378503    0.368359
      3          6           0        4.185197    0.719275   -0.428913
      4          6           0        2.218047   -0.509067    0.231254
      5          6           0        1.609759   -0.885440   -0.974422
      6          6           0        0.225449   -0.971083   -1.067087
      7          6           0       -0.589236   -0.684890    0.035991
      8          6           0        0.023221   -0.327194    1.240549
      9          6           0        1.412558   -0.237242    1.336773
     10          6           0       -2.088585   -0.684246   -0.114205
     11          6           0       -2.741357   -1.908698   -0.804810
     12          8           0       -3.693038   -2.056649    0.270830
     13          6           0       -2.944000   -1.139008    1.095614
     14          6           0       -2.602203    0.634190   -0.727036
     15          6           0       -2.235391    1.884771    0.079868
     16          6           0       -0.824185    2.371207   -0.181628
     17          8           0       -0.246223    2.319297   -1.244265
     18          8           0       -0.277414    2.942126    0.919536
     19          1           0        5.415258   -1.492283    0.403482
     20          1           0        4.323404   -1.973778   -0.916277
     21          1           0        3.940825   -2.413297    0.767883
     22          1           0        4.130226    0.544050   -1.519372
     23          1           0        3.632211    1.636390   -0.206354
     24          1           0        5.237191    0.873432   -0.162959
     25          1           0        2.223515   -1.100062   -1.844674
     26          1           0       -0.233075   -1.240843   -2.015382
     27          1           0       -0.585974   -0.098378    2.110658
     28          1           0        1.892323    0.047627    2.267935
     29          1           0       -3.233184   -1.730407   -1.768903
     30          1           0       -2.076461   -2.778920   -0.885508
     31          1           0       -2.375125   -1.665724    1.873100
     32          1           0       -3.590398   -0.386230    1.563640
     33          1           0       -2.200554    0.743224   -1.740437
     34          1           0       -3.693160    0.563843   -0.810060
     35          1           0       -2.898454    2.711732   -0.207084
     36          1           0       -2.375225    1.735193    1.154723
     37          1           0        0.616933    3.228354    0.654537
 ---------------------------------------------------------------------

 SCF Done:  E(UB3LYP) =  -825.610812175     A.U. after   33 cycles
 SCF Done:  E(UB3LYP) =  -825.610812175     a.u. after    1 cycles

 The electronic state is 2-A.
 Alpha  occ. eigenvalues --  -19.07221 -19.03691 -19.01546 -14.21670 -10.20733
 Alpha  occ. eigenvalues --  -10.13395 -10.13275 -10.10828 -10.10685 -10.09766
 Alpha  occ. eigenvalues --  -10.09311 -10.09209 -10.08989 -10.08734 -10.08345
 Alpha  occ. eigenvalues --  -10.08302 -10.08168 -10.07819  -1.01188  -0.96288
 Alpha  occ. eigenvalues --   -0.92239  -0.83956  -0.76773  -0.72358  -0.67342
 Alpha  occ. eigenvalues --   -0.65765  -0.63297  -0.61456  -0.61138  -0.57252
 Alpha  occ. eigenvalues --   -0.55213  -0.52000  -0.50102  -0.49026  -0.45759
 Alpha  occ. eigenvalues --   -0.43416  -0.41358  -0.40432  -0.39883  -0.39291
 Alpha  occ. eigenvalues --   -0.38716  -0.37499  -0.36369  -0.35803  -0.35449
 Alpha  occ. eigenvalues --   -0.34043  -0.33511  -0.32906  -0.32693  -0.31652
 Alpha  occ. eigenvalues --   -0.30408  -0.30232  -0.29190  -0.28377  -0.27821
 Alpha  occ. eigenvalues --   -0.27648  -0.27268  -0.26011  -0.24676  -0.23010
 Alpha  occ. eigenvalues --   -0.22808  -0.22448  -0.18754  -0.17323  -0.16358
 Alpha  occ. eigenvalues --   -0.15143  -0.13079   0.04052
 Alpha virt. eigenvalues --    0.05786   0.06581   0.06991   0.07320   0.07558
 Alpha virt. eigenvalues --    0.07714   0.08354   0.08475   0.09118   0.09917
 Alpha virt. eigenvalues --    0.10065   0.10446   0.10756   0.11110   0.11465

  Beta  occ. eigenvalues --  -19.07191 -19.03691 -19.01527 -14.21665 -10.20701
  Beta  occ. eigenvalues --  -10.13388 -10.13261 -10.10810 -10.10687 -10.09745
  Beta  occ. eigenvalues --  -10.09276 -10.09176 -10.08976 -10.08717 -10.08334
  Beta  occ. eigenvalues --  -10.08293 -10.08162 -10.07806  -1.01129  -0.96283
  Beta  occ. eigenvalues --   -0.92192  -0.83931  -0.76747  -0.72328  -0.67290
  Beta  occ. eigenvalues --   -0.65735  -0.63256  -0.61407  -0.61113  -0.57190
  Beta  occ. eigenvalues --   -0.55169  -0.51967  -0.50031  -0.48971  -0.45721
  Beta  occ. eigenvalues --   -0.43387  -0.41325  -0.40388  -0.39854  -0.39257
  Beta  occ. eigenvalues --   -0.38682  -0.37425  -0.36321  -0.35781  -0.35417
  Beta  occ. eigenvalues --   -0.34017  -0.33473  -0.32879  -0.32668  -0.31625
  Beta  occ. eigenvalues --   -0.30365  -0.30200  -0.29148  -0.28338  -0.27776
  Beta  occ. eigenvalues --   -0.27617  -0.27229  -0.25985  -0.24643  -0.22963
  Beta  occ. eigenvalues --   -0.22768  -0.22425  -0.18721  -0.17314  -0.16309
  Beta  occ. eigenvalues --   -0.15060  -0.13048
  Beta virt. eigenvalues --    0.06055   0.06646   0.07065   0.07287   0.07636
  Beta virt. eigenvalues --    0.07784   0.08245   0.08715   0.08844   0.09225
  Beta virt. eigenvalues --    0.10164   0.10441   0.10768   0.10947   0.11332

 Mulliken charges and spin densities:
               1          2
     1  C    0.449941  -0.712285
     2  N    0.239775   0.045109
     3  C    0.689174  -0.955873
     4  C   -1.123261  -0.010286
     5  C   -0.915405   0.433638
     6  C   -0.589176   0.256097
     7  C    0.855577  -0.296902
     8  C   -0.113433  -0.069384
     9  C    0.000409  -0.004593
    10  C    0.449878  -0.075963
    11  C    0.330264  -0.582786
    12  O   -0.165457   0.014985
    13  C    0.443228  -0.712327
    14  C   -0.475922   0.146173
    15  C    0.736733  -1.007460
    16  C    0.208225  -0.500214
    17  O   -0.256937   0.058985
    18  O   -0.105511   0.066172
    19  H   -0.141561   0.271865
    20  H   -0.074379   0.193995
    21  H   -0.050715   0.199166
    22  H   -0.046826   0.164611
    23  H   -0.178789   0.328388
    24  H   -0.181022   0.320989
    25  H   -0.191773   0.359729
    26  H   -0.112087   0.286981
    27  H   -0.222596   0.387134
    28  H   -0.174224   0.341335
    29  H   -0.019954   0.178286
    30  H    0.135292   0.026640
    31  H    0.112356   0.055684
    32  H   -0.096511   0.262227
    33  H    0.249034  -0.049594
    34  H   -0.177786   0.369706
    35  H   -0.705228   0.920849
    36  H    0.290543  -0.075363
    37  H   -0.071876   0.364284
 Sum of Mulliken charges =  -1.00000   1.00000

 Dipole moment (field-independent basis, Debye):
    X=             -1.2355    Y=             -3.2143    Z=              0.1137  Tot=              3.4454
 Quadrupole moment (field-independent basis, Debye-Ang):
   XX=           -196.6280   YY=           -160.1991   ZZ=           -140.4820
   XY=              3.4535   XZ=              1.3171   YZ=              2.2092

 Summary of Natural Population Analysis:

                                       Natural Population
                Natural  -----------------------------------------------
    Atom  No    Charge         Core      Valence    Rydberg      Total
 -----------------------------------------------------------------------
      C    1   -0.17258      0.99964     2.16557    0.00737     3.17258
      N    2   -0.29451      0.99973     2.77729    0.01750     3.79451
      C    3   -0.17446      0.99964     2.16544    0.00939     3.17446
      C    4    0.13339      0.99945     1.85847    0.00869     2.86661
      C    5   -0.12058      0.99953     2.10643    0.01461     3.12058
      C    6   -0.08919      0.99951     2.08038    0.00930     3.08919
      C    7   -0.02062      0.99948     2.00895    0.01219     3.02062
      C    8   -0.10004      0.99951     2.09075    0.00979     3.10004
      C    9   -0.11394      0.99953     2.09736    0.01705     3.11394
      C   10   -0.06441      0.99952     2.05167    0.01322     3.06441
      C   11    0.00558      0.99958     1.98406    0.01078     2.99442
      O   12   -0.30540      0.99991     3.29735    0.00814     4.30540
      C   13    0.00083      0.99958     1.98688    0.01271     2.99917
      C   14   -0.18452      0.99958     2.17351    0.01143     3.18452
      C   15   -0.24250      0.99957     2.23269    0.01024     3.24250
      C   16    0.41046      0.99972     1.56391    0.02591     2.58954
      O   17   -0.30659      0.99987     3.30058    0.00615     4.30659
      O   18   -0.34503      0.99988     3.33855    0.00660     4.34503
      H   19    0.09395      0.00000     0.40484    0.00121     0.40605
      H   20    0.07959      0.00000     0.41856    0.00185     0.42041
      H   21    0.09715      0.00000     0.40152    0.00132     0.40285
      H   22    0.08062      0.00000     0.41805    0.00133     0.41938
      H   23    0.09996      0.00000     0.39832    0.00172     0.40004
      H   24    0.09436      0.00000     0.40437    0.00127     0.40564
      H   25    0.10317      0.00000     0.39526    0.00157     0.39683
      H   26    0.09938      0.00000     0.39936    0.00125     0.40062
      H   27    0.10205      0.00000     0.39644    0.00151     0.39795
      H   28    0.10590      0.00000     0.39216    0.00194     0.39410
      H   29    0.08474      0.00000     0.41390    0.00135     0.41526
      H   30    0.08475      0.00000     0.41384    0.00141     0.41525
      H   31    0.08497      0.00000     0.41358    0.00144     0.41503
      H   32    0.08652      0.00000     0.41185    0.00163     0.41348
      H   33    0.11026      0.00000     0.38838    0.00136     0.38974
      H   34    0.10372      0.00000     0.39457    0.00171     0.39628
      H   35    0.12203      0.00000     0.37537    0.00260     0.37797
      H   36    0.10885      0.00000     0.38947    0.00168     0.39115
      H   37    0.24221      0.00000     0.25326    0.00453     0.25779
 =======================================================================
   * Total *    0.00009     17.99322    48.76295    0.24374    66.99991

 Normal termination of Gaussian 16 at Mon Dec 14 15:26:04 2020.
