 Gaussian 16, Revision A.03,

 -----------------------------------------------------------
 # opt freq B3LYP/6-31G(d) empiricaldispersion=gd3bj scf=xqc
 -----------------------------------------------------------

 -------------------------------
 CID_131468574_JID_5108_neutraal
 -------------------------------
 Symbolic Z-matrix:
 Charge =  0 Multiplicity = 1

 SCF Done:  E(RB3LYP) =  -685.137784763     A.U. after   16 cycles
 SCF Done:  E(RB3LYP) =  -685.159646949     A.U. after   13 cycles
 SCF Done:  E(RB3LYP) =  -685.160251856     A.U. after   12 cycles
 SCF Done:  E(RB3LYP) =  -685.160321100     A.U. after   11 cycles
 SCF Done:  E(RB3LYP) =  -685.160337878     A.U. after   10 cycles
 SCF Done:  E(RB3LYP) =  -685.160342958     A.U. after    9 cycles
 SCF Done:  E(RB3LYP) =  -685.160343974     A.U. after    8 cycles
 SCF Done:  E(RB3LYP) =  -685.160344441     A.U. after    8 cycles
 SCF Done:  E(RB3LYP) =  -685.160344751     A.U. after    7 cycles
 SCF Done:  E(RB3LYP) =  -685.160345043     A.U. after    8 cycles
 Optimization completed.
    -- Stationary point found.
 Normal termination of Gaussian 16 at Thu Dec 10 14:43:16 2020.

 --------------------------------------------------------------------
 #N Geom=AllCheck Guess=TCheck SCRF=Check GenChk RB3LYP/6-31G(d) Freq
 --------------------------------------------------------------------

 Structure from the checkpoint file:  "JID_5108.chk"
 -------------------------------
 CID_131468574_JID_5108_neutraal
 -------------------------------
 Charge =  0 Multiplicity = 1

 SCF Done:  E(RB3LYP) =  -685.160345043     A.U. after    1 cycles

  Exact polarizability: 182.309 -10.753 133.987  -0.297   0.153  63.182
 Approx polarizability: 276.484 -31.236 241.411   1.502   3.940  95.519

                      1                      2                      3
                      A                      A                      A
 Frequencies --     43.7257                94.7564               105.1508
 Red. masses --      6.4079                 4.5866                 6.6410
 Frc consts  --      0.0072                 0.0243                 0.0433
 IR Inten    --      1.6337                 0.8589                 2.0052

                      4                      5                      6
                      A                      A                      A
 Frequencies --    154.7324               160.0289               189.0423
 Red. masses --      5.3466                 6.5200                 4.0407
 Frc consts  --      0.0754                 0.0984                 0.0851
 IR Inten    --      3.5638                 3.8247                 2.1946

                      7                      8                      9
                      A                      A                      A
 Frequencies --    222.0288               252.6983               300.5104
 Red. masses --      4.4099                 1.1139                 2.7710
 Frc consts  --      0.1281                 0.0419                 0.1474
 IR Inten    --     15.4004                 2.1194                34.5724

                     10                     11                     12
                      A                      A                      A
 Frequencies --    301.1854               333.0811               362.4982
 Red. masses --      1.2187                 2.8750                 2.1971
 Frc consts  --      0.0651                 0.1879                 0.1701
 IR Inten    --     78.9492                16.1184                58.0539

                     13                     14                     15
                      A                      A                      A
 Frequencies --    368.1755               387.0647               411.0846
 Red. masses --      2.7027                 1.5931                 3.4123
 Frc consts  --      0.2159                 0.1406                 0.3397
 IR Inten    --     45.7525                89.9615                38.0635

                     16                     17                     18
                      A                      A                      A
 Frequencies --    437.9116               451.1274               461.6378
 Red. masses --      3.1304                 5.5625                 2.9280
 Frc consts  --      0.3537                 0.6670                 0.3676
 IR Inten    --      2.4964                 4.1631                27.5267

                     19                     20                     21
                      A                      A                      A
 Frequencies --    465.9829               549.6178               590.4392
 Red. masses --      7.0267                 5.0257                 4.9060
 Frc consts  --      0.8990                 0.8945                 1.0077
 IR Inten    --      1.7069                11.9422                 6.1842

                     22                     23                     24
                      A                      A                      A
 Frequencies --    609.3988               641.7256               659.2014
 Red. masses --      2.7101                 6.5941                 4.9893
 Frc consts  --      0.5930                 1.5999                 1.2774
 IR Inten    --      6.9274                 0.9641                 1.1446

                     25                     26                     27
                      A                      A                      A
 Frequencies --    668.5204               761.1028               781.7926
 Red. masses --      3.8949                 2.9086                 6.6633
 Frc consts  --      1.0256                 0.9927                 2.3995
 IR Inten    --      9.8475                18.8887                 4.6751

                     28                     29                     30
                      A                      A                      A
 Frequencies --    792.8930               823.0835               828.3109
 Red. masses --      2.0426                 1.8745                 2.6375
 Frc consts  --      0.7566                 0.7482                 1.0662
 IR Inten    --     20.5455                16.3217                25.7631

                     31                     32                     33
                      A                      A                      A
 Frequencies --    878.1324               887.1386               898.5782
 Red. masses --      3.0086                 1.4568                 1.2607
 Frc consts  --      1.3669                 0.6755                 0.5998
 IR Inten    --     10.5960                13.7596                 0.5167

                     34                     35                     36
                      A                      A                      A
 Frequencies --    952.1741               964.7300              1035.9485
 Red. masses --      2.7278                 3.1988                 2.2555
 Frc consts  --      1.4571                 1.7541                 1.4262
 IR Inten    --     16.4553                51.0171                17.7313

                     37                     38                     39
                      A                      A                      A
 Frequencies --   1065.0851              1128.7182              1157.5445
 Red. masses --      2.9402                 1.4760                 2.0689
 Frc consts  --      1.9652                 1.1079                 1.6333
 IR Inten    --     49.9011                16.1881                58.6355

                     40                     41                     42
                      A                      A                      A
 Frequencies --   1172.7111              1180.1811              1216.7363
 Red. masses --      1.4471                 2.0430                 1.4563
 Frc consts  --      1.1725                 1.6765                 1.2703
 IR Inten    --     10.4774                38.3018               153.8349

                     43                     44                     45
                      A                      A                      A
 Frequencies --   1254.0586              1275.9283              1290.6622
 Red. masses --      2.0185                 1.7415                 3.1799
 Frc consts  --      1.8703                 1.6704                 3.1209
 IR Inten    --     17.8890                11.5718                76.5198

                     46                     47                     48
                      A                      A                      A
 Frequencies --   1343.6619              1368.5802              1384.6165
 Red. masses --      3.0026                 2.0259                 1.9604
 Frc consts  --      3.1940                 2.2357                 2.2143
 IR Inten    --      9.7671                30.2069                95.3064

                     49                     50                     51
                      A                      A                      A
 Frequencies --   1400.6977              1432.2745              1464.6972
 Red. masses --      5.0360                 1.2466                 3.0569
 Frc consts  --      5.8213                 1.5068                 3.8639
 IR Inten    --     82.5371                 8.4804                30.0885

                     52                     53                     54
                      A                      A                      A
 Frequencies --   1505.5427              1514.0142              1519.1030
 Red. masses --      2.4286                 1.1008                 1.0495
 Frc consts  --      3.2433                 1.4867                 1.4269
 IR Inten    --     64.1400                 7.7480                 1.9290

                     55                     56                     57
                      A                      A                      A
 Frequencies --   1558.8094              1599.9173              1639.9143
 Red. masses --      3.8092                 5.5160                 6.0032
 Frc consts  --      5.4534                 8.3190                 9.5121
 IR Inten    --     10.1774                19.2034                75.0833

                     58                     59                     60
                      A                      A                      A
 Frequencies --   1695.8768              2358.1381              3077.9662
 Red. masses --      6.4845                12.7174                 1.0334
 Frc consts  --     10.9879                41.6664                 5.7683
 IR Inten    --     24.3350                 1.5149                 9.7676

                     61                     62                     63
                      A                      A                      A
 Frequencies --   3158.5296              3165.9232              3172.2823
 Red. masses --      1.1046                 1.1040                 1.0882
 Frc consts  --      6.4924                 6.5197                 6.4520
 IR Inten    --     14.4299                10.3320                15.9871

                     64                     65                     66
                      A                      A                      A
 Frequencies --   3200.9769              3236.3393              3278.6874
 Red. masses --      1.0937                 1.0912                 1.0972
 Frc consts  --      6.6026                 6.7340                 6.9489
 IR Inten    --     16.4099                 0.9822                 0.6443

                     67                     68                     69
                      A                      A                      A
 Frequencies --   3673.7890              3729.4511              3759.8003
 Red. masses --      1.0802                 1.0662                 1.0660
 Frc consts  --      8.5902                 8.7370                 8.8786
 IR Inten    --     72.8118                20.0891                47.3813

 - Thermochemistry -
 -------------------
 Temperature   298.150 Kelvin.  Pressure   1.00000 Atm.
 Atom     1 has atomic number  6 and mass  12.00000

 Molecular mass:   202.07423 amu.
 Principal axes and moments of inertia in atomic units:
                           1         2         3
     Eigenvalues --  1543.367684302.820685469.05777
           X            0.99992   0.01050  -0.00744
           Y           -0.01060   0.99985  -0.01366
           Z            0.00729   0.01374   0.99988
 This molecule is an asymmetric top.
 Rotational symmetry number  1.
 Warning -- assumption of classical behavior for rotation
           may cause significant error
 Rotational temperatures (Kelvin)      0.05612     0.02013     0.01584
 Rotational constants (GHZ):           1.16935     0.41943     0.32999
 Zero-point vibrational energy     507255.1 (Joules/Mol)
                                  121.23687 (Kcal/Mol)
 Warning -- explicit consideration of  22 degrees of freedom as
           vibrations may cause significant error
 Vibrational temperatures:     62.91   136.33   151.29   222.63   230.25
          (Kelvin)            271.99   319.45   363.58   432.37   433.34
                              479.23   521.55   529.72   556.90   591.46
                              630.06   649.07   664.19   670.45   790.78
                              849.51   876.79   923.30   948.44   961.85
                             1095.06  1124.83  1140.80  1184.23  1191.75
                             1263.44  1276.39  1292.85  1369.97  1388.03
                             1490.50  1532.42  1623.97  1665.45  1687.27
                             1698.02  1750.61  1804.31  1835.78  1856.98
                             1933.23  1969.08  1992.15  2015.29  2060.72
                             2107.37  2166.14  2178.33  2185.65  2242.78
                             2301.92  2359.47  2439.99  3392.83  4428.51
                             4544.42  4555.06  4564.21  4605.49  4656.37
                             4717.30  5285.76  5365.85  5409.51

 Zero-point correction=                           0.193203 (Hartree/Particle)
 Thermal correction to Energy=                    0.206595
 Thermal correction to Enthalpy=                  0.207539
 Thermal correction to Gibbs Free Energy=         0.153819
 Sum of electronic and zero-point Energies=           -684.967142
 Sum of electronic and thermal Energies=              -684.953750
 Sum of electronic and thermal Enthalpies=            -684.952806
 Sum of electronic and thermal Free Energies=         -685.006526

                     E (Thermal)             CV                S
                      KCal/Mol        Cal/Mol-Kelvin    Cal/Mol-Kelvin
 Total                  129.640             52.389            113.065
 Electronic               0.000              0.000              0.000
 Translational            0.889              2.981             41.815
 Rotational               0.889              2.981             31.963
 Vibrational            127.863             46.427             39.287
 Vibration     1          0.595              1.980              5.083
 Vibration     2          0.603              1.953              3.559
 Vibration     3          0.605              1.945              3.357
 Vibration     4          0.620              1.897              2.613
 Vibration     5          0.622              1.891              2.549
 Vibration     6          0.633              1.855              2.237
 Vibration     7          0.648              1.808              1.942
 Vibration     8          0.664              1.758              1.712
 Vibration     9          0.693              1.673              1.414
 Vibration    10          0.693              1.671              1.410
 Vibration    11          0.715              1.609              1.245
 Vibration    12          0.736              1.549              1.111
 Vibration    13          0.741              1.538              1.087
 Vibration    14          0.755              1.498              1.011
 Vibration    15          0.775              1.446              0.923
 Vibration    16          0.798              1.388              0.833
 Vibration    17          0.810              1.358              0.792
 Vibration    18          0.819              1.335              0.761
 Vibration    19          0.823              1.326              0.749
 Vibration    20          0.905              1.141              0.545
 Vibration    21          0.948              1.052              0.466
 Vibration    22          0.968              1.012              0.434

                           ! Non-Optimized Parameters !
 Normal termination of Gaussian 16 at Thu Dec 10 14:50:11 2020.

 ----------------------------------------------------------------------
 # B3LYP/6-311++G(d,p) empiricaldispersion=gd3bj scf=xqc pop=npa geom=c
 heck
 ----------------------------------------------------------------------

 ---------------------------------------
 CID_131468574_JID_5108_Energie_neutraal
 ---------------------------------------
 Structure from the checkpoint file:  "JID_5108.chk"
 Charge =  0 Multiplicity = 1

 SCF Done:  E(RB3LYP) =  -685.363877658     A.U. after   15 cycles
 Normal termination of Gaussian 16 at Thu Dec 10 14:52:37 2020.

 ----------------------------------------------------------------------
 # B3LYP/6-311++G(d,p) empiricaldispersion=gd3bj scf=xqc pop=npa geom=c
 heck
 ----------------------------------------------------------------------

 -------------------------------------
 CID_131468574_JID_5108_Energie_kation
 -------------------------------------
 Structure from the checkpoint file:  "JID_5108.chk"
 Charge =  1 Multiplicity = 2

 SCF Done:  E(UB3LYP) =  -685.077741708     A.U. after   22 cycles
 Normal termination of Gaussian 16 at Thu Dec 10 14:57:30 2020.
 Gaussian 16:  ES64L-G16RevA.03 25-Dec-2016

 ----------------------------------------------------------------------
 # B3LYP/6-311++G(d,p) empiricaldispersion=gd3bj scf=xqc pop=npa geom=c
 heck
 ----------------------------------------------------------------------

 ------------------------------------
 CID_131468574_JID_5108_Energie_anion
 ------------------------------------
 Structure from the checkpoint file:  "JID_5108.chk"
 Charge = -1 Multiplicity = 2

                         Standard orientation:
 ---------------------------------------------------------------------
 Center     Atomic      Atomic             Coordinates (Angstroms)
 Number     Number       Type             X           Y           Z
 ---------------------------------------------------------------------
      1          6           0       -2.009343   -1.441661    1.378745
      2          6           0       -1.975245   -0.684618    0.041931
      3          6           0       -3.308419   -0.064018   -0.198636
      4          7           0       -4.336929    0.434790   -0.399239
      5          6           0       -0.918859    0.390271    0.017641
      6          6           0       -1.109349    1.751978    0.053063
      7          7           0        0.110135    2.388147    0.073762
      8          6           0        1.123427    1.442642    0.040708
      9          6           0        0.507057    0.161636    0.004083
     10          6           0        1.305568   -0.991259   -0.053846
     11          6           0        2.687295   -0.840090   -0.054708
     12          6           0        3.284834    0.438148   -0.009581
     13          6           0        2.510268    1.591170    0.034577
     14          8           0        3.446240   -1.982334   -0.107626
     15          8           0       -1.731275   -1.677451   -0.958968
     16          1           0       -2.287686   -0.763962    2.189394
     17          1           0       -1.016088   -1.849495    1.579350
     18          1           0       -2.731635   -2.260593    1.323164
     19          1           0       -2.033239    2.312371    0.068531
     20          1           0        0.241926    3.387037    0.082092
     21          1           0        0.869991   -1.981397   -0.115410
     22          1           0        4.369661    0.520293   -0.014537
     23          1           0        2.977520    2.571274    0.062059
     24          1           0        4.383141   -1.735095   -0.113124
     25          1           0       -1.489150   -1.207913   -1.774292
 ---------------------------------------------------------------------

 SCF Done:  E(UB3LYP) =  -685.357845848     A.U. after   33 cycles
 SCF Done:  E(UB3LYP) =  -685.357845848     a.u. after    1 cycles

 The electronic state is 2-A.
 Alpha  occ. eigenvalues --  -19.05985 -19.05177 -14.26301 -14.23683 -10.19928
 Alpha  occ. eigenvalues --  -10.13448 -10.13074 -10.12020 -10.11071 -10.09548
 Alpha  occ. eigenvalues --  -10.08741 -10.08613 -10.08274 -10.07625 -10.07213
 Alpha  occ. eigenvalues --   -0.96750  -0.96145  -0.88998  -0.83076  -0.74941
 Alpha  occ. eigenvalues --   -0.73016  -0.68054  -0.64280  -0.63470  -0.58211
 Alpha  occ. eigenvalues --   -0.53343  -0.52413  -0.50736  -0.47796  -0.45364
 Alpha  occ. eigenvalues --   -0.43146  -0.40059  -0.39193  -0.37064  -0.36862
 Alpha  occ. eigenvalues --   -0.34314  -0.33516  -0.32330  -0.32117  -0.31173
 Alpha  occ. eigenvalues --   -0.30979  -0.30226  -0.29634  -0.29012  -0.28298
 Alpha  occ. eigenvalues --   -0.26462  -0.25461  -0.24574  -0.22577  -0.21985
 Alpha  occ. eigenvalues --   -0.18944  -0.12701  -0.11328   0.03941
 Alpha virt. eigenvalues --    0.05679   0.06538   0.06684   0.07654   0.08457
 Alpha virt. eigenvalues --    0.09578   0.09812   0.10323   0.10414   0.11192
 Alpha virt. eigenvalues --    0.11560   0.12025   0.12946   0.13516   0.13800

  Beta  occ. eigenvalues --  -19.05972 -19.05142 -14.26240 -14.23677 -10.19926
  Beta  occ. eigenvalues --  -10.13450 -10.13071 -10.12000 -10.11075 -10.09543
  Beta  occ. eigenvalues --  -10.08743 -10.08604 -10.08246 -10.07595 -10.07203
  Beta  occ. eigenvalues --   -0.96720  -0.96079  -0.88932  -0.83065  -0.74898
  Beta  occ. eigenvalues --   -0.72993  -0.68015  -0.64223  -0.63430  -0.58185
  Beta  occ. eigenvalues --   -0.53280  -0.52328  -0.50693  -0.47766  -0.45312
  Beta  occ. eigenvalues --   -0.43062  -0.40007  -0.39136  -0.37047  -0.36810
  Beta  occ. eigenvalues --   -0.34271  -0.33482  -0.32314  -0.32103  -0.31141
  Beta  occ. eigenvalues --   -0.30916  -0.30192  -0.29610  -0.28978  -0.28271
  Beta  occ. eigenvalues --   -0.26438  -0.25443  -0.24546  -0.22560  -0.21936
  Beta  occ. eigenvalues --   -0.18914  -0.12659  -0.11290
  Beta virt. eigenvalues --    0.06397   0.06612   0.07228   0.07630   0.07930
  Beta virt. eigenvalues --    0.09366   0.09708   0.09979   0.10388   0.10573
  Beta virt. eigenvalues --    0.11193   0.12103   0.12238   0.13025   0.13499

 Mulliken charges and spin densities:
               1          2
     1  C   -0.579821  -0.100749
     2  C    0.948753  -0.283236
     3  C   -0.458599  -0.107553
     4  N   -0.259478   0.005445
     5  C    1.564480  -1.076687
     6  C   -0.345131   0.358680
     7  N   -0.032933  -0.051476
     8  C    0.136126  -0.361630
     9  C    2.471547  -1.124184
    10  C   -0.986656  -0.187848
    11  C   -0.622620  -0.290145
    12  C    0.921848  -0.682516
    13  C   -1.398248   0.840565
    14  O   -0.254068   0.009100
    15  O   -0.117603  -0.008655
    16  H    0.071989   0.096399
    17  H    0.165762   0.006649
    18  H    0.144237   0.016088
    19  H   -0.274241   0.470225
    20  H   -0.659887   1.000677
    21  H    0.103641   0.081874
    22  H   -0.767232   0.929060
    23  H   -0.805773   0.986407
    24  H   -0.130608   0.409546
    25  H    0.164516   0.063966
 Sum of Mulliken charges =  -1.00000   1.00000

 Dipole moment (field-independent basis, Debye):
    X=             -5.1480    Y=             -6.0684    Z=              0.5071  Tot=              7.9740
 Quadrupole moment (field-independent basis, Debye-Ang):
   XX=           -175.3827   YY=           -147.4904   ZZ=           -105.7364
   XY=             -0.0267   XZ=             -2.7407   YZ=             -2.9221

 Summary of Natural Population Analysis:

                                       Natural Population
                Natural  -----------------------------------------------
    Atom  No    Charge         Core      Valence    Rydberg      Total
 -----------------------------------------------------------------------
      C    1   -0.27762      0.99963     2.27233    0.00567     3.27762
      C    2    0.08190      0.99942     1.90524    0.01344     2.91810
      C    3    0.15385      0.99963     1.82511    0.02141     2.84615
      N    4   -0.17997      0.99979     2.66799    0.01219     3.67997
      C    5   -0.08657      0.99946     2.07409    0.01303     3.08657
      C    6    0.01770      0.99950     1.97014    0.01266     2.98230
      N    7   -0.26298      0.99966     2.75210    0.01122     3.76298
      C    8    0.06760      0.99947     1.91992    0.01301     2.93240
      C    9   -0.03428      0.99947     2.02422    0.01060     3.03428
      C   10   -0.12881      0.99948     2.12076    0.00856     3.12881
      C   11    0.15083      0.99940     1.83623    0.01354     2.84917
      C   12   -0.13365      0.99954     2.12356    0.01056     3.13365
      C   13   -0.09821      0.99952     2.08837    0.01032     3.09821
      O   14   -0.34481      0.99988     3.33813    0.00680     4.34481
      O   15   -0.36009      0.99989     3.35402    0.00617     4.36009
      H   16    0.10594      0.00000     0.39316    0.00089     0.39406
      H   17    0.11016      0.00000     0.38900    0.00084     0.38984
      H   18    0.10323      0.00000     0.39592    0.00085     0.39677
      H   19    0.10846      0.00000     0.38987    0.00167     0.39154
      H   20    0.21179      0.00000     0.26097    0.02724     0.28821
      H   21    0.10968      0.00000     0.38898    0.00135     0.39032
      H   22    0.10392      0.00000     0.39277    0.00331     0.39608
      H   23    0.10983      0.00000     0.38730    0.00287     0.39017
      H   24    0.23695      0.00000     0.25777    0.00528     0.26305
      H   25    0.23514      0.00000     0.26236    0.00250     0.26486
 =======================================================================
   * Total *    0.00000     14.99373    37.79031    0.21596    53.00000

 Normal termination of Gaussian 16 at Thu Dec 10 15:04:45 2020.
