 Gaussian 16, Revision A.03,

 -----------------------------------------------------------
 # opt freq B3LYP/6-31G(d) empiricaldispersion=gd3bj scf=xqc
 -----------------------------------------------------------

 -------------------------------
 CID_117272885_JID_6726_neutraal
 -------------------------------
 Symbolic Z-matrix:
 Charge =  0 Multiplicity = 1

 SCF Done:  E(RB3LYP) =  -1087.20596926     A.U. after   15 cycles
 SCF Done:  E(RB3LYP) =  -1087.20925585     A.U. after   13 cycles
 SCF Done:  E(RB3LYP) =  -1087.20953440     A.U. after   12 cycles
 SCF Done:  E(RB3LYP) =  -1087.20962960     A.U. after   11 cycles
 SCF Done:  E(RB3LYP) =  -1087.20966082     A.U. after   11 cycles
 SCF Done:  E(RB3LYP) =  -1087.20972102     A.U. after   10 cycles
 SCF Done:  E(RB3LYP) =  -1087.20983663     A.U. after   12 cycles
 SCF Done:  E(RB3LYP) =  -1087.20992343     A.U. after   13 cycles
 SCF Done:  E(RB3LYP) =  -1087.20996315     A.U. after   10 cycles
 SCF Done:  E(RB3LYP) =  -1087.20999322     A.U. after   10 cycles
 SCF Done:  E(RB3LYP) =  -1087.21000145     A.U. after   11 cycles
 SCF Done:  E(RB3LYP) =  -1087.21000187     A.U. after    9 cycles
 SCF Done:  E(RB3LYP) =  -1087.21000198     A.U. after    8 cycles
 SCF Done:  E(RB3LYP) =  -1087.21000198     A.U. after    7 cycles
 Optimization completed.
    -- Stationary point found.
 Normal termination of Gaussian 16 at Fri Dec 11 00:22:48 2020.

 --------------------------------------------------------------------
 #N Geom=AllCheck Guess=TCheck SCRF=Check GenChk RB3LYP/6-31G(d) Freq
 --------------------------------------------------------------------

 Structure from the checkpoint file:  "JID_6726.chk"
 -------------------------------
 CID_117272885_JID_6726_neutraal
 -------------------------------
 Charge =  0 Multiplicity = 1

 SCF Done:  E(RB3LYP) =  -1087.21000198     A.U. after    1 cycles

  Exact polarizability: 209.770   4.366 144.082 -10.575  10.771  99.840
 Approx polarizability: 321.115  18.160 223.964 -28.233  24.040 172.116

                      1                      2                      3
                      A                      A                      A
 Frequencies --     20.7428                34.4352                60.3408
 Red. masses --      6.6175                 4.0827                 7.3935
 Frc consts  --      0.0017                 0.0029                 0.0159
 IR Inten    --      1.4472                 0.1261                 0.8893

                      4                      5                      6
                      A                      A                      A
 Frequencies --     75.4090                86.7434               112.7386
 Red. masses --      1.7592                 1.8160                 5.5445
 Frc consts  --      0.0059                 0.0081                 0.0415
 IR Inten    --      0.9995                 0.1639                 1.0434

                      7                      8                      9
                      A                      A                      A
 Frequencies --    141.0073               201.4378               221.2622
 Red. masses --      6.9072                 4.2250                 4.0843
 Frc consts  --      0.0809                 0.1010                 0.1178
 IR Inten    --      2.2146                 1.4055                 0.2165

                     10                     11                     12
                      A                      A                      A
 Frequencies --    280.7789               291.2265               313.8955
 Red. masses --      5.4730                 6.1478                 5.0748
 Frc consts  --      0.2542                 0.3072                 0.2946
 IR Inten    --      0.2484                 1.3392                 2.2756

                     13                     14                     15
                      A                      A                      A
 Frequencies --    347.3633               392.5041               424.1141
 Red. masses --      8.3922                 6.9181                 3.1047
 Frc consts  --      0.5966                 0.6279                 0.3290
 IR Inten    --      4.4812                 4.8669                 0.2916

                     16                     17                     18
                      A                      A                      A
 Frequencies --    482.6194               497.5144               502.5386
 Red. masses --      6.5169                 5.2628                 3.5343
 Frc consts  --      0.8943                 0.7675                 0.5259
 IR Inten    --      6.5197                 8.5116                 3.7356

                     19                     20                     21
                      A                      A                      A
 Frequencies --    572.9804               591.5522               603.3765
 Red. masses --      4.6060                 1.5047                 6.4546
 Frc consts  --      0.8910                 0.3102                 1.3845
 IR Inten    --      5.9593                54.5155                 7.1253

                     22                     23                     24
                      A                      A                      A
 Frequencies --    623.5316               639.1079               684.2116
 Red. masses --      3.9219                 5.5914                 4.1605
 Frc consts  --      0.8984                 1.3456                 1.1476
 IR Inten    --     32.4828                 9.9131                15.3956

                     25                     26                     27
                      A                      A                      A
 Frequencies --    702.2853               708.4861               745.0194
 Red. masses --      2.9853                 3.8371                 2.5861
 Frc consts  --      0.8675                 1.1348                 0.8457
 IR Inten    --     11.9393                 5.4186                58.1966

                     28                     29                     30
                      A                      A                      A
 Frequencies --    767.1607               781.9261               826.8679
 Red. masses --      5.6519                 2.1924                 2.2462
 Frc consts  --      1.9598                 0.7898                 0.9048
 IR Inten    --     47.4434                14.6251                 8.7306

                     31                     32                     33
                      A                      A                      A
 Frequencies --    841.5766               843.4032               912.3122
 Red. masses --      1.5286                 1.7571                 1.4418
 Frc consts  --      0.6379                 0.7364                 0.7071
 IR Inten    --      5.7950                17.4089                 4.0157

                     34                     35                     36
                      A                      A                      A
 Frequencies --    962.6907               987.4011              1017.6859
 Red. masses --      1.3295                 1.2350                 1.8039
 Frc consts  --      0.7259                 0.7094                 1.1008
 IR Inten    --      0.3612                 0.2081                14.7494

                     37                     38                     39
                      A                      A                      A
 Frequencies --   1022.4016              1042.6647              1056.0132
 Red. masses --      6.0777                 5.4551                 2.1148
 Frc consts  --      3.7431                 3.4942                 1.3895
 IR Inten    --      1.6545                64.7847                25.3275

                     40                     41                     42
                      A                      A                      A
 Frequencies --   1069.1453              1101.5271              1110.0189
 Red. masses --      1.4154                 7.2170                 1.5039
 Frc consts  --      0.9533                 5.1594                 1.0918
 IR Inten    --      1.6182                64.9074                 5.3758

                     43                     44                     45
                      A                      A                      A
 Frequencies --   1169.0810              1191.2455              1200.1507
 Red. masses --      2.1438                 1.1097                 1.1544
 Frc consts  --      1.7264                 0.9278                 0.9797
 IR Inten    --      0.4933                 1.3849                14.7334

                     46                     47                     48
                      A                      A                      A
 Frequencies --   1220.0150              1242.3156              1274.3959
 Red. masses --      2.0909                 2.4038                 3.2782
 Frc consts  --      1.8336                 2.1858                 3.1369
 IR Inten    --    213.2375                39.9921               397.0893

                     49                     50                     51
                      A                      A                      A
 Frequencies --   1344.6433              1367.1269              1390.3266
 Red. masses --      1.8981                 2.8938                 3.3192
 Frc consts  --      2.0221                 3.1866                 3.7802
 IR Inten    --      0.3223                 0.4156                44.7894

                     52                     53                     54
                      A                      A                      A
 Frequencies --   1443.3255              1457.2198              1505.3953
 Red. masses --      1.2357                 4.9596                 2.3020
 Frc consts  --      1.5166                 6.2051                 3.0737
 IR Inten    --      0.5134               311.4025                 9.0695

                     55                     56                     57
                      A                      A                      A
 Frequencies --   1507.5810              1514.9662              1538.0321
 Red. masses --      1.0420                 1.4212                 2.5682
 Frc consts  --      1.3954                 1.9218                 3.5793
 IR Inten    --      7.5115                62.8965               223.5080

                     58                     59                     60
                      A                      A                      A
 Frequencies --   1546.2069              1620.4909              1653.1489
 Red. masses --      2.7790                 6.4045                 5.9884
 Frc consts  --      3.9145                 9.9090                 9.6424
 IR Inten    --     56.9965               177.0446                23.2439

                     61                     62                     63
                      A                      A                      A
 Frequencies --   1664.6962              1794.4526              3051.8875
 Red. masses --      6.0777                 9.4222                 1.0363
 Frc consts  --      9.9234                17.8759                 5.6869
 IR Inten    --     25.3005               451.8021                24.7247

                     64                     65                     66
                      A                      A                      A
 Frequencies --   3106.6787              3137.1052              3189.7868
 Red. masses --      1.1016                 1.1016                 1.0854
 Frc consts  --      6.2641                 6.3874                 6.5066
 IR Inten    --     10.3159                10.4113                 1.4017

                     67                     68                     69
                      A                      A                      A
 Frequencies --   3198.4232              3211.9659              3221.7814
 Red. masses --      1.0895                 1.0932                 1.0936
 Frc consts  --      6.5666                 6.6452                 6.6881
 IR Inten    --     13.0533                32.0883                 8.3684

                     70                     71                     72
                      A                      A                      A
 Frequencies --   3224.1249              3236.4394              3692.1407
 Red. masses --      1.0958                 1.0935                 1.0639
 Frc consts  --      6.7111                 6.7487                 8.5449
 IR Inten    --      2.3014                 2.3140                74.6496

 - Thermochemistry -
 -------------------
 Temperature   298.150 Kelvin.  Pressure   1.00000 Atm.
 Atom     1 has atomic number  6 and mass  12.00000

 Molecular mass:   234.03507 amu.
 Principal axes and moments of inertia in atomic units:
                           1         2         3
     Eigenvalues --  2363.084075793.833807500.11945
           X            0.99988  -0.01558   0.00213
           Y            0.01557   0.99987   0.00459
           Z           -0.00220  -0.00455   0.99999
 This molecule is an asymmetric top.
 Rotational symmetry number  1.
 Warning -- assumption of classical behavior for rotation
           may cause significant error
 Rotational temperatures (Kelvin)      0.03665     0.01495     0.01155
 Rotational constants (GHZ):           0.76372     0.31149     0.24063
 Zero-point vibrational energy     512092.4 (Joules/Mol)
                                  122.39303 (Kcal/Mol)
 Warning -- explicit consideration of  21 degrees of freedom as
           vibrations may cause significant error
 Vibrational temperatures:     29.84    49.54    86.82   108.50   124.80
          (Kelvin)            162.21   202.88   289.82   318.35   403.98
                              419.01   451.63   499.78   564.73   610.21
                              694.38   715.81   723.04   824.39   851.11
                              868.12   897.12   919.53   984.43  1010.43
                             1019.35  1071.92  1103.77  1125.02  1189.68
                             1210.84  1213.47  1312.61  1385.10  1420.65
                             1464.22  1471.01  1500.16  1519.37  1538.26
                             1584.85  1597.07  1682.05  1713.94  1726.75
                             1755.33  1787.42  1833.57  1934.64  1966.99
                             2000.37  2076.62  2096.61  2165.93  2169.07
                             2179.70  2212.89  2224.65  2331.52  2378.51
                             2395.13  2581.82  4390.99  4469.82  4513.59
                             4589.39  4601.82  4621.30  4635.42  4638.80
                             4656.51  5312.17

 Zero-point correction=                           0.195046 (Hartree/Particle)
 Thermal correction to Energy=                    0.209491
 Thermal correction to Enthalpy=                  0.210435
 Thermal correction to Gibbs Free Energy=         0.151197
 Sum of electronic and zero-point Energies=          -1087.014956
 Sum of electronic and thermal Energies=             -1087.000511
 Sum of electronic and thermal Enthalpies=           -1086.999567
 Sum of electronic and thermal Free Energies=        -1087.058805

                     E (Thermal)             CV                S
                      KCal/Mol        Cal/Mol-Kelvin    Cal/Mol-Kelvin
 Total                  131.457             53.876            124.677
 Electronic               0.000              0.000              0.000
 Translational            0.889              2.981             42.253
 Rotational               0.889              2.981             32.996
 Vibrational            129.680             47.914             49.429
 Vibration     1          0.593              1.986              6.562
 Vibration     2          0.594              1.983              5.556
 Vibration     3          0.597              1.973              4.446
 Vibration     4          0.599              1.965              4.007
 Vibration     5          0.601              1.958              3.732
 Vibration     6          0.607              1.939              3.221
 Vibration     7          0.615              1.912              2.790
 Vibration     8          0.638              1.838              2.120
 Vibration     9          0.648              1.809              1.949
 Vibration    10          0.680              1.709              1.529
 Vibration    11          0.687              1.690              1.467
 Vibration    12          0.702              1.647              1.342
 Vibration    13          0.725              1.581              1.178
 Vibration    14          0.760              1.486              0.991
 Vibration    15          0.786              1.418              0.878
 Vibration    16          0.839              1.289              0.703
 Vibration    17          0.853              1.256              0.664
 Vibration    18          0.858              1.244              0.652
 Vibration    19          0.929              1.090              0.499
 Vibration    20          0.949              1.050              0.464
 Vibration    21          0.962              1.025              0.444

                           ! Non-Optimized Parameters !
 Normal termination of Gaussian 16 at Fri Dec 11 00:30:07 2020.

 ----------------------------------------------------------------------
 # B3LYP/6-311++G(d,p) empiricaldispersion=gd3bj scf=xqc pop=npa geom=c
 heck
 ----------------------------------------------------------------------

 ---------------------------------------
 CID_117272885_JID_6726_Energie_neutraal
 ---------------------------------------
 Structure from the checkpoint file:  "JID_6726.chk"
 Charge =  0 Multiplicity = 1

 SCF Done:  E(RB3LYP) =  -1087.43147866     A.U. after   16 cycles
 Normal termination of Gaussian 16 at Fri Dec 11 00:33:09 2020.

 ----------------------------------------------------------------------
 # B3LYP/6-311++G(d,p) empiricaldispersion=gd3bj scf=xqc pop=npa geom=c
 heck
 ----------------------------------------------------------------------

 -------------------------------------
 CID_117272885_JID_6726_Energie_kation
 -------------------------------------
 Structure from the checkpoint file:  "JID_6726.chk"
 Charge =  1 Multiplicity = 2

 SCF Done:  E(UB3LYP) =  -1087.13739780     A.U. after   26 cycles
 Normal termination of Gaussian 16 at Fri Dec 11 00:39:45 2020.
 Gaussian 16:  ES64L-G16RevA.03 25-Dec-2016

 ----------------------------------------------------------------------
 # B3LYP/6-311++G(d,p) empiricaldispersion=gd3bj scf=xqc pop=npa geom=c
 heck
 ----------------------------------------------------------------------

 ------------------------------------
 CID_117272885_JID_6726_Energie_anion
 ------------------------------------
 Structure from the checkpoint file:  "JID_6726.chk"
 Charge = -1 Multiplicity = 2

                         Standard orientation:
 ---------------------------------------------------------------------
 Center     Atomic      Atomic             Coordinates (Angstroms)
 Number     Number       Type             X           Y           Z
 ---------------------------------------------------------------------
      1          6           0       -2.107868    3.379413   -0.216266
      2          6           0       -1.705309    1.936741   -0.199408
      3          6           0       -0.463244    1.416968   -0.453286
      4          6           0       -0.432668   -0.007762   -0.365536
      5          6           0       -1.655900   -0.562300   -0.039945
      6         16           0       -2.866673    0.687563    0.150202
      7          6           0       -2.071772   -1.942796    0.177951
      8          8           0       -3.207302   -2.269340    0.479207
      9          8           0       -1.072745   -2.845202    0.022592
     10          8           0        0.658567   -0.769827   -0.650020
     11          6           0        1.908374   -0.339303   -0.237708
     12          6           0        2.977051   -0.621028   -1.087198
     13          6           0        4.267338   -0.263347   -0.699914
     14          6           0        4.487611    0.374928    0.522435
     15          6           0        3.407308    0.645746    1.363758
     16          6           0        2.111565    0.286078    0.993463
     17          1           0       -2.887336    3.570660   -0.962827
     18          1           0       -2.498639    3.699893    0.756488
     19          1           0       -1.244411    4.005533   -0.458522
     20          1           0        0.403652    2.017181   -0.701818
     21          1           0       -1.485853   -3.710104    0.203102
     22          1           0        2.780673   -1.115412   -2.032661
     23          1           0        5.102149   -0.481059   -1.359797
     24          1           0        5.493745    0.655514    0.818605
     25          1           0        3.570570    1.132372    2.321102
     26          1           0        1.269145    0.479340    1.648808
 ---------------------------------------------------------------------

 SCF Done:  E(UB3LYP) =  -1087.43821907     A.U. after   33 cycles
 SCF Done:  E(UB3LYP) =  -1087.43821907     a.u. after    1 cycles

 The electronic state is 2-A.
 Alpha  occ. eigenvalues --  -88.71548 -19.03392 -19.01501 -18.94128 -10.13219
 Alpha  occ. eigenvalues --  -10.12200 -10.08284 -10.07517 -10.07023 -10.06702
 Alpha  occ. eigenvalues --  -10.06519 -10.06221 -10.05673 -10.04875 -10.03665
 Alpha  occ. eigenvalues --  -10.02937  -7.80191  -5.76502  -5.76145  -5.75762
 Alpha  occ. eigenvalues --   -0.95694  -0.95022  -0.85655  -0.75133  -0.73236
 Alpha  occ. eigenvalues --   -0.65049  -0.64493  -0.62713  -0.58864  -0.56385
 Alpha  occ. eigenvalues --   -0.51565  -0.50614  -0.47756  -0.44157  -0.41055
 Alpha  occ. eigenvalues --   -0.40496  -0.38803  -0.36398  -0.34256  -0.33527
 Alpha  occ. eigenvalues --   -0.32658  -0.32227  -0.30936  -0.30244  -0.29943
 Alpha  occ. eigenvalues --   -0.29793  -0.27867  -0.26405  -0.26266  -0.25527
 Alpha  occ. eigenvalues --   -0.24266  -0.23327  -0.21770  -0.20624  -0.19365
 Alpha  occ. eigenvalues --   -0.17360  -0.15502  -0.13415  -0.12739  -0.10216
 Alpha  occ. eigenvalues --   -0.08613   0.04849
 Alpha virt. eigenvalues --    0.07076   0.08289   0.08638   0.08788   0.09591
 Alpha virt. eigenvalues --    0.09876   0.10496   0.11167   0.11671   0.12381
 Alpha virt. eigenvalues --    0.12933   0.13942   0.15035   0.15164   0.15657

  Beta  occ. eigenvalues --  -88.71499 -19.03379 -19.01427 -18.93889 -10.12981
  Beta  occ. eigenvalues --  -10.12157 -10.07991 -10.07527 -10.06947 -10.06662
  Beta  occ. eigenvalues --  -10.06535 -10.06136 -10.05711 -10.04397 -10.03547
  Beta  occ. eigenvalues --  -10.03053  -7.80147  -5.76485  -5.76129  -5.75590
  Beta  occ. eigenvalues --   -0.95539  -0.94787  -0.85281  -0.75001  -0.72863
  Beta  occ. eigenvalues --   -0.64768  -0.64385  -0.62418  -0.58602  -0.56089
  Beta  occ. eigenvalues --   -0.51386  -0.50391  -0.47474  -0.44010  -0.40709
  Beta  occ. eigenvalues --   -0.40307  -0.38620  -0.36262  -0.34152  -0.33241
  Beta  occ. eigenvalues --   -0.32491  -0.32154  -0.30369  -0.30103  -0.29686
  Beta  occ. eigenvalues --   -0.28975  -0.27529  -0.26214  -0.26116  -0.25289
  Beta  occ. eigenvalues --   -0.23999  -0.23097  -0.21576  -0.20025  -0.19026
  Beta  occ. eigenvalues --   -0.16297  -0.15182  -0.12922  -0.12491  -0.09399
  Beta  occ. eigenvalues --   -0.06951
  Beta virt. eigenvalues --    0.07021   0.08219   0.08713   0.08858   0.09550
  Beta virt. eigenvalues --    0.09858   0.10418   0.10879   0.11199   0.11905
  Beta virt. eigenvalues --    0.12707   0.12839   0.13865   0.15012   0.15130

 Mulliken charges and spin densities:
               1          2
     1  C   -0.317581  -0.057400
     2  C    0.185908   0.251407
     3  C    0.098815  -0.053839
     4  C   -0.201870   0.165975
     5  C   -0.057200   0.047368
     6  S   -0.697916   0.130769
     7  C    0.129468   0.144663
     8  O   -0.428926   0.083766
     9  O   -0.232325   0.013482
    10  O    0.034273  -0.001829
    11  C   -0.530903   0.001272
    12  C   -0.049044   0.089564
    13  C   -0.215972  -0.002992
    14  C   -0.304720   0.018775
    15  C   -0.138511   0.057275
    16  C    0.309300  -0.020926
    17  H    0.088957   0.066440
    18  H    0.116232   0.033112
    19  H    0.124556   0.005024
    20  H    0.089556   0.013967
    21  H    0.277868  -0.001001
    22  H    0.158108  -0.005008
    23  H    0.132509   0.002833
    24  H    0.101305   0.008616
    25  H    0.146516  -0.002902
    26  H    0.181598   0.011588
 Sum of Mulliken charges =  -1.00000   1.00000

 Dipole moment (field-independent basis, Debye):
    X=              6.0981    Y=              2.1439    Z=             -0.1675  Tot=              6.4662
 Quadrupole moment (field-independent basis, Debye-Ang):
   XX=           -149.5534   YY=           -116.4634   ZZ=           -107.7102
   XY=             -6.0700   XZ=              1.5669   YZ=              3.0664

 Summary of Natural Population Analysis:

                                       Natural Population
                Natural  -----------------------------------------------
    Atom  No    Charge         Core      Valence    Rydberg      Total
 -----------------------------------------------------------------------
      C    1   -0.30007      0.99962     2.29547    0.00498     3.30007
      C    2   -0.00590      0.99953     1.99479    0.01158     3.00590
      C    3   -0.19282      0.99943     2.18472    0.00867     3.19282
      C    4    0.19766      0.99928     1.79030    0.01276     2.80234
      C    5   -0.16339      0.99940     2.15198    0.01200     3.16339
      S    6    0.22034      4.99942     2.75816    0.02207     7.77966
      C    7    0.41000      0.99961     1.56686    0.02353     2.59000
      O    8   -0.31620      0.99987     3.30977    0.00656     4.31620
      O    9   -0.34289      0.99988     3.33690    0.00611     4.34289
      O   10   -0.25601      0.99983     3.24606    0.01012     4.25601
      C   11    0.16741      0.99936     1.82072    0.01251     2.83259
      C   12   -0.10913      0.99952     2.10055    0.00907     3.10913
      C   13   -0.10367      0.99958     2.09510    0.00899     3.10367
      C   14   -0.11816      0.99957     2.10898    0.00960     3.11816
      C   15   -0.08791      0.99958     2.07903    0.00930     3.08791
      C   16   -0.13105      0.99951     2.12334    0.00820     3.13105
      H   17    0.10343      0.00000     0.39552    0.00105     0.39657
      H   18    0.10260      0.00000     0.39640    0.00099     0.39740
      H   19    0.09881      0.00000     0.40029    0.00090     0.40119
      H   20    0.10217      0.00000     0.39671    0.00112     0.39783
      H   21    0.22495      0.00000     0.26918    0.00587     0.27505
      H   22    0.10423      0.00000     0.39474    0.00104     0.39577
      H   23    0.09430      0.00000     0.40472    0.00098     0.40570
      H   24    0.09378      0.00000     0.40523    0.00100     0.40622
      H   25    0.09447      0.00000     0.40454    0.00099     0.40553
      H   26    0.11306      0.00000     0.38593    0.00100     0.38694
 =======================================================================
   * Total *   -0.00000     19.99300    40.81601    0.19099    61.00000

 Normal termination of Gaussian 16 at Fri Dec 11 00:48:11 2020.
