 Gaussian 16, Revision A.03,

 -----------------------------------------------------------
 # opt freq B3LYP/6-31G(d) empiricaldispersion=gd3bj scf=xqc
 -----------------------------------------------------------

 ------------------------------
 CID_87248801_JID_7565_neutraal
 ------------------------------
 Symbolic Z-matrix:
 Charge =  0 Multiplicity = 1

 SCF Done:  E(RB3LYP) =  -1051.10145354     A.U. after   16 cycles
 SCF Done:  E(RB3LYP) =  -1051.11066491     A.U. after   13 cycles
 SCF Done:  E(RB3LYP) =  -1051.11157286     A.U. after   12 cycles
 SCF Done:  E(RB3LYP) =  -1051.11165048     A.U. after   11 cycles
 SCF Done:  E(RB3LYP) =  -1051.11164532     A.U. after   11 cycles
 SCF Done:  E(RB3LYP) =  -1051.11160565     A.U. after   11 cycles
 SCF Done:  E(RB3LYP) =  -1051.11165860     A.U. after   11 cycles
 SCF Done:  E(RB3LYP) =  -1051.11166305     A.U. after    9 cycles
 SCF Done:  E(RB3LYP) =  -1051.11166376     A.U. after    9 cycles
 SCF Done:  E(RB3LYP) =  -1051.11167150     A.U. after   12 cycles
 SCF Done:  E(RB3LYP) =  -1051.11186284     A.U. after   13 cycles
 SCF Done:  E(RB3LYP) =  -1051.11187636     A.U. after   13 cycles
 SCF Done:  E(RB3LYP) =  -1051.11187871     A.U. after    9 cycles
 SCF Done:  E(RB3LYP) =  -1051.11188077     A.U. after   11 cycles
 SCF Done:  E(RB3LYP) =  -1051.11188142     A.U. after   11 cycles
 SCF Done:  E(RB3LYP) =  -1051.11188144     A.U. after    7 cycles
 Optimization completed.
    -- Stationary point found.
 Normal termination of Gaussian 16 at Mon Dec 14 19:00:16 2020.

 --------------------------------------------------------------------
 #N Geom=AllCheck Guess=TCheck SCRF=Check GenChk RB3LYP/6-31G(d) Freq
 --------------------------------------------------------------------

 Structure from the checkpoint file:  "JID_7565.chk"
 ------------------------------
 CID_87248801_JID_7565_neutraal
 ------------------------------
 Charge =  0 Multiplicity = 1

 SCF Done:  E(RB3LYP) =  -1051.11188144     A.U. after    1 cycles

  Exact polarizability: 279.258   4.389 199.744   0.081   8.349  78.471
 Approx polarizability: 485.215  11.191 347.773   5.121  29.855 143.985

                      1                      2                      3
                      A                      A                      A
 Frequencies --     32.5677                66.7754                91.7448
 Red. masses --     15.2467                 5.1809                 5.6861
 Frc consts  --      0.0095                 0.0136                 0.0282
 IR Inten    --      0.7571                 0.1040                 1.0091

                      4                      5                      6
                      A                      A                      A
 Frequencies --    117.1908               146.6659               201.4939
 Red. masses --      3.8866                 6.5003                 6.8951
 Frc consts  --      0.0314                 0.0824                 0.1649
 IR Inten    --      0.0485                 0.2830                 1.1920

                      7                      8                      9
                      A                      A                      A
 Frequencies --    232.1585               235.7473               311.6436
 Red. masses --      5.1704                 4.8892                 4.4021
 Frc consts  --      0.1642                 0.1601                 0.2519
 IR Inten    --      2.7589                 0.1061                 1.0384

                     10                     11                     12
                      A                      A                      A
 Frequencies --    359.1892               367.8793               403.3790
 Red. masses --      5.7594                 1.1424                 6.2633
 Frc consts  --      0.4378                 0.0911                 0.6005
 IR Inten    --      0.5547                17.1061                 1.3022

                     13                     14                     15
                      A                      A                      A
 Frequencies --    410.8045               429.1280               475.0763
 Red. masses --      4.5813                 4.1972                 6.2146
 Frc consts  --      0.4555                 0.4554                 0.8264
 IR Inten    --      1.1775                 0.2662                 4.3910

                     16                     17                     18
                      A                      A                      A
 Frequencies --    483.3621               503.8628               523.2001
 Red. masses --      2.8823                 3.6295                 5.7144
 Frc consts  --      0.3968                 0.5429                 0.9216
 IR Inten    --      0.9247                 0.3275                 9.1620

                     19                     20                     21
                      A                      A                      A
 Frequencies --    557.1039               599.7584               618.7494
 Red. masses --      3.6957                 4.5782                 6.6170
 Frc consts  --      0.6758                 0.9703                 1.4926
 IR Inten    --     15.4824                22.2539                15.6254

                     22                     23                     24
                      A                      A                      A
 Frequencies --    656.7888               682.2755               690.8122
 Red. masses --      6.1312                 7.1166                 5.8508
 Frc consts  --      1.5583                 1.9518                 1.6451
 IR Inten    --      1.6317                 1.8419                 0.9209

                     25                     26                     27
                      A                      A                      A
 Frequencies --    749.2023               755.0756               770.2019
 Red. masses --      1.3589                 3.8781                 3.9303
 Frc consts  --      0.4494                 1.3027                 1.3737
 IR Inten    --     34.9770                 2.2718                59.3101

                     28                     29                     30
                      A                      A                      A
 Frequencies --    773.8013               810.9474               859.6414
 Red. masses --      1.3539                 3.1018                 1.7871
 Frc consts  --      0.4776                 1.2019                 0.7781
 IR Inten    --      0.6675                73.2919                 4.6046

                     31                     32                     33
                      A                      A                      A
 Frequencies --    870.0022               870.8115               884.7557
 Red. masses --      1.9528                 1.8495                 3.5231
 Frc consts  --      0.8708                 0.8263                 1.6249
 IR Inten    --     12.0557                15.7598                23.6719

                     34                     35                     36
                      A                      A                      A
 Frequencies --    912.5471               931.4460               947.4749
 Red. masses --      1.5682                 1.9575                 6.4913
 Frc consts  --      0.7694                 1.0006                 3.4334
 IR Inten    --     19.5368                32.7740                 1.9849

                     37                     38                     39
                      A                      A                      A
 Frequencies --    960.8570               965.0206               992.0557
 Red. masses --      1.3199                 1.3544                 1.2819
 Frc consts  --      0.7180                 0.7432                 0.7433
 IR Inten    --      0.9095                 3.9070                 0.2005

                     40                     41                     42
                      A                      A                      A
 Frequencies --    994.6504              1051.3105              1052.8838
 Red. masses --      1.2876                 2.3649                 2.2236
 Frc consts  --      0.7506                 1.5400                 1.4524
 IR Inten    --      0.1307                 2.2208                 4.7068

                     43                     44                     45
                      A                      A                      A
 Frequencies --   1091.1322              1141.0441              1187.3014
 Red. masses --      5.4879                 2.2350                 1.2397
 Frc consts  --      3.8496                 1.7144                 1.0296
 IR Inten    --    150.8883                 0.2147                 1.1508

                     46                     47                     48
                      A                      A                      A
 Frequencies --   1194.8400              1213.6329              1221.6894
 Red. masses --      1.2503                 1.1853                 1.3470
 Frc consts  --      1.0517                 1.0286                 1.1845
 IR Inten    --     15.6683                 4.9623                 0.7876

                     49                     50                     51
                      A                      A                      A
 Frequencies --   1272.4025              1309.9947              1320.7297
 Red. masses --      1.6941                 2.4956                 1.9152
 Frc consts  --      1.6160                 2.5233                 1.9683
 IR Inten    --      0.8312                12.1904                 3.7297

                     52                     53                     54
                      A                      A                      A
 Frequencies --   1368.1461              1375.0114              1423.7151
 Red. masses --      3.0405                 5.0791                 4.4660
 Frc consts  --      3.3532                 5.6578                 5.3335
 IR Inten    --      4.7095                 7.2471                 0.3246

                     55                     56                     57
                      A                      A                      A
 Frequencies --   1432.4144              1452.0021              1500.2600
 Red. masses --      1.6116                 9.1269                 2.1766
 Frc consts  --      1.9482                11.3373                 2.8865
 IR Inten    --      0.4506                 1.6965                 7.8403

                     58                     59                     60
                      A                      A                      A
 Frequencies --   1501.2189              1541.3687              1581.1256
 Red. masses --      2.4390                 2.5500                 5.9809
 Frc consts  --      3.2386                 3.5695                 8.8095
 IR Inten    --      6.2404                 3.1747                 7.3186

                     61                     62                     63
                      A                      A                      A
 Frequencies --   1612.9081              1635.2087              1680.8001
 Red. masses --      7.1965                 5.4029                 5.5918
 Frc consts  --     11.0305                 8.5119                 9.3076
 IR Inten    --      4.8306                 0.1810                 3.0138

                     64                     65                     66
                      A                      A                      A
 Frequencies --   1691.5935              1794.5649              2686.6268
 Red. masses --      5.5408                12.6717                 1.0382
 Frc consts  --      9.3415                24.0439                 4.4150
 IR Inten    --      2.6354               244.9113                 8.3172

                     67                     68                     69
                      A                      A                      A
 Frequencies --   3178.4010              3184.5020              3185.5877
 Red. masses --      1.0897                 1.0864                 1.0868
 Frc consts  --      6.4859                 6.4915                 6.4979
 IR Inten    --      3.9466                 0.0818                 6.3203

                     70                     71                     72
                      A                      A                      A
 Frequencies --   3196.4512              3196.6517              3210.9864
 Red. masses --      1.0895                 1.0898                 1.0949
 Frc consts  --      6.5587                 6.5610                 6.6512
 IR Inten    --      2.7071                28.0903                43.3845

                     73                     74                     75
                      A                      A                      A
 Frequencies --   3211.3698              3226.9652              3233.5865
 Red. masses --      1.0953                 1.0940                 1.0932
 Frc consts  --      6.6551                 6.7118                 6.7346
 IR Inten    --     20.9903                12.0211                 8.3148

 - Thermochemistry -
 -------------------
 Temperature   298.150 Kelvin.  Pressure   1.00000 Atm.
 Atom     1 has atomic number  6 and mass  12.00000

 Molecular mass:   238.04524 amu.
 Principal axes and moments of inertia in atomic units:
                           1         2         3
     Eigenvalues --  3165.453744326.327786949.21689
           X            0.99997   0.00674  -0.00264
           Y           -0.00673   0.99997   0.00461
           Z            0.00267  -0.00459   0.99999
 This molecule is an asymmetric top.
 Rotational symmetry number  1.
 Warning -- assumption of classical behavior for rotation
           may cause significant error
 Rotational temperatures (Kelvin)      0.02736     0.02002     0.01246
 Rotational constants (GHZ):           0.57014     0.41715     0.25970
 Zero-point vibrational energy     534756.3 (Joules/Mol)
                                  127.80983 (Kcal/Mol)
 Warning -- explicit consideration of  21 degrees of freedom as
           vibrations may cause significant error
 Vibrational temperatures:     46.86    96.07   132.00   168.61   211.02
          (Kelvin)            289.90   334.02   339.19   448.39   516.79
                              529.30   580.37   591.06   617.42   683.53
                              695.45   724.95   752.77   801.55   862.92
                              890.24   944.97   981.64   993.92  1077.93
                             1086.39  1108.15  1113.33  1166.77  1236.83
                             1251.74  1252.90  1272.97  1312.95  1340.14
                             1363.21  1382.46  1388.45  1427.35  1431.08
                             1512.60  1514.86  1569.90  1641.71  1708.26
                             1719.11  1746.15  1757.74  1830.70  1884.79
                             1900.24  1968.46  1978.33  2048.41  2060.92
                             2089.11  2158.54  2159.92  2217.69  2274.89
                             2320.62  2352.70  2418.30  2433.83  2581.98
                             3865.46  4573.01  4581.79  4583.35  4598.98
                             4599.27  4619.89  4620.44  4642.88  4652.41

 Zero-point correction=                           0.203678 (Hartree/Particle)
 Thermal correction to Energy=                    0.216873
 Thermal correction to Enthalpy=                  0.217817
 Thermal correction to Gibbs Free Energy=         0.163149
 Sum of electronic and zero-point Energies=          -1050.908204
 Sum of electronic and thermal Energies=             -1050.895008
 Sum of electronic and thermal Enthalpies=           -1050.894064
 Sum of electronic and thermal Free Energies=        -1050.948732

                     E (Thermal)             CV                S
                      KCal/Mol        Cal/Mol-Kelvin    Cal/Mol-Kelvin
 Total                  136.090             53.059            115.058
 Electronic               0.000              0.000              0.000
 Translational            0.889              2.981             42.303
 Rotational               0.889              2.981             32.920
 Vibrational            134.312             47.098             39.835
 Vibration     1          0.594              1.983              5.667
 Vibration     2          0.598              1.970              4.246
 Vibration     3          0.602              1.955              3.623
 Vibration     4          0.608              1.935              3.146
 Vibration     5          0.617              1.906              2.715
 Vibration     6          0.638              1.838              2.119
 Vibration     7          0.653              1.792              1.862
 Vibration     8          0.655              1.786              1.835
 Vibration     9          0.700              1.652              1.354
 Vibration    10          0.734              1.556              1.126
 Vibration    11          0.740              1.538              1.089
 Vibration    12          0.769              1.463              0.950
 Vibration    13          0.775              1.447              0.924
 Vibration    14          0.790              1.407              0.862
 Vibration    15          0.832              1.305              0.723
 Vibration    16          0.840              1.287              0.701
 Vibration    17          0.859              1.241              0.649
 Vibration    18          0.878              1.199              0.603
 Vibration    19          0.913              1.124              0.530
 Vibration    20          0.958              1.032              0.450
 Vibration    21          0.979              0.992              0.419

 Optimization completed.
    -- Stationary point found.
 Normal termination of Gaussian 16 at Mon Dec 14 19:10:27 2020.

 ----------------------------------------------------------------------
 # B3LYP/6-311++G(d,p) empiricaldispersion=gd3bj scf=xqc pop=npa geom=c
 heck
 ----------------------------------------------------------------------

 --------------------------------------
 CID_87248801_JID_7565_Energie_neutraal
 --------------------------------------
 Structure from the checkpoint file:  "JID_7565.chk"
 Charge =  0 Multiplicity = 1

 SCF Done:  E(RB3LYP) =  -1051.30530029     A.U. after   17 cycles
 Normal termination of Gaussian 16 at Mon Dec 14 19:15:50 2020.

 ----------------------------------------------------------------------
 # B3LYP/6-311++G(d,p) empiricaldispersion=gd3bj scf=xqc pop=npa geom=c
 heck
 ----------------------------------------------------------------------

 ------------------------------------
 CID_87248801_JID_7565_Energie_kation
 ------------------------------------
 Structure from the checkpoint file:  "JID_7565.chk"
 Charge =  1 Multiplicity = 2

 SCF Done:  E(UB3LYP) =  -1051.03452187     A.U. after   23 cycles
 Normal termination of Gaussian 16 at Mon Dec 14 19:25:44 2020.
 Gaussian 16:  ES64L-G16RevA.03 25-Dec-2016

 ----------------------------------------------------------------------
 # B3LYP/6-311++G(d,p) empiricaldispersion=gd3bj scf=xqc pop=npa geom=c
 heck
 ----------------------------------------------------------------------

 -----------------------------------
 CID_87248801_JID_7565_Energie_anion
 -----------------------------------
 Structure from the checkpoint file:  "JID_7565.chk"
 Charge = -1 Multiplicity = 2

                         Standard orientation:
 ---------------------------------------------------------------------
 Center     Atomic      Atomic             Coordinates (Angstroms)
 Number     Number       Type             X           Y           Z
 ---------------------------------------------------------------------
      1          6           0       -3.481266   -1.886779    0.025348
      2          6           0       -3.599883   -0.488615    0.265894
      3          6           0       -2.489082    0.309570    0.334678
      4          6           0       -1.177533   -0.235857    0.163103
      5          6           0       -1.059460   -1.657959   -0.057995
      6          6           0       -2.244927   -2.451895   -0.127635
      7          6           0        0.208595   -2.228383   -0.192210
      8          6           0        1.376322   -1.466349   -0.100603
      9          6           0        2.667711   -2.062008   -0.232801
     10          6           0        3.803918   -1.305096   -0.144836
     11          6           0        3.709676    0.096952    0.082805
     12          6           0        2.491118    0.708223    0.216420
     13          6           0        1.278796   -0.045171    0.130594
     14          6           0       -0.002024    0.539864    0.235133
     15          6           0       -0.077635    2.026191    0.417126
     16          8           0        0.301701    2.624170    1.396041
     17         16           0       -0.712484    2.888431   -1.055885
     18          1           0       -4.375785   -2.500262   -0.027120
     19          1           0       -4.585020   -0.052145    0.401831
     20          1           0       -2.600548    1.369833    0.529731
     21          1           0       -2.138491   -3.519835   -0.299225
     22          1           0        0.289577   -3.298707   -0.367739
     23          1           0        2.724294   -3.133547   -0.405645
     24          1           0        4.781024   -1.767921   -0.246796
     25          1           0        4.618268    0.687559    0.154953
     26          1           0        2.439002    1.774001    0.404210
     27          1           0       -0.592135    4.116645   -0.508485
 ---------------------------------------------------------------------

 SCF Done:  E(UB3LYP) =  -1051.34055961     A.U. after   24 cycles

 The electronic state is 2-A.
 Alpha  occ. eigenvalues --  -88.74323 -19.00524 -10.16522 -10.05335 -10.05266
 Alpha  occ. eigenvalues --  -10.04747 -10.04707 -10.04142 -10.04080 -10.03964
 Alpha  occ. eigenvalues --  -10.03918 -10.03890 -10.03746 -10.03740 -10.03537
 Alpha  occ. eigenvalues --  -10.03378 -10.02331  -7.83072  -5.79427  -5.79009
 Alpha  occ. eigenvalues --   -5.78547  -0.94192  -0.74893  -0.71736  -0.67666
 Alpha  occ. eigenvalues --   -0.66193  -0.63885  -0.62002  -0.60634  -0.57791
 Alpha  occ. eigenvalues --   -0.51942  -0.49474  -0.48586  -0.46081  -0.42526
 Alpha  occ. eigenvalues --   -0.40411  -0.39561  -0.36745  -0.34290  -0.33588
 Alpha  occ. eigenvalues --   -0.33364  -0.33068  -0.32136  -0.30419  -0.29629
 Alpha  occ. eigenvalues --   -0.27818  -0.27020  -0.26904  -0.26595  -0.26078
 Alpha  occ. eigenvalues --   -0.25034  -0.23480  -0.21788  -0.20648  -0.20489
 Alpha  occ. eigenvalues --   -0.17914  -0.17054  -0.15629  -0.14263  -0.12980
 Alpha  occ. eigenvalues --   -0.11513  -0.07482   0.01790
 Alpha virt. eigenvalues --    0.08306   0.08347   0.08685   0.08796   0.09887
 Alpha virt. eigenvalues --    0.10532   0.10692   0.11405   0.11468   0.11732
 Alpha virt. eigenvalues --    0.12618   0.13288   0.14104   0.14628   0.14733

  Beta  occ. eigenvalues --  -88.74317 -19.00444 -10.16481 -10.05340 -10.05269
  Beta  occ. eigenvalues --  -10.04825 -10.04780 -10.04122 -10.04051 -10.03863
  Beta  occ. eigenvalues --  -10.03827 -10.03585 -10.03566 -10.03560 -10.03415
  Beta  occ. eigenvalues --  -10.03258 -10.01922  -7.83066  -5.79423  -5.79003
  Beta  occ. eigenvalues --   -5.78536  -0.94031  -0.74611  -0.71484  -0.67323
  Beta  occ. eigenvalues --   -0.65841  -0.63671  -0.61698  -0.60470  -0.57383
  Beta  occ. eigenvalues --   -0.51361  -0.49215  -0.48510  -0.45822  -0.42307
  Beta  occ. eigenvalues --   -0.40108  -0.39439  -0.36581  -0.34107  -0.33418
  Beta  occ. eigenvalues --   -0.33221  -0.32915  -0.31969  -0.30264  -0.29505
  Beta  occ. eigenvalues --   -0.27649  -0.26919  -0.26622  -0.26031  -0.25899
  Beta  occ. eigenvalues --   -0.24905  -0.22793  -0.21699  -0.20556  -0.20320
  Beta  occ. eigenvalues --   -0.16962  -0.15886  -0.15463  -0.14073  -0.12128
  Beta  occ. eigenvalues --   -0.10944  -0.05770
  Beta virt. eigenvalues --    0.06745   0.08333   0.08665   0.08785   0.08885
  Beta virt. eigenvalues --    0.09881   0.10530   0.10749   0.11467   0.11517
  Beta virt. eigenvalues --    0.12624   0.12805   0.13473   0.14178   0.14721

 Mulliken charges and spin densities:
               1          2
     1  C   -0.392617   0.022924
     2  C   -0.414959   0.083006
     3  C   -0.417793   0.056074
     4  C    0.240735   0.015032
     5  C    0.681892  -0.059453
     6  C   -0.119053   0.122648
     7  C   -0.247432   0.319366
     8  C    0.679387  -0.058281
     9  C   -0.216873   0.112410
    10  C   -0.403055   0.029893
    11  C   -0.578430   0.063323
    12  C   -0.488947   0.050583
    13  C    0.286252   0.027215
    14  C    0.496688   0.193721
    15  C   -0.482458   0.047783
    16  O   -0.239659   0.023221
    17  S   -0.318067   0.013452
    18  H    0.106487  -0.001357
    19  H    0.120325  -0.006386
    20  H    0.098355  -0.005576
    21  H    0.095364  -0.011125
    22  H    0.018961  -0.022543
    23  H    0.091481  -0.010725
    24  H    0.105864  -0.001968
    25  H    0.118781  -0.005912
    26  H    0.141595  -0.002412
    27  H    0.037175   0.005085
 Sum of Mulliken charges =  -1.00000   1.00000

 Dipole moment (field-independent basis, Debye):
    X=             -0.4782    Y=              0.2880    Z=             -1.1313  Tot=              1.2616
 Quadrupole moment (field-independent basis, Debye-Ang):
   XX=           -136.4434   YY=           -121.8640   ZZ=           -123.3425
   XY=             -2.1754   XZ=             -1.1636   YZ=             -1.9447

 Summary of Natural Population Analysis:

                                       Natural Population
                Natural  -----------------------------------------------
    Atom  No    Charge         Core      Valence    Rydberg      Total
 -----------------------------------------------------------------------
      C    1   -0.11497      0.99957     2.10550    0.00991     3.11497
      C    2   -0.08959      0.99957     2.08042    0.00960     3.08959
      C    3   -0.08315      0.99955     2.07523    0.00837     3.08315
      C    4   -0.01202      0.99941     2.00360    0.00901     3.01202
      C    5   -0.04869      0.99951     2.04086    0.00832     3.04869
      C    6   -0.05585      0.99953     2.04746    0.00885     3.05585
      C    7    0.01283      0.99941     1.97913    0.00863     2.98717
      C    8   -0.04811      0.99951     2.04028    0.00832     3.04811
      C    9   -0.05879      0.99953     2.05036    0.00889     3.05879
      C   10   -0.11271      0.99957     2.10334    0.00981     3.11271
      C   11   -0.09417      0.99960     2.08472    0.00986     3.09417
      C   12   -0.07481      0.99946     2.06669    0.00867     3.07481
      C   13   -0.00994      0.99940     2.00099    0.00954     3.00994
      C   14   -0.02534      0.99939     2.01233    0.01363     3.02534
      C   15    0.23567      0.99963     1.73892    0.02577     2.76433
      O   16   -0.27840      0.99986     3.26864    0.00989     4.27840
      S   17   -0.02572      4.99958     3.01261    0.01353     8.02572
      H   18    0.09011      0.00000     0.40882    0.00106     0.40989
      H   19    0.09100      0.00000     0.40832    0.00069     0.40900
      H   20    0.09988      0.00000     0.39934    0.00078     0.40012
      H   21    0.08886      0.00000     0.40959    0.00155     0.41114
      H   22    0.08527      0.00000     0.41395    0.00078     0.41473
      H   23    0.08894      0.00000     0.40951    0.00155     0.41106
      H   24    0.08993      0.00000     0.40900    0.00107     0.41007
      H   25    0.09100      0.00000     0.40831    0.00069     0.40900
      H   26    0.10257      0.00000     0.39682    0.00061     0.39743
      H   27    0.05640      0.00000     0.43981    0.00379     0.44360
 =======================================================================
   * Total *    0.00020     20.99208    40.81456    0.19316    61.99980

 Normal termination of Gaussian 16 at Mon Dec 14 19:35:48 2020.
