 Gaussian 16, Revision A.03,

 -----------------------------------------------------------
 # opt freq B3LYP/6-31G(d) empiricaldispersion=gd3bj scf=xqc
 -----------------------------------------------------------

 -------------------------------
 CID_47328978_JID_10839_neutraal
 -------------------------------
 Symbolic Z-matrix:
 Charge =  0 Multiplicity = 1

 SCF Done:  E(RB3LYP) =  -863.076783065     A.U. after   15 cycles
 SCF Done:  E(RB3LYP) =  -863.083168692     A.U. after   14 cycles
 SCF Done:  E(RB3LYP) =  -863.085090438     A.U. after   13 cycles
 SCF Done:  E(RB3LYP) =  -863.086418082     A.U. after   13 cycles
 SCF Done:  E(RB3LYP) =  -863.087311066     A.U. after   12 cycles
 SCF Done:  E(RB3LYP) =  -863.088268664     A.U. after   12 cycles
 SCF Done:  E(RB3LYP) =  -863.088791968     A.U. after   13 cycles
 SCF Done:  E(RB3LYP) =  -863.089078774     A.U. after   11 cycles
 SCF Done:  E(RB3LYP) =  -863.089230364     A.U. after   11 cycles
 SCF Done:  E(RB3LYP) =  -863.089287688     A.U. after   11 cycles
 SCF Done:  E(RB3LYP) =  -863.097056172     A.U. after    8 cycles
 SCF Done:  E(RB3LYP) =  -863.097057229     A.U. after    9 cycles
 SCF Done:  E(RB3LYP) =  -863.097057339     A.U. after    8 cycles
 SCF Done:  E(RB3LYP) =  -863.097057365     A.U. after    7 cycles
 Optimization completed.
    -- Stationary point found.
 Normal termination of Gaussian 16 at Sun Dec 13 13:50:14 2020.

 --------------------------------------------------------------------
 #N Geom=AllCheck Guess=TCheck SCRF=Check GenChk RB3LYP/6-31G(d) Freq
 --------------------------------------------------------------------

 Structure from the checkpoint file:  "JID_10839.chk"
 -------------------------------
 CID_47328978_JID_10839_neutraal
 -------------------------------
 Charge =  0 Multiplicity = 1

 SCF Done:  E(RB3LYP) =  -863.097057365     A.U. after    1 cycles

  Exact polarizability: 183.399  -2.214 188.305  18.442  -2.071 160.986
 Approx polarizability: 229.956  -3.411 301.989  37.253   6.264 266.327

                      1                      2                      3
                      A                      A                      A
 Frequencies --     18.0352                26.2950                34.1464
 Red. masses --      5.0527                 3.9887                 4.7553
 Frc consts  --      0.0010                 0.0016                 0.0033
 IR Inten    --      0.0173                 0.3374                 0.2118

                      4                      5                      6
                      A                      A                      A
 Frequencies --     44.6679                73.6371                85.3472
 Red. masses --      3.5497                 5.8976                 3.7105
 Frc consts  --      0.0042                 0.0188                 0.0159
 IR Inten    --      0.1843                 2.1832                 0.1847

                      7                      8                      9
                      A                      A                      A
 Frequencies --    113.9641               144.2487               179.5248
 Red. masses --      3.9960                 3.6644                 2.8103
 Frc consts  --      0.0306                 0.0449                 0.0534
 IR Inten    --      0.0709                 0.3115                 0.2495

                     10                     11                     12
                      A                      A                      A
 Frequencies --    200.4570               221.6630               226.2141
 Red. masses --      3.9213                 1.4197                 3.4030
 Frc consts  --      0.0928                 0.0411                 0.1026
 IR Inten    --      1.5973                 2.3684                 2.2632

                     13                     14                     15
                      A                      A                      A
 Frequencies --    244.5543               265.5594               278.8702
 Red. masses --      3.3843                 3.4186                 2.7922
 Frc consts  --      0.1193                 0.1420                 0.1279
 IR Inten    --      0.4089                 2.5759                 1.7919

                     16                     17                     18
                      A                      A                      A
 Frequencies --    344.4825               368.7400               387.4212
 Red. masses --      2.5026                 2.4663                 2.6285
 Frc consts  --      0.1750                 0.1976                 0.2324
 IR Inten    --      0.6555                 2.2213                 1.4702

                     19                     20                     21
                      A                      A                      A
 Frequencies --    391.2475               392.4531               417.5803
 Red. masses --      2.2784                 2.4020                 2.0639
 Frc consts  --      0.2055                 0.2180                 0.2120
 IR Inten    --      3.2635                 1.7965                 3.4615

                     22                     23                     24
                      A                      A                      A
 Frequencies --    421.1242               480.4322               488.7418
 Red. masses --      2.1574                 3.3920                 3.5510
 Frc consts  --      0.2254                 0.4613                 0.4998
 IR Inten    --      5.5080                 8.1474                 5.7197

                     25                     26                     27
                      A                      A                      A
 Frequencies --    519.8972               533.3159               585.2944
 Red. masses --      4.5569                 2.7039                 2.0387
 Frc consts  --      0.7257                 0.4531                 0.4115
 IR Inten    --     10.2811                22.4039                26.4262

                     28                     29                     30
                      A                      A                      A
 Frequencies --    619.0263               648.6333               688.4911
 Red. masses --      2.1644                 3.5724                 6.7848
 Frc consts  --      0.4887                 0.8855                 1.8949
 IR Inten    --     34.6961                23.9050                 0.5163

                     31                     32                     33
                      A                      A                      A
 Frequencies --    701.7200               740.9214               764.7148
 Red. masses --      2.7017                 3.7909                 3.4651
 Frc consts  --      0.7838                 1.2261                 1.1939
 IR Inten    --      9.9165                13.7652                 8.2350

                     34                     35                     36
                      A                      A                      A
 Frequencies --    776.1932               780.2098               808.6775
 Red. masses --      2.6225                 2.4202                 2.6915
 Frc consts  --      0.9309                 0.8680                 1.0370
 IR Inten    --      1.8327                 7.0050                 6.0965

                     37                     38                     39
                      A                      A                      A
 Frequencies --    819.7832               829.1453               865.6745
 Red. masses --      2.0857                 1.6018                 2.7723
 Frc consts  --      0.8258                 0.6488                 1.2240
 IR Inten    --     13.2049                 0.2915                 3.8232

                     40                     41                     42
                      A                      A                      A
 Frequencies --    874.5561               877.5833               894.6219
 Red. masses --      1.5910                 2.2605                 1.2556
 Frc consts  --      0.7169                 1.0257                 0.5921
 IR Inten    --     22.1092                 1.4362                 0.2457

                     43                     44                     45
                      A                      A                      A
 Frequencies --    906.6307               908.7867               959.8161
 Red. masses --      2.3904                 2.4388                 1.2122
 Frc consts  --      1.1577                 1.1867                 0.6580
 IR Inten    --     12.4989                 8.7236                 1.5298

                     46                     47                     48
                      A                      A                      A
 Frequencies --    979.9728               985.1481               992.2096
 Red. masses --      1.3124                 1.8496                 1.4603
 Frc consts  --      0.7426                 1.0576                 0.8471
 IR Inten    --      1.3438                 1.4941                 0.0247

                     49                     50                     51
                      A                      A                      A
 Frequencies --   1011.6511              1017.1771              1026.9038
 Red. masses --      2.5094                 4.6755                 2.4414
 Frc consts  --      1.5132                 2.8502                 1.5169
 IR Inten    --      7.0136                 4.0572                 6.6600

                     52                     53                     54
                      A                      A                      A
 Frequencies --   1035.4108              1048.9467              1067.3308
 Red. masses --      1.6223                 2.4177                 2.1404
 Frc consts  --      1.0247                 1.5673                 1.4366
 IR Inten    --      7.0131                12.4537                 3.4127

                     55                     56                     57
                      A                      A                      A
 Frequencies --   1085.9052              1103.5853              1107.4262
 Red. masses --      1.3376                 2.0175                 1.4079
 Frc consts  --      0.9293                 1.4477                 1.0173
 IR Inten    --      3.5370                 2.1256                 9.2051

                     58                     59                     60
                      A                      A                      A
 Frequencies --   1114.0113              1123.6622              1129.6043
 Red. masses --      1.6470                 1.3132                 1.5772
 Frc consts  --      1.2042                 0.9769                 1.1857
 IR Inten    --     20.9589                 3.2810                 6.8275

                     61                     62                     63
                      A                      A                      A
 Frequencies --   1143.3972              1149.1677              1156.6997
 Red. masses --      2.3068                 2.5349                 1.4464
 Frc consts  --      1.7769                 1.9724                 1.1402
 IR Inten    --     32.6276                14.4647                 4.9715

                     64                     65                     66
                      A                      A                      A
 Frequencies --   1193.7536              1215.4787              1221.1847
 Red. masses --      2.5538                 1.3303                 1.5394
 Frc consts  --      2.1442                 1.1580                 1.3526
 IR Inten    --     15.7955                 4.5334                 1.6795

                     67                     68                     69
                      A                      A                      A
 Frequencies --   1229.9380              1234.8319              1247.2908
 Red. masses --      1.2032                 3.2109                 1.6249
 Frc consts  --      1.0724                 2.8846                 1.4894
 IR Inten    --      7.4450                 7.9275                 0.1202

                     70                     71                     72
                      A                      A                      A
 Frequencies --   1257.8391              1298.2697              1306.3186
 Red. masses --      1.2866                 1.3417                 2.1594
 Frc consts  --      1.1993                 1.3324                 2.1711
 IR Inten    --      6.2227                25.9778               166.6592

                     73                     74                     75
                      A                      A                      A
 Frequencies --   1308.7206              1347.2009              1349.2270
 Red. masses --      6.3100                 1.5423                 1.5264
 Frc consts  --      6.3675                 1.6492                 1.6371
 IR Inten    --      9.3605                 7.2849                18.7335

                     76                     77                     78
                      A                      A                      A
 Frequencies --   1356.8598              1374.7222              1382.8658
 Red. masses --      1.4923                 1.3827                 1.2991
 Frc consts  --      1.6187                 1.5396                 1.4638
 IR Inten    --     17.9283                 1.2834                 0.5898

                     79                     80                     81
                      A                      A                      A
 Frequencies --   1386.6538              1390.6117              1411.1694
 Red. masses --      1.2670                 1.2834                 1.3846
 Frc consts  --      1.4354                 1.4623                 1.6246
 IR Inten    --     21.8168                 1.6950                 6.4022

                     82                     83                     84
                      A                      A                      A
 Frequencies --   1414.0873              1420.0540              1449.3829
 Red. masses --      1.4030                 1.4088                 1.4506
 Frc consts  --      1.6529                 1.6738                 1.7954
 IR Inten    --      1.2238                 3.6460                 7.4773

                     85                     86                     87
                      A                      A                      A
 Frequencies --   1452.2962              1463.0646              1465.1216
 Red. masses --      1.3925                 2.0432                 1.9786
 Frc consts  --      1.7304                 2.5768                 2.5024
 IR Inten    --      5.4720                10.0679               161.8691

                     88                     89                     90
                      A                      A                      A
 Frequencies --   1486.8723              1501.6801              1502.7342
 Red. masses --      1.5994                 1.1123                 1.0961
 Frc consts  --      2.0833                 1.4779                 1.4584
 IR Inten    --     92.2839                 6.3596                 8.5132

                     91                     92                     93
                      A                      A                      A
 Frequencies --   1508.1827              1515.4987              1530.1208
 Red. masses --      1.3661                 1.0965                 1.1058
 Frc consts  --      1.8308                 1.4838                 1.5254
 IR Inten    --     18.6513                 6.6824                 4.9080

                     94                     95                     96
                      A                      A                      A
 Frequencies --   1533.7757              1537.3814              1543.8659
 Red. masses --      1.0856                 1.0515                 2.0526
 Frc consts  --      1.5046                 1.4643                 2.8826
 IR Inten    --      1.8160                 8.1766                 0.1770

                     97                     98                     99
                      A                      A                      A
 Frequencies --   1547.1316              1622.1033              1655.6157
 Red. masses --      1.1163                 6.5943                 5.3746
 Frc consts  --      1.5743                10.2230                 8.6799
 IR Inten    --     13.1542                15.3132                38.1812

                    100                    101                    102
                      A                      A                      A
 Frequencies --   1763.8420              2933.3442              2965.7728
 Red. masses --      7.4982                 1.0730                 1.0713
 Frc consts  --     13.7445                 5.4395                 5.5516
 IR Inten    --    268.0312                46.1083                43.3788

                    103                    104                    105
                      A                      A                      A
 Frequencies --   3043.5791              3046.5940              3051.8726
 Red. masses --      1.0402                 1.0596                 1.0766
 Frc consts  --      5.6770                 5.7944                 5.9082
 IR Inten    --     33.1980                37.3730                 5.5383

                    106                    107                    108
                      A                      A                      A
 Frequencies --   3058.6628              3066.4187              3073.1598
 Red. masses --      1.0660                 1.0774                 1.0823
 Frc consts  --      5.8758                 5.9688                 6.0223
 IR Inten    --      6.5112                62.0572                54.7784

                    109                    110                    111
                      A                      A                      A
 Frequencies --   3078.5739              3092.8857              3098.2583
 Red. masses --      1.0844                 1.1059                 1.1007
 Frc consts  --      6.0552                 6.2331                 6.2254
 IR Inten    --     35.9834                25.9794                42.1165

                    112                    113                    114
                      A                      A                      A
 Frequencies --   3109.7594              3117.7900              3137.2413
 Red. masses --      1.1046                 1.1002                 1.0888
 Frc consts  --      6.2940                 6.3014                 6.3140
 IR Inten    --     23.4393                25.5990                 8.9559

                    115                    116                    117
                      A                      A                      A
 Frequencies --   3154.5686              3157.1806              3169.5638
 Red. masses --      1.0550                 1.0969                 1.0871
 Frc consts  --      6.1858                 6.4422                 6.4348
 IR Inten    --     17.4207                12.1476                22.0788

                    118                    119                    120
                      A                      A                      A
 Frequencies --   3172.2897              3186.0289              3193.6584
 Red. masses --      1.0890                 1.0891                 1.0935
 Frc consts  --      6.4568                 6.5136                 6.5712
 IR Inten    --     20.9107                14.4138                31.5413

                    121                    122                    123
                      A                      A                      A
 Frequencies --   3198.1228              3244.0835              3592.7610
 Red. masses --      1.0948                 1.1175                 1.0754
 Frc consts  --      6.5972                 6.9291                 8.1784
 IR Inten    --      7.7762                 5.2471                19.5735

 - Thermochemistry -
 -------------------
 Temperature   298.150 Kelvin.  Pressure   1.00000 Atm.
 Atom     1 has atomic number  6 and mass  12.00000

 Molecular mass:   273.18411 amu.
 Principal axes and moments of inertia in atomic units:
                           1         2         3
     Eigenvalues --  3416.718909148.75439**********
           X            0.99988  -0.01323   0.00861
           Y            0.01352   0.99928  -0.03553
           Z           -0.00813   0.03564   0.99933
 This molecule is an asymmetric top.
 Rotational symmetry number  1.
 Warning -- assumption of classical behavior for rotation
           may cause significant error
 Rotational temperatures (Kelvin)      0.02535     0.00947     0.00825
 Rotational constants (GHZ):           0.52821     0.19727     0.17182
 Zero-point vibrational energy     990503.3 (Joules/Mol)
                                  236.73598 (Kcal/Mol)
 Warning -- explicit consideration of  28 degrees of freedom as
           vibrations may cause significant error
 Vibrational temperatures:     25.95    37.83    49.13    64.27   105.95
          (Kelvin)            122.80   163.97   207.54   258.30   288.41
                              318.92   325.47   351.86   382.08   401.23
                              495.63   530.53   557.41   562.92   564.65
                              600.80   605.90   691.23   703.19   748.02
                              767.32   842.11   890.64   933.24   990.59
                             1009.62  1066.02  1100.25  1116.77  1122.55
                             1163.51  1179.49  1192.96  1245.51  1258.29
                             1262.65  1287.16  1304.44  1307.54  1380.96
                             1409.96  1417.41  1427.57  1455.54  1463.49
                             1477.49  1489.73  1509.20  1535.65  1562.38
                             1587.81  1593.34  1602.81  1616.70  1625.25
                             1645.09  1653.40  1664.23  1717.55  1748.80
                             1757.01  1769.61  1776.65  1794.57  1809.75
                             1867.92  1879.50  1882.96  1938.32  1941.24
                             1952.22  1977.92  1989.64  1995.09  2000.78
                             2030.36  2034.56  2043.14  2085.34  2089.53
                             2105.02  2107.98  2139.28  2160.58  2162.10
                             2169.94  2180.46  2201.50  2206.76  2211.95
                             2221.28  2225.98  2333.84  2382.06  2537.78
                             4220.43  4267.09  4379.03  4383.37  4390.96
                             4400.73  4411.89  4421.59  4429.38  4449.97
                             4457.70  4474.25  4485.80  4513.79  4538.72
                             4542.48  4560.30  4564.22  4583.99  4594.96
                             4601.39  4667.51  5169.18

 Zero-point correction=                           0.377263 (Hartree/Particle)
 Thermal correction to Energy=                    0.395698
 Thermal correction to Enthalpy=                  0.396642
 Thermal correction to Gibbs Free Energy=         0.328464
 Sum of electronic and zero-point Energies=           -862.719795
 Sum of electronic and thermal Energies=              -862.701360
 Sum of electronic and thermal Enthalpies=            -862.700416
 Sum of electronic and thermal Free Energies=         -862.768593

                     E (Thermal)             CV                S
                      KCal/Mol        Cal/Mol-Kelvin    Cal/Mol-Kelvin
 Total                  248.304             72.107            143.492
 Electronic               0.000              0.000              0.000
 Translational            0.889              2.981             42.714
 Rotational               0.889              2.981             34.151
 Vibrational            246.527             66.146             66.628
 Vibration     1          0.593              1.986              6.840
 Vibration     2          0.593              1.985              6.091
 Vibration     3          0.594              1.983              5.573
 Vibration     4          0.595              1.980              5.041
 Vibration     5          0.599              1.966              4.054
 Vibration     6          0.601              1.959              3.764
 Vibration     7          0.607              1.938              3.200
 Vibration     8          0.616              1.909              2.747
 Vibration     9          0.629              1.867              2.333
 Vibration    10          0.638              1.839              2.129
 Vibration    11          0.648              1.808              1.945
 Vibration    12          0.650              1.801              1.909
 Vibration    13          0.660              1.772              1.770
 Vibration    14          0.671              1.736              1.625
 Vibration    15          0.679              1.713              1.541
 Vibration    16          0.723              1.586              1.191
 Vibration    17          0.741              1.536              1.085
 Vibration    18          0.756              1.497              1.010
 Vibration    19          0.759              1.489              0.995
 Vibration    20          0.760              1.486              0.991
 Vibration    21          0.781              1.432              0.900
 Vibration    22          0.784              1.424              0.888
 Vibration    23          0.837              1.293              0.709
 Vibration    24          0.845              1.275              0.687
 Vibration    25          0.875              1.206              0.610
 Vibration    26          0.888              1.176              0.580
 Vibration    27          0.942              1.063              0.476
 Vibration    28          0.979              0.992              0.418

 Optimization completed.
    -- Stationary point found.
 Normal termination of Gaussian 16 at Sun Dec 13 14:14:10 2020.

 ----------------------------------------------------------------------
 # B3LYP/6-311++G(d,p) empiricaldispersion=gd3bj scf=xqc pop=npa geom=c
 heck
 ----------------------------------------------------------------------

 ---------------------------------------
 CID_47328978_JID_10839_Energie_neutraal
 ---------------------------------------
 Structure from the checkpoint file:  "JID_10839.chk"
 Charge =  0 Multiplicity = 1

 SCF Done:  E(RB3LYP) =  -863.330671093     A.U. after   16 cycles
 Normal termination of Gaussian 16 at Sun Dec 13 14:24:23 2020.

 ----------------------------------------------------------------------
 # B3LYP/6-311++G(d,p) empiricaldispersion=gd3bj scf=xqc pop=npa geom=c
 heck
 ----------------------------------------------------------------------

 -------------------------------------
 CID_47328978_JID_10839_Energie_kation
 -------------------------------------
 Structure from the checkpoint file:  "JID_10839.chk"
 Charge =  1 Multiplicity = 2

 SCF Done:  E(UB3LYP) =  -863.035470060     A.U. after   33 cycles
 SCF Done:  E(UB3LYP) =  -863.036248327     a.u. after    6 cycles
 Normal termination of Gaussian 16 at Sun Dec 13 16:39:02 2020.
 Gaussian 16:  ES64L-G16RevA.03 25-Dec-2016

 ----------------------------------------------------------------------
 # B3LYP/6-311++G(d,p) empiricaldispersion=gd3bj scf=xqc pop=npa geom=c
 heck
 ----------------------------------------------------------------------

 ------------------------------------
 CID_47328978_JID_10839_Energie_anion
 ------------------------------------
 Structure from the checkpoint file:  "JID_10839.chk"
 Charge = -1 Multiplicity = 2

                         Standard orientation:
 ---------------------------------------------------------------------
 Center     Atomic      Atomic             Coordinates (Angstroms)
 Number     Number       Type             X           Y           Z
 ---------------------------------------------------------------------
      1          6           0        3.188567   -2.158257    1.274373
      2          6           0        4.055173   -0.971028    0.917093
      3          6           0        4.875155   -0.944247   -0.334962
      4          6           0        3.685479   -0.018132   -0.227372
      5          6           0        2.485625   -0.330032   -1.065099
      6          8           0        2.353227   -1.397465   -1.661527
      7          7           0        1.517204    0.638540   -1.150132
      8          6           0        1.358315    1.830858   -0.316323
      9          6           0        1.065144    1.490689    1.157309
     10          6           0       -0.313251    0.850044    1.310908
     11          7           0       -1.348399    1.741794    0.785360
     12          6           0       -1.157055    2.026628   -0.633683
     13          6           0        0.207113    2.682384   -0.870653
     14          6           0       -2.713114    1.324070    1.119747
     15          6           0       -3.158327    0.013062    0.496517
     16          6           0       -2.904469   -1.215072    1.115385
     17          6           0       -3.271819   -2.395084    0.469655
     18          7           0       -3.867383   -2.434197   -0.728705
     19          6           0       -4.114206   -1.257256   -1.316479
     20          6           0       -3.784466   -0.024872   -0.753286
     21          1           0        2.748572   -2.603141    0.379127
     22          1           0        2.372784   -1.863413    1.946592
     23          1           0        3.784157   -2.923160    1.786407
     24          1           0        4.489632   -0.458015    1.774054
     25          1           0        5.864978   -0.497996   -0.310550
     26          1           0        4.749003   -1.769413   -1.029173
     27          1           0        3.885171    1.032888   -0.044723
     28          1           0        0.712454    0.325263   -1.679149
     29          1           0        2.281893    2.417734   -0.375759
     30          1           0        1.833739    0.816734    1.547841
     31          1           0        1.098437    2.416649    1.744347
     32          1           0       -0.317897   -0.136343    0.812867
     33          1           0       -0.523915    0.673460    2.372018
     34          1           0       -1.950484    2.710540   -0.957602
     35          1           0       -1.259909    1.117798   -1.257977
     36          1           0        0.221297    3.651158   -0.360164
     37          1           0        0.355602    2.863572   -1.941456
     38          1           0       -2.775048    1.251662    2.211964
     39          1           0       -3.389868    2.127190    0.804180
     40          1           0       -2.432394   -1.254328    2.093241
     41          1           0       -3.080970   -3.358321    0.939568
     42          1           0       -4.604469   -1.301873   -2.287567
     43          1           0       -4.021718    0.895591   -1.280303
 ---------------------------------------------------------------------

 SCF Done:  E(UB3LYP) =  -863.327365655     A.U. after   33 cycles
 SCF Done:  E(UB3LYP) =  -863.327365656     a.u. after    1 cycles

 The electronic state is 2-A.
 Alpha  occ. eigenvalues --  -18.99198 -14.23938 -14.21209 -14.19387 -10.18036
 Alpha  occ. eigenvalues --  -10.12302 -10.10337 -10.10208 -10.10120 -10.09891
 Alpha  occ. eigenvalues --  -10.09862 -10.09673 -10.09618 -10.08682 -10.08209
 Alpha  occ. eigenvalues --  -10.07708 -10.07411 -10.07371 -10.07311 -10.07285
 Alpha  occ. eigenvalues --   -0.94396  -0.84516  -0.83418  -0.82427  -0.78132
 Alpha  occ. eigenvalues --   -0.71602  -0.68954  -0.66794  -0.65501  -0.63104
 Alpha  occ. eigenvalues --   -0.60824  -0.57370  -0.54223  -0.54214  -0.52352
 Alpha  occ. eigenvalues --   -0.50167  -0.49567  -0.47803  -0.44775  -0.42734
 Alpha  occ. eigenvalues --   -0.41728  -0.39687  -0.39129  -0.38474  -0.38093
 Alpha  occ. eigenvalues --   -0.37412  -0.36762  -0.36310  -0.34420  -0.34092
 Alpha  occ. eigenvalues --   -0.32962  -0.32536  -0.31956  -0.31534  -0.30547
 Alpha  occ. eigenvalues --   -0.30116  -0.29577  -0.28975  -0.28709  -0.27832
 Alpha  occ. eigenvalues --   -0.27146  -0.26686  -0.26138  -0.24933  -0.23886
 Alpha  occ. eigenvalues --   -0.23389  -0.21260  -0.19937  -0.18010  -0.16736
 Alpha  occ. eigenvalues --   -0.16203  -0.16045  -0.15509  -0.12329   0.03695
 Alpha virt. eigenvalues --    0.05386   0.06446   0.06885   0.07332   0.08122
 Alpha virt. eigenvalues --    0.08276   0.08389   0.08454   0.09143   0.09557
 Alpha virt. eigenvalues --    0.10012   0.10081   0.10741   0.10775   0.11522

  Beta  occ. eigenvalues --  -18.99197 -14.23937 -14.21186 -14.19168 -10.18037
  Beta  occ. eigenvalues --  -10.12290 -10.10328 -10.10197 -10.10121 -10.09867
  Beta  occ. eigenvalues --  -10.09843 -10.09665 -10.09605 -10.08676 -10.08192
  Beta  occ. eigenvalues --  -10.07499 -10.07406 -10.07362 -10.07293 -10.07272
  Beta  occ. eigenvalues --   -0.94393  -0.84469  -0.83156  -0.82378  -0.78108
  Beta  occ. eigenvalues --   -0.71382  -0.68821  -0.66761  -0.65373  -0.63090
  Beta  occ. eigenvalues --   -0.60742  -0.57349  -0.54183  -0.54094  -0.52294
  Beta  occ. eigenvalues --   -0.49979  -0.49539  -0.47756  -0.44747  -0.42689
  Beta  occ. eigenvalues --   -0.41649  -0.39606  -0.39044  -0.38428  -0.38061
  Beta  occ. eigenvalues --   -0.37338  -0.36674  -0.36250  -0.34404  -0.34063
  Beta  occ. eigenvalues --   -0.32933  -0.32502  -0.31895  -0.31495  -0.30458
  Beta  occ. eigenvalues --   -0.30082  -0.29447  -0.28894  -0.28291  -0.27791
  Beta  occ. eigenvalues --   -0.27124  -0.26639  -0.26102  -0.24871  -0.23832
  Beta  occ. eigenvalues --   -0.23340  -0.21245  -0.19919  -0.17061  -0.16728
  Beta  occ. eigenvalues --   -0.16032  -0.15850  -0.15261  -0.12267
  Beta virt. eigenvalues --    0.05959   0.06550   0.07163   0.07418   0.07800
  Beta virt. eigenvalues --    0.08253   0.08519   0.08542   0.08679   0.09265
  Beta virt. eigenvalues --    0.09683   0.10131   0.10334   0.10833   0.10896

 Mulliken charges and spin densities:
               1          2
     1  C   -0.472229  -0.099537
     2  C    0.171618  -0.221829
     3  C   -0.131249  -0.524284
     4  C    0.251282   0.260151
     5  C   -0.133149  -0.370605
     6  O   -0.320446   0.000767
     7  N   -0.092528  -0.031755
     8  C   -0.343487   0.813528
     9  C    0.075734  -0.774780
    10  C    0.011793  -0.511956
    11  N    0.152787   0.124183
    12  C   -0.000767  -0.091147
    13  C    0.135431  -1.099273
    14  C    0.359849  -1.106247
    15  C   -0.284336   0.583932
    16  C    0.095919   0.323523
    17  C   -0.330415  -0.242600
    18  N   -0.128251   0.099642
    19  C   -0.335414  -0.208379
    20  C    0.115998   0.224082
    21  H    0.143833   0.026049
    22  H    0.160295  -0.036219
    23  H    0.081789   0.056695
    24  H   -0.183263   0.382497
    25  H   -0.075421   0.226031
    26  H    0.196416  -0.026312
    27  H   -0.129800   0.410370
    28  H    0.359873  -0.017253
    29  H   -0.318988   0.556874
    30  H    0.175642  -0.005417
    31  H   -0.347914   0.531971
    32  H    0.049672   0.093041
    33  H    0.015147   0.160646
    34  H    0.018541   0.152094
    35  H    0.082081  -0.040974
    36  H   -0.137408   0.314106
    37  H    0.045029   0.146706
    38  H   -0.076872   0.255492
    39  H   -0.073538   0.258530
    40  H   -0.017601   0.189071
    41  H    0.136951   0.007463
    42  H    0.126233   0.014969
    43  H   -0.028837   0.196152
 Sum of Mulliken charges =  -1.00000   1.00000

 Dipole moment (field-independent basis, Debye):
    X=              0.2802    Y=             -0.8308    Z=             -0.4202  Tot=              0.9723
 Quadrupole moment (field-independent basis, Debye-Ang):
   XX=           -202.7041   YY=           -175.7677   ZZ=           -153.2373
   XY=            -14.0654   XZ=             -0.7542   YZ=            -13.5176

 Summary of Natural Population Analysis:

                                       Natural Population
                Natural  -----------------------------------------------
    Atom  No    Charge         Core      Valence    Rydberg      Total
 -----------------------------------------------------------------------
      C    1   -0.29374      0.99964     2.28818    0.00592     3.29374
      C    2   -0.09977      0.99960     2.09013    0.01004     3.09977
      C    3   -0.18841      0.99960     2.17947    0.00933     3.18841
      C    4   -0.16274      0.99954     2.15301    0.01019     3.16274
      C    5    0.34347      0.99964     1.63394    0.02296     2.65653
      O    6   -0.33322      0.99988     3.32841    0.00493     4.33322
      N    7   -0.32106      0.99966     2.81194    0.00946     3.82106
      C    8   -0.01101      0.99958     1.99781    0.01362     3.01101
      C    9   -0.19724      0.99960     2.18823    0.00941     3.19724
      C   10   -0.08788      0.99960     2.07742    0.01086     3.08788
      N   11   -0.27582      0.99971     2.76147    0.01464     3.77582
      C   12   -0.08658      0.99960     2.07615    0.01083     3.08658
      C   13   -0.19382      0.99961     2.18456    0.00966     3.19382
      C   14   -0.08981      0.99958     2.07743    0.01280     3.08981
      C   15    0.02161      0.99949     1.96983    0.00906     2.97839
      C   16   -0.12463      0.99951     2.11521    0.00991     3.12463
      C   17    0.02705      0.99960     1.95862    0.01473     2.97295
      N   18   -0.21060      0.99972     2.70025    0.01063     3.71060
      C   19    0.02660      0.99960     1.95897    0.01482     2.97340
      C   20   -0.12752      0.99951     2.11779    0.01022     3.12752
      H   21    0.11422      0.00000     0.38487    0.00092     0.38578
      H   22    0.09943      0.00000     0.39976    0.00081     0.40057
      H   23    0.09755      0.00000     0.40176    0.00069     0.40245
      H   24    0.10343      0.00000     0.39526    0.00132     0.39657
      H   25    0.10325      0.00000     0.39602    0.00073     0.39675
      H   26    0.11240      0.00000     0.38663    0.00098     0.38760
      H   27    0.11368      0.00000     0.38465    0.00167     0.38632
      H   28    0.19423      0.00000     0.30350    0.00227     0.30577
      H   29    0.10061      0.00000     0.39705    0.00234     0.39939
      H   30    0.10365      0.00000     0.39510    0.00125     0.39635
      H   31    0.10324      0.00000     0.39471    0.00206     0.39676
      H   32    0.08598      0.00000     0.41189    0.00213     0.41402
      H   33    0.09849      0.00000     0.40033    0.00118     0.40151
      H   34    0.09934      0.00000     0.39949    0.00117     0.40066
      H   35    0.08008      0.00000     0.41817    0.00175     0.41992
      H   36    0.10675      0.00000     0.39165    0.00160     0.39325
      H   37    0.10093      0.00000     0.39818    0.00089     0.39907
      H   38    0.09940      0.00000     0.39946    0.00114     0.40060
      H   39    0.09825      0.00000     0.40058    0.00116     0.40175
      H   40    0.10037      0.00000     0.39834    0.00129     0.39963
      H   41    0.08537      0.00000     0.41313    0.00150     0.41463
      H   42    0.08467      0.00000     0.41385    0.00148     0.41533
      H   43    0.09980      0.00000     0.39913    0.00107     0.40020
 =======================================================================
   * Total *    0.00000     19.99224    53.75233    0.25543    74.00000

 Normal termination of Gaussian 16 at Sun Dec 13 17:08:59 2020.
