 Gaussian 16, Revision A.03,

 -----------------------------------------------------------
 # opt freq B3LYP/6-31G(d) empiricaldispersion=gd3bj scf=xqc
 -----------------------------------------------------------

 -------------------------------
 CID_134332049_JID_7155_neutraal
 -------------------------------
 Symbolic Z-matrix:
 Charge =  0 Multiplicity = 1

 SCF Done:  E(RB3LYP) =  -679.583635467     A.U. after   14 cycles
 SCF Done:  E(RB3LYP) =  -679.586741082     A.U. after   13 cycles
 SCF Done:  E(RB3LYP) =  -679.587525235     A.U. after   12 cycles
 SCF Done:  E(RB3LYP) =  -679.586502891     A.U. after   12 cycles
 SCF Done:  E(RB3LYP) =  -679.587814207     A.U. after   12 cycles
 SCF Done:  E(RB3LYP) =  -679.587922437     A.U. after   11 cycles
 SCF Done:  E(RB3LYP) =  -679.587937452     A.U. after   10 cycles
 SCF Done:  E(RB3LYP) =  -679.587942662     A.U. after    9 cycles
 SCF Done:  E(RB3LYP) =  -679.587946489     A.U. after    9 cycles
 SCF Done:  E(RB3LYP) =  -679.587952558     A.U. after   10 cycles
 SCF Done:  E(RB3LYP) =  -679.587960157     A.U. after   10 cycles
 SCF Done:  E(RB3LYP) =  -679.587969889     A.U. after   10 cycles
 SCF Done:  E(RB3LYP) =  -679.587972817     A.U. after    9 cycles
 SCF Done:  E(RB3LYP) =  -679.587973190     A.U. after    9 cycles
 SCF Done:  E(RB3LYP) =  -679.587973251     A.U. after    7 cycles
 Optimization completed.
    -- Stationary point found.
 Normal termination of Gaussian 16 at Sun Dec 13 20:20:54 2020.

 --------------------------------------------------------------------
 #N Geom=AllCheck Guess=TCheck SCRF=Check GenChk RB3LYP/6-31G(d) Freq
 --------------------------------------------------------------------

 Structure from the checkpoint file:  "JID_7155.chk"
 -------------------------------
 CID_134332049_JID_7155_neutraal
 -------------------------------
 Charge =  0 Multiplicity = 1

 SCF Done:  E(RB3LYP) =  -679.587973251     A.U. after    1 cycles

  Exact polarizability: 215.653  -7.373 175.322   1.039   2.993 131.398
 Approx polarizability: 283.198 -10.019 280.095   4.115  13.028 195.943

                      1                      2                      3
                      A                      A                      A
 Frequencies --     26.4544                34.6375                39.9885
 Red. masses --      2.7752                 2.7390                 3.2406
 Frc consts  --      0.0011                 0.0019                 0.0031
 IR Inten    --      0.0496                 0.0129                 0.3001

                      4                      5                      6
                      A                      A                      A
 Frequencies --     92.7417               101.9367               128.6648
 Red. masses --      3.3496                 3.6407                 3.4713
 Frc consts  --      0.0170                 0.0223                 0.0339
 IR Inten    --      0.5678                 0.0868                 0.6149

                      7                      8                      9
                      A                      A                      A
 Frequencies --    163.7422               194.6661               203.1637
 Red. masses --      1.4595                 2.1151                 1.4061
 Frc consts  --      0.0231                 0.0472                 0.0342
 IR Inten    --      0.2820                 0.6005                 0.0472

                     10                     11                     12
                      A                      A                      A
 Frequencies --    232.2933               242.2596               249.7160
 Red. masses --      1.0751                 1.9671                 1.7215
 Frc consts  --      0.0342                 0.0680                 0.0632
 IR Inten    --      0.1774                 0.3776                 0.3095

                     13                     14                     15
                      A                      A                      A
 Frequencies --    262.9079               274.1858               283.9216
 Red. masses --      1.8494                 1.2218                 1.1651
 Frc consts  --      0.0753                 0.0541                 0.0553
 IR Inten    --      0.7078                 0.0811                 0.1262

                     16                     17                     18
                      A                      A                      A
 Frequencies --    293.0264               303.2007               312.4883
 Red. masses --      2.2601                 2.2975                 1.5122
 Frc consts  --      0.1143                 0.1244                 0.0870
 IR Inten    --      0.1326                 0.3472                 0.4487

                     19                     20                     21
                      A                      A                      A
 Frequencies --    322.9765               325.3390               336.5795
 Red. masses --      2.6125                 1.5952                 1.5783
 Frc consts  --      0.1606                 0.0995                 0.1053
 IR Inten    --      0.3158                 0.2313                 0.2407

                     22                     23                     24
                      A                      A                      A
 Frequencies --    366.1623               384.3519               392.0929
 Red. masses --      2.6588                 3.3719                 2.5533
 Frc consts  --      0.2100                 0.2935                 0.2313
 IR Inten    --      0.1053                 0.6658                 0.2408

                     25                     26                     27
                      A                      A                      A
 Frequencies --    395.6421               416.4933               451.8579
 Red. masses --      2.5502                 2.3088                 2.4591
 Frc consts  --      0.2352                 0.2360                 0.2958
 IR Inten    --      0.1069                 0.2085                 2.0368

                     28                     29                     30
                      A                      A                      A
 Frequencies --    476.9845               512.3686               539.8263
 Red. masses --      3.1419                 3.0614                 2.9234
 Frc consts  --      0.4212                 0.4735                 0.5019
 IR Inten    --      1.1183                 4.6594                 2.5890

                     31                     32                     33
                      A                      A                      A
 Frequencies --    627.0841               661.1953               697.0822
 Red. masses --      3.3148                 4.3404                 4.5768
 Frc consts  --      0.7680                 1.1180                 1.3103
 IR Inten    --      1.3132                 1.6389                 4.8275

                     34                     35                     36
                      A                      A                      A
 Frequencies --    714.5935               747.9614               783.3240
 Red. masses --      5.8362                 4.9193                 3.0668
 Frc consts  --      1.7559                 1.6215                 1.1087
 IR Inten    --      2.8089                 9.9235                 2.1594

                     37                     38                     39
                      A                      A                      A
 Frequencies --    838.8399               853.2392               863.1003
 Red. masses --      2.5788                 1.3164                 1.4140
 Frc consts  --      1.0691                 0.5646                 0.6206
 IR Inten    --      2.0884                17.9463                11.6944

                     40                     41                     42
                      A                      A                      A
 Frequencies --    872.7839               923.0276               944.3842
 Red. masses --      2.3534                 1.4814                 1.7233
 Frc consts  --      1.0563                 0.7436                 0.9056
 IR Inten    --     15.9275                 3.8924                 2.0284

                     43                     44                     45
                      A                      A                      A
 Frequencies --    945.9473               949.1228               953.8335
 Red. masses --      1.7503                 1.7974                 1.6975
 Frc consts  --      0.9228                 0.9540                 0.9099
 IR Inten    --      0.4789                 2.2738                 2.4584

                     46                     47                     48
                      A                      A                      A
 Frequencies --    975.0566               976.6363               978.7530
 Red. masses --      1.1966                 1.2015                 1.3564
 Frc consts  --      0.6703                 0.6752                 0.7656
 IR Inten    --      0.2260                 0.1497                 0.0691

                     49                     50                     51
                      A                      A                      A
 Frequencies --    995.2719              1016.3902              1021.6149
 Red. masses --      3.0634                 2.9733                 2.4958
 Frc consts  --      1.7879                 1.8097                 1.5348
 IR Inten    --      2.2450                 6.2071                 1.7790

                     52                     53                     54
                      A                      A                      A
 Frequencies --   1058.9282              1061.9739              1063.8450
 Red. masses --      1.4165                 1.4183                 1.3946
 Frc consts  --      0.9358                 0.9424                 0.9299
 IR Inten    --      0.1114                 3.9844                 0.0017

                     55                     56                     57
                      A                      A                      A
 Frequencies --   1071.0468              1074.6915              1139.6062
 Red. masses --      1.4546                 1.5225                 2.1485
 Frc consts  --      0.9831                 1.0360                 1.6440
 IR Inten    --      1.8212                 0.2168                 2.5000

                     58                     59                     60
                      A                      A                      A
 Frequencies --   1149.3148              1160.5329              1243.6315
 Red. masses --      1.9828                 1.5599                 2.7096
 Frc consts  --      1.5431                 1.2378                 2.4691
 IR Inten    --      4.9339                 0.7117                 2.1733

                     61                     62                     63
                      A                      A                      A
 Frequencies --   1244.7177              1246.5540              1248.7197
 Red. masses --      2.7421                 2.7125                 2.4926
 Frc consts  --      2.5031                 2.4834                 2.2900
 IR Inten    --      3.3397                 7.7056                 1.0435

                     64                     65                     66
                      A                      A                      A
 Frequencies --   1261.7830              1289.3459              1302.5546
 Red. masses --      2.3318                 2.4916                 5.5985
 Frc consts  --      2.1873                 2.4404                 5.5964
 IR Inten    --     24.9485                 5.3265                 3.9352

                     67                     68                     69
                      A                      A                      A
 Frequencies --   1332.3014              1338.0805              1404.6259
 Red. masses --      2.5517                 1.7801                 1.3795
 Frc consts  --      2.6686                 1.8778                 1.6035
 IR Inten    --     18.7917                 0.7831                 1.1632

                     70                     71                     72
                      A                      A                      A
 Frequencies --   1419.7510              1424.0374              1425.2833
 Red. masses --      1.2578                 1.3559                 1.2183
 Frc consts  --      1.4938                 1.6200                 1.4582
 IR Inten    --      8.3552                 0.5276                 4.0129

                     73                     74                     75
                      A                      A                      A
 Frequencies --   1427.4598              1438.9808              1448.1420
 Red. masses --      1.2111                 1.4039                 1.6700
 Frc consts  --      1.4540                 1.7128                 2.0634
 IR Inten    --      4.1135                17.1607                22.3737

                     76                     77                     78
                      A                      A                      A
 Frequencies --   1458.6734              1459.9879              1507.0912
 Red. masses --      1.2861                 1.2584                 1.0528
 Frc consts  --      1.6122                 1.5804                 1.4089
 IR Inten    --      5.1780                 4.1892                 1.9014

                     79                     80                     81
                      A                      A                      A
 Frequencies --   1511.0432              1512.4311              1516.3335
 Red. masses --      1.0794                 1.0492                 1.6462
 Frc consts  --      1.4521                 1.4141                 2.2301
 IR Inten    --      5.4428                 0.0024                16.2633

                     82                     83                     84
                      A                      A                      A
 Frequencies --   1516.9042              1520.2122              1521.8666
 Red. masses --      1.0464                 1.0633                 1.1558
 Frc consts  --      1.4187                 1.4479                 1.5771
 IR Inten    --      0.0533                 1.7229                 0.5367

                     85                     86                     87
                      A                      A                      A
 Frequencies --   1528.3426              1530.9384              1534.3955
 Red. masses --      1.0497                 1.0584                 1.0515
 Frc consts  --      1.4446                 1.4616                 1.4587
 IR Inten    --      2.6079                 1.0373                 9.8994

                     88                     89                     90
                      A                      A                      A
 Frequencies --   1536.1930              1538.0096              1548.2915
 Red. masses --      1.1121                 1.0503                 1.0553
 Frc consts  --      1.5463                 1.4638                 1.4905
 IR Inten    --      4.2465                 5.3245                 8.1607

                     91                     92                     93
                      A                      A                      A
 Frequencies --   1551.2158              1560.5225              1608.6155
 Red. masses --      1.0687                 1.0584                 6.5121
 Frc consts  --      1.5151                 1.5186                 9.9282
 IR Inten    --      8.7507                13.3982                43.6779

                     94                     95                     96
                      A                      A                      A
 Frequencies --   1648.8036              1708.4142              3041.2092
 Red. masses --      5.4061                 7.3647                 1.0381
 Frc consts  --      8.6591                12.6646                 5.6571
 IR Inten    --    114.0280                 3.7647                35.0293

                     97                     98                     99
                      A                      A                      A
 Frequencies --   3043.4066              3047.0671              3047.4425
 Red. masses --      1.0424                 1.0347                 1.0350
 Frc consts  --      5.6883                 5.6604                 5.6633
 IR Inten    --     29.3101                21.3428                22.0009

                    100                    101                    102
                      A                      A                      A
 Frequencies --   3047.7382              3054.6998              3056.4234
 Red. masses --      1.0401                 1.0362                 1.0412
 Frc consts  --      5.6924                 5.6967                 5.7305
 IR Inten    --     17.7992                23.9103                48.0506

                    103                    104                    105
                      A                      A                      A
 Frequencies --   3101.3736              3104.6078              3105.4585
 Red. masses --      1.0944                 1.1021                 1.1004
 Frc consts  --      6.2020                 6.2588                 6.2524
 IR Inten    --     17.9732                 9.2734                25.7790

                    106                    107                    108
                      A                      A                      A
 Frequencies --   3113.5221              3114.1378              3114.5391
 Red. masses --      1.1012                 1.1026                 1.1026
 Frc consts  --      6.2897                 6.2999                 6.3015
 IR Inten    --     92.1695                 2.8648                 1.4237

                    109                    110                    111
                      A                      A                      A
 Frequencies --   3119.5992              3122.1410              3126.3391
 Red. masses --      1.1028                 1.1017                 1.1023
 Frc consts  --      6.3233                 6.3272                 6.3479
 IR Inten    --     25.9238                82.7817                16.3022

                    112                    113                    114
                      A                      A                      A
 Frequencies --   3126.8577              3129.2154              3143.8138
 Red. masses --      1.0994                 1.1015                 1.1006
 Frc consts  --      6.3333                 6.3547                 6.4093
 IR Inten    --     12.1120                46.6986                 9.3240

                    115                    116                    117
                      A                      A                      A
 Frequencies --   3151.6228              3163.6495              3164.1232
 Red. masses --      1.0893                 1.0899                 1.0969
 Frc consts  --      6.3745                 6.4270                 6.4703
 IR Inten    --     30.7847                42.0250                 9.2316

                    118                    119                    120
                      A                      A                      A
 Frequencies --   3168.5247              3212.5986              3231.1781
 Red. masses --      1.0941                 1.0896                 1.0913
 Frc consts  --      6.4719                 6.6255                 6.7132
 IR Inten    --     28.2514                 6.4342                12.9176

 - Thermochemistry -
 -------------------
 Temperature   298.150 Kelvin.  Pressure   1.00000 Atm.
 Atom     1 has atomic number  6 and mass  12.00000

 Molecular mass:   231.19870 amu.
 Principal axes and moments of inertia in atomic units:
                           1         2         3
     Eigenvalues --  2152.388596929.996037640.06239
           X            1.00000   0.00240   0.00006
           Y           -0.00240   0.99970  -0.02424
           Z           -0.00012   0.02424   0.99971
 This molecule is an asymmetric top.
 Rotational symmetry number  1.
 Warning -- assumption of classical behavior for rotation
           may cause significant error
 Rotational temperatures (Kelvin)      0.04024     0.01250     0.01134
 Rotational constants (GHZ):           0.83848     0.26042     0.23622
 Zero-point vibrational energy     990779.5 (Joules/Mol)
                                  236.80198 (Kcal/Mol)
 Warning -- explicit consideration of  30 degrees of freedom as
           vibrations may cause significant error
 Vibrational temperatures:     38.06    49.84    57.53   133.43   146.66
          (Kelvin)            185.12   235.59   280.08   292.31   334.22
                              348.56   359.29   378.27   394.49   408.50
                              421.60   436.24   449.60   464.69   468.09
                              484.26   526.83   553.00   564.13   569.24
                              599.24   650.12   686.27   737.18   776.69
                              902.23   951.31  1002.95  1028.14  1076.15
                             1127.03  1206.90  1227.62  1241.81  1255.74
                             1328.03  1358.76  1361.01  1365.58  1372.35
                             1402.89  1405.16  1408.21  1431.97  1462.36
                             1469.88  1523.56  1527.94  1530.64  1541.00
                             1546.24  1639.64  1653.61  1669.75  1789.31
                             1790.87  1793.51  1796.63  1815.42  1855.08
                             1874.09  1916.88  1925.20  2020.94  2042.70
                             2048.87  2050.66  2053.80  2070.37  2083.55
                             2098.71  2100.60  2168.37  2174.05  2176.05
                             2181.67  2182.49  2187.25  2189.63  2198.94
                             2202.68  2207.65  2210.24  2212.85  2227.65
                             2231.85  2245.24  2314.44  2372.26  2458.03
                             4375.62  4378.78  4384.05  4384.59  4385.02
                             4395.03  4397.51  4462.18  4466.84  4468.06
                             4479.66  4480.55  4481.13  4488.41  4492.06
                             4498.10  4498.85  4502.24  4523.25  4534.48
                             4551.79  4552.47  4558.80  4622.21  4648.94

 Zero-point correction=                           0.377368 (Hartree/Particle)
 Thermal correction to Energy=                    0.396320
 Thermal correction to Enthalpy=                  0.397265
 Thermal correction to Gibbs Free Energy=         0.330962
 Sum of electronic and zero-point Energies=           -679.210605
 Sum of electronic and thermal Energies=              -679.191653
 Sum of electronic and thermal Enthalpies=            -679.190709
 Sum of electronic and thermal Free Energies=         -679.257011

                     E (Thermal)             CV                S
                      KCal/Mol        Cal/Mol-Kelvin    Cal/Mol-Kelvin
 Total                  248.695             73.568            139.544
 Electronic               0.000              0.000              0.000
 Translational            0.889              2.981             42.216
 Rotational               0.889              2.981             33.099
 Vibrational            246.917             67.606             64.229
 Vibration     1          0.593              1.985              6.079
 Vibration     2          0.594              1.983              5.544
 Vibration     3          0.594              1.981              5.260
 Vibration     4          0.602              1.954              3.601
 Vibration     5          0.604              1.948              3.417
 Vibration     6          0.611              1.925              2.966
 Vibration     7          0.623              1.887              2.506
 Vibration     8          0.635              1.847              2.183
 Vibration     9          0.639              1.835              2.104
 Vibration    10          0.653              1.792              1.861
 Vibration    11          0.658              1.776              1.786
 Vibration    12          0.663              1.763              1.733
 Vibration    13          0.670              1.741              1.642
 Vibration    14          0.677              1.721              1.570
 Vibration    15          0.682              1.703              1.510
 Vibration    16          0.688              1.687              1.456
 Vibration    17          0.695              1.668              1.399
 Vibration    18          0.701              1.650              1.349
 Vibration    19          0.708              1.629              1.295
 Vibration    20          0.709              1.625              1.283
 Vibration    21          0.717              1.602              1.228
 Vibration    22          0.739              1.542              1.096
 Vibration    23          0.753              1.504              1.022
 Vibration    24          0.760              1.487              0.992
 Vibration    25          0.762              1.479              0.979
 Vibration    26          0.780              1.434              0.904
 Vibration    27          0.811              1.357              0.790
 Vibration    28          0.834              1.301              0.718
 Vibration    29          0.867              1.223              0.628
 Vibration    30          0.895              1.162              0.566

                           ! Non-Optimized Parameters !
 Normal termination of Gaussian 16 at Sun Dec 13 20:42:13 2020.

 ----------------------------------------------------------------------
 # B3LYP/6-311++G(d,p) empiricaldispersion=gd3bj scf=xqc pop=npa geom=c
 heck
 ----------------------------------------------------------------------

 ---------------------------------------
 CID_134332049_JID_7155_Energie_neutraal
 ---------------------------------------
 Structure from the checkpoint file:  "JID_7155.chk"
 Charge =  0 Multiplicity = 1

 SCF Done:  E(RB3LYP) =  -679.766256820     A.U. after   15 cycles
 Normal termination of Gaussian 16 at Sun Dec 13 20:52:30 2020.

 ----------------------------------------------------------------------
 # B3LYP/6-311++G(d,p) empiricaldispersion=gd3bj scf=xqc pop=npa geom=c
 heck
 ----------------------------------------------------------------------

 -------------------------------------
 CID_134332049_JID_7155_Energie_kation
 -------------------------------------
 Structure from the checkpoint file:  "JID_7155.chk"
 Charge =  1 Multiplicity = 2

 SCF Done:  E(UB3LYP) =  -679.471243951     A.U. after   24 cycles
 Normal termination of Gaussian 16 at Sun Dec 13 21:15:51 2020.
 Gaussian 16:  ES64L-G16RevA.03 25-Dec-2016

 ----------------------------------------------------------------------
 # B3LYP/6-311++G(d,p) empiricaldispersion=gd3bj scf=xqc pop=npa geom=c
 heck
 ----------------------------------------------------------------------

 ------------------------------------
 CID_134332049_JID_7155_Energie_anion
 ------------------------------------
 Structure from the checkpoint file:  "JID_7155.chk"
 Charge = -1 Multiplicity = 2

                         Standard orientation:
 ---------------------------------------------------------------------
 Center     Atomic      Atomic             Coordinates (Angstroms)
 Number     Number       Type             X           Y           Z
 ---------------------------------------------------------------------
      1          6           0       -3.010616    2.471129   -1.013074
      2          6           0       -1.822611    1.559869   -0.838441
      3          6           0       -1.721246    0.365147   -0.226461
      4          6           0       -0.394164   -0.311460   -0.359499
      5          7           0       -0.383487   -1.551819   -0.889365
      6          6           0        0.803707   -2.135967   -1.055388
      7          6           0        2.023609   -1.549809   -0.714091
      8          6           0        2.031541   -0.271853   -0.148760
      9          6           0        0.782682    0.338161    0.026355
     10          6           0        3.310789    0.454195    0.278753
     11          6           0        3.418992    1.785326   -0.496290
     12          6           0        3.243892    0.744294    1.793878
     13          6           0        4.571899   -0.377826   -0.003338
     14          6           0       -2.841914   -0.388657    0.518102
     15          6           0       -3.723496    0.570745    1.345962
     16          6           0       -3.705256   -1.147002   -0.511921
     17          6           0       -2.248412   -1.406750    1.517170
     18          1           0       -3.937806    1.923573   -1.202586
     19          1           0       -2.842709    3.137857   -1.865141
     20          1           0       -3.178125    3.107563   -0.134317
     21          1           0       -0.916878    1.917636   -1.326678
     22          1           0        0.785524   -3.134842   -1.489299
     23          1           0        2.940744   -2.100232   -0.885699
     24          1           0        0.705464    1.323102    0.473421
     25          1           0        2.562692    2.438220   -0.300643
     26          1           0        4.327069    2.323085   -0.199759
     27          1           0        3.464904    1.605181   -1.575915
     28          1           0        3.164199   -0.186700    2.365687
     29          1           0        4.149546    1.269664    2.118766
     30          1           0        2.382554    1.369592    2.048395
     31          1           0        4.562136   -1.326530    0.544342
     32          1           0        4.681276   -0.598139   -1.070890
     33          1           0        5.459697    0.179646    0.313830
     34          1           0       -4.338390    1.227704    0.730157
     35          1           0       -4.404378   -0.014055    1.975146
     36          1           0       -3.110601    1.196165    2.005150
     37          1           0       -3.084468   -1.844640   -1.080257
     38          1           0       -4.498614   -1.711118   -0.005033
     39          1           0       -4.178253   -0.454960   -1.217513
     40          1           0       -1.684093   -2.190334    1.010007
     41          1           0       -1.582698   -0.913132    2.235504
     42          1           0       -3.060766   -1.878813    2.081143
 ---------------------------------------------------------------------

 SCF Done:  E(UB3LYP) =  -679.754394249     A.U. after   33 cycles
 SCF Done:  E(UB3LYP) =  -679.754394248     a.u. after    1 cycles

 The electronic state is 2-A.
 Alpha  occ. eigenvalues --  -14.19345 -10.10394 -10.09857 -10.09435 -10.09265
 Alpha  occ. eigenvalues --  -10.08352 -10.07543 -10.07070 -10.06947 -10.06941
 Alpha  occ. eigenvalues --  -10.06764 -10.06288 -10.06266 -10.06211 -10.06051
 Alpha  occ. eigenvalues --  -10.06011 -10.05465  -0.83663  -0.74228  -0.73574
 Alpha  occ. eigenvalues --   -0.68267  -0.67216  -0.65378  -0.60026  -0.59030
 Alpha  occ. eigenvalues --   -0.58991  -0.58548  -0.58380  -0.52875  -0.51767
 Alpha  occ. eigenvalues --   -0.48381  -0.45644  -0.41131  -0.40159  -0.38640
 Alpha  occ. eigenvalues --   -0.37245  -0.35889  -0.34807  -0.34597  -0.34348
 Alpha  occ. eigenvalues --   -0.33289  -0.32891  -0.32420  -0.31748  -0.30838
 Alpha  occ. eigenvalues --   -0.29834  -0.29299  -0.29096  -0.28475  -0.28246
 Alpha  occ. eigenvalues --   -0.27501  -0.27127  -0.26561  -0.26402  -0.24179
 Alpha  occ. eigenvalues --   -0.24117  -0.23813  -0.23195  -0.22117  -0.21886
 Alpha  occ. eigenvalues --   -0.17353  -0.16611  -0.15058  -0.13326   0.04260
 Alpha virt. eigenvalues --    0.06107   0.06488   0.07098   0.07581   0.08005
 Alpha virt. eigenvalues --    0.08182   0.08344   0.08865   0.09241   0.09819
 Alpha virt. eigenvalues --    0.10155   0.10249   0.10693   0.11076   0.11226

  Beta  occ. eigenvalues --  -14.19228 -10.10369 -10.09839 -10.09440 -10.09258
  Beta  occ. eigenvalues --  -10.08237 -10.07546 -10.07045 -10.06935 -10.06916
  Beta  occ. eigenvalues --  -10.06771 -10.06260 -10.06244 -10.06197 -10.06007
  Beta  occ. eigenvalues --  -10.06006 -10.05454  -0.83504  -0.74139  -0.73527
  Beta  occ. eigenvalues --   -0.68213  -0.67116  -0.65309  -0.59978  -0.58996
  Beta  occ. eigenvalues --   -0.58930  -0.58498  -0.58352  -0.52761  -0.51680
  Beta  occ. eigenvalues --   -0.48332  -0.45574  -0.41078  -0.40118  -0.38570
  Beta  occ. eigenvalues --   -0.37193  -0.35844  -0.34764  -0.34527  -0.34318
  Beta  occ. eigenvalues --   -0.33249  -0.32864  -0.32384  -0.31701  -0.30701
  Beta  occ. eigenvalues --   -0.29792  -0.29264  -0.29044  -0.28437  -0.28221
  Beta  occ. eigenvalues --   -0.27361  -0.27089  -0.26506  -0.26364  -0.24109
  Beta  occ. eigenvalues --   -0.24044  -0.23773  -0.23155  -0.22096  -0.21847
  Beta  occ. eigenvalues --   -0.17019  -0.16315  -0.14930  -0.13176
  Beta virt. eigenvalues --    0.06212   0.06744   0.07228   0.07456   0.07888
  Beta virt. eigenvalues --    0.08137   0.08575   0.08671   0.09037   0.09465
  Beta virt. eigenvalues --    0.10067   0.10329   0.10574   0.10788   0.11279

 Mulliken charges and spin densities:
               1          2
     1  C    0.912908  -1.751007
     2  C   -1.106648   0.920530
     3  C    1.689546  -0.391830
     4  C   -0.444164  -0.697450
     5  N    0.076317   0.065412
     6  C   -0.163339  -0.299235
     7  C   -0.602961   0.721251
     8  C    1.578294  -0.988271
     9  C   -0.069634  -0.585975
    10  C   -1.856939   2.418413
    11  C    0.585667  -1.291105
    12  C    0.036007  -0.744370
    13  C    0.484906  -0.943447
    14  C   -0.799255   1.315922
    15  C    0.040498  -0.637951
    16  C   -0.438070  -0.235291
    17  C   -0.348105  -0.275375
    18  H    0.077944   0.054232
    19  H   -0.170400   0.311028
    20  H   -0.190274   0.370918
    21  H   -0.015129   0.261856
    22  H    0.015683   0.149030
    23  H   -0.021174   0.198983
    24  H    0.596329  -0.393013
    25  H   -0.276566   0.413979
    26  H   -0.295487   0.453081
    27  H   -0.010816   0.161570
    28  H    0.043150   0.102599
    29  H   -0.036560   0.186989
    30  H   -0.299786   0.447688
    31  H   -0.142746   0.273446
    32  H   -0.038438   0.166706
    33  H   -0.302632   0.467180
    34  H    0.017955   0.109625
    35  H    0.070006   0.066428
    36  H   -0.113625   0.271266
    37  H    0.155818   0.018809
    38  H    0.097290   0.029869
    39  H    0.026503   0.096583
    40  H    0.103046   0.041001
    41  H    0.053647   0.095555
    42  H    0.081235   0.044368
 Sum of Mulliken charges =  -1.00000   1.00000

 Dipole moment (field-independent basis, Debye):
    X=             -3.8030    Y=             -3.4158    Z=             -0.2068  Tot=              5.1160
 Quadrupole moment (field-independent basis, Debye-Ang):
   XX=           -193.1983   YY=           -155.2226   ZZ=           -140.4952
   XY=             -0.8967   XZ=             -2.8335   YZ=             -0.2515

 Summary of Natural Population Analysis:

                                       Natural Population
                Natural  -----------------------------------------------
    Atom  No    Charge         Core      Valence    Rydberg      Total
 -----------------------------------------------------------------------
      C    1   -0.30615      0.99965     2.30075    0.00575     3.30615
      C    2   -0.07753      0.99947     2.06924    0.00881     3.07753
      C    3   -0.01312      0.99941     1.99821    0.01550     3.01312
      C    4    0.10885      0.99948     1.87595    0.01571     2.89115
      N    5   -0.23668      0.99968     2.72588    0.01112     3.73668
      C    6    0.03603      0.99958     1.95091    0.01348     2.96397
      C    7   -0.13204      0.99950     2.12426    0.00828     3.13204
      C    8    0.03266      0.99948     1.95582    0.01203     2.96734
      C    9   -0.12190      0.99945     2.11385    0.00860     3.12190
      C   10   -0.05640      0.99956     2.04505    0.01179     3.05640
      C   11   -0.27839      0.99963     2.27163    0.00714     3.27839
      C   12   -0.27780      0.99963     2.27114    0.00702     3.27780
      C   13   -0.28656      0.99964     2.27913    0.00779     3.28656
      C   14   -0.05248      0.99956     2.04283    0.01009     3.05248
      C   15   -0.28251      0.99964     2.27556    0.00732     3.28251
      C   16   -0.28106      0.99962     2.27596    0.00548     3.28106
      C   17   -0.28543      0.99964     2.28018    0.00562     3.28543
      H   18    0.09989      0.00000     0.39916    0.00095     0.40011
      H   19    0.10210      0.00000     0.39710    0.00080     0.39790
      H   20    0.10747      0.00000     0.39111    0.00142     0.39253
      H   21    0.09488      0.00000     0.40361    0.00151     0.40512
      H   22    0.08570      0.00000     0.41331    0.00099     0.41430
      H   23    0.10437      0.00000     0.39455    0.00107     0.39563
      H   24    0.10598      0.00000     0.39212    0.00190     0.39402
      H   25    0.10088      0.00000     0.39793    0.00119     0.39912
      H   26    0.10051      0.00000     0.39809    0.00140     0.39949
      H   27    0.10084      0.00000     0.39820    0.00095     0.39916
      H   28    0.10048      0.00000     0.39861    0.00091     0.39952
      H   29    0.09843      0.00000     0.40066    0.00091     0.40157
      H   30    0.10158      0.00000     0.39738    0.00105     0.39842
      H   31    0.10083      0.00000     0.39811    0.00106     0.39917
      H   32    0.10053      0.00000     0.39847    0.00100     0.39947
      H   33    0.10250      0.00000     0.39647    0.00103     0.39750
      H   34    0.09964      0.00000     0.39937    0.00099     0.40036
      H   35    0.09526      0.00000     0.40400    0.00074     0.40474
      H   36    0.10282      0.00000     0.39628    0.00089     0.39718
      H   37    0.11191      0.00000     0.38700    0.00109     0.38809
      H   38    0.09193      0.00000     0.40728    0.00078     0.40807
      H   39    0.09641      0.00000     0.40277    0.00082     0.40359
      H   40    0.11101      0.00000     0.38784    0.00115     0.38899
      H   41    0.10119      0.00000     0.39794    0.00088     0.39881
      H   42    0.09336      0.00000     0.40584    0.00080     0.40664
 =======================================================================
   * Total *    0.00000     16.99261    46.81957    0.18782    64.00000

 Normal termination of Gaussian 16 at Sun Dec 13 21:48:44 2020.
