 Gaussian 16, Revision A.03,

 -----------------------------------------------------------
 # opt freq B3LYP/6-31G(d) empiricaldispersion=gd3bj scf=xqc
 -----------------------------------------------------------

 -------------------------------
 CID_57198965_JID_10598_neutraal
 -------------------------------
 Symbolic Z-matrix:
 Charge =  0 Multiplicity = 1

 SCF Done:  E(RB3LYP) =  -1673.83792003     A.U. after   15 cycles
 SCF Done:  E(RB3LYP) =  -1673.84919239     A.U. after   13 cycles
 SCF Done:  E(RB3LYP) =  -1673.85310049     A.U. after   13 cycles
 SCF Done:  E(RB3LYP) =  -1673.85546794     A.U. after   13 cycles
 SCF Done:  E(RB3LYP) =  -1673.85732581     A.U. after   13 cycles
 SCF Done:  E(RB3LYP) =  -1673.85875680     A.U. after   13 cycles
 SCF Done:  E(RB3LYP) =  -1673.85975793     A.U. after   12 cycles
 SCF Done:  E(RB3LYP) =  -1673.85942615     A.U. after   13 cycles
 SCF Done:  E(RB3LYP) =  -1673.85997916     A.U. after   12 cycles
 SCF Done:  E(RB3LYP) =  -1673.86011028     A.U. after   11 cycles
 SCF Done:  E(RB3LYP) =  -1673.86011388     A.U. after   10 cycles
 SCF Done:  E(RB3LYP) =  -1673.86011452     A.U. after    9 cycles
 SCF Done:  E(RB3LYP) =  -1673.86011459     A.U. after    7 cycles
 SCF Done:  E(RB3LYP) =  -1673.86011467     A.U. after    8 cycles
 Optimization completed.
    -- Stationary point found.
 Normal termination of Gaussian 16 at Sun Dec 13 13:08:11 2020.

 --------------------------------------------------------------------
 #N Geom=AllCheck Guess=TCheck SCRF=Check GenChk RB3LYP/6-31G(d) Freq
 --------------------------------------------------------------------

 Structure from the checkpoint file:  "JID_10598.chk"
 -------------------------------
 CID_57198965_JID_10598_neutraal
 -------------------------------
 Charge =  0 Multiplicity = 1

 SCF Done:  E(RB3LYP) =  -1673.86011467     A.U. after    1 cycles

  Exact polarizability: 254.852  15.369 186.374   8.777 -17.289 116.581
 Approx polarizability: 365.168  23.598 338.087  18.429 -51.892 200.307

                      1                      2                      3
                      A                      A                      A
 Frequencies --     19.8591                29.6458                37.5806
 Red. masses --      9.9578                 7.7573                 8.9988
 Frc consts  --      0.0023                 0.0040                 0.0075
 IR Inten    --      0.0785                 3.5217                 0.7683

                      4                      5                      6
                      A                      A                      A
 Frequencies --     46.2485                59.4090               109.3552
 Red. masses --      7.5299                 6.8585                10.5994
 Frc consts  --      0.0095                 0.0143                 0.0747
 IR Inten    --      1.1597                 1.7232                 1.9000

                      7                      8                      9
                      A                      A                      A
 Frequencies --    124.9316               132.1494               146.0396
 Red. masses --      5.5855                 5.2688                 6.4435
 Frc consts  --      0.0514                 0.0542                 0.0810
 IR Inten    --      0.7730                 2.5735                 0.2835

                     10                     11                     12
                      A                      A                      A
 Frequencies --    155.4314               214.0540               236.0666
 Red. masses --      5.5086                 4.9910                 3.7899
 Frc consts  --      0.0784                 0.1347                 0.1244
 IR Inten    --      4.8162                 2.5688                12.0020

                     13                     14                     15
                      A                      A                      A
 Frequencies --    251.0479               269.8975               289.2543
 Red. masses --      4.0391                 3.9125                 3.3407
 Frc consts  --      0.1500                 0.1679                 0.1647
 IR Inten    --     11.0920                 1.4721                 8.5065

                     16                     17                     18
                      A                      A                      A
 Frequencies --    327.7615               334.9354               351.8872
 Red. masses --      3.2289                 3.5102                 6.3084
 Frc consts  --      0.2044                 0.2320                 0.4602
 IR Inten    --     19.8299                18.4248                 5.2114

                     19                     20                     21
                      A                      A                      A
 Frequencies --    364.8804               382.2012               427.1830
 Red. masses --      4.5269                 6.1479                 3.9986
 Frc consts  --      0.3551                 0.5291                 0.4299
 IR Inten    --      4.1411                17.9242                 4.3122

                     22                     23                     24
                      A                      A                      A
 Frequencies --    437.6639               444.4118               459.6693
 Red. masses --      4.0317                 5.5460                 2.9323
 Frc consts  --      0.4550                 0.6454                 0.3651
 IR Inten    --      2.1303                31.8420               103.1066

                     25                     26                     27
                      A                      A                      A
 Frequencies --    464.6541               478.2298               549.5936
 Red. masses --      2.5134                 4.6915                 6.0882
 Frc consts  --      0.3197                 0.6322                 1.0835
 IR Inten    --    129.1547                18.5771                33.9986

                     28                     29                     30
                      A                      A                      A
 Frequencies --    551.1963               609.9375               655.7486
 Red. masses --      6.3513                 6.5536                 6.9661
 Frc consts  --      1.1369                 1.4365                 1.7649
 IR Inten    --     51.8508                27.1257                24.5322

                     31                     32                     33
                      A                      A                      A
 Frequencies --    676.3618               689.0970               704.6407
 Red. masses --      6.2666                 3.8895                 3.2046
 Frc consts  --      1.6890                 1.0882                 0.9375
 IR Inten    --      1.5265                 2.3859                24.4664

                     34                     35                     36
                      A                      A                      A
 Frequencies --    711.4172               716.0816               735.5769
 Red. masses --     10.7983                12.7979                 7.5057
 Frc consts  --      3.2200                 3.8665                 2.3927
 IR Inten    --    153.4052               174.8377                 6.6068

                     37                     38                     39
                      A                      A                      A
 Frequencies --    758.7662               807.6702               820.9730
 Red. masses --      2.0764                 1.6424                 3.9460
 Frc consts  --      0.7043                 0.6312                 1.5670
 IR Inten    --     49.0218                11.0543                 9.2467

                     40                     41                     42
                      A                      A                      A
 Frequencies --    835.6627               939.9539               945.9415
 Red. masses --      2.0816                 1.3216                 1.3281
 Frc consts  --      0.8565                 0.6880                 0.7002
 IR Inten    --      7.7192                 7.0210                 1.6130

                     43                     44                     45
                      A                      A                      A
 Frequencies --    954.6601               962.5621               991.2836
 Red. masses --      1.5555                 1.3308                 4.1283
 Frc consts  --      0.8352                 0.7265                 2.3901
 IR Inten    --      8.1922                 7.7045                76.7342

                     46                     47                     48
                      A                      A                      A
 Frequencies --    997.1278              1001.8337              1018.8042
 Red. masses --      1.3008                 1.3877                 5.7151
 Frc consts  --      0.7620                 0.8206                 3.4951
 IR Inten    --      1.3786                11.4201                 2.1546

                     49                     50                     51
                      A                      A                      A
 Frequencies --   1019.6517              1099.7985              1101.5695
 Red. masses --      5.9423                 2.0965                 2.1701
 Frc consts  --      3.6401                 1.4941                 1.5515
 IR Inten    --      2.7330                45.6693                 1.7460

                     52                     53                     54
                      A                      A                      A
 Frequencies --   1121.7587              1126.8246              1131.9491
 Red. masses --      1.7554                 1.9425                 2.2307
 Frc consts  --      1.3015                 1.4532                 1.6840
 IR Inten    --     42.1621               107.5002                53.4537

                     55                     56                     57
                      A                      A                      A
 Frequencies --   1135.4925              1188.7884              1189.9729
 Red. masses --      2.0546                 3.2326                 1.7921
 Frc consts  --      1.5608                 2.6916                 1.4952
 IR Inten    --     54.9443                 9.7593                92.5038

                     58                     59                     60
                      A                      A                      A
 Frequencies --   1192.1340              1203.2405              1208.8121
 Red. masses --      1.9232                 1.1314                 1.1382
 Frc consts  --      1.6103                 0.9651                 0.9799
 IR Inten    --     94.2118                 3.6788                 3.7792

                     61                     62                     63
                      A                      A                      A
 Frequencies --   1291.6177              1316.2144              1332.5725
 Red. masses --      2.6760                 1.4671                 1.8020
 Frc consts  --      2.6303                 1.4975                 1.8853
 IR Inten    --    245.9758                 6.4978                87.5034

                     64                     65                     66
                      A                      A                      A
 Frequencies --   1369.3386              1371.4882              1460.2725
 Red. masses --      5.1110                 5.1011                 3.0467
 Frc consts  --      5.6465                 5.6532                 3.8278
 IR Inten    --      1.9793                 8.3458                23.1837

                     67                     68                     69
                      A                      A                      A
 Frequencies --   1467.4581              1515.2773              1519.3992
 Red. masses --      3.0934                 2.1996                 2.3250
 Frc consts  --      3.9248                 2.9756                 3.1624
 IR Inten    --     14.8045                 0.6828                 2.1552

                     70                     71                     72
                      A                      A                      A
 Frequencies --   1627.7244              1629.5559              1649.4192
 Red. masses --      5.5374                 5.3970                 5.9922
 Frc consts  --      8.6441                 8.4439                 9.6051
 IR Inten    --      3.8331                 5.8848                12.5222

                     73                     74                     75
                      A                      A                      A
 Frequencies --   1650.9715              1751.0910              3198.8289
 Red. masses --      5.8936                12.5720                 1.0874
 Frc consts  --      9.4648                22.7128                 6.5556
 IR Inten    --     19.3711               146.1415                 1.9024

                     76                     77                     78
                      A                      A                      A
 Frequencies --   3200.9818              3212.5405              3213.6284
 Red. masses --      1.0869                 1.0932                 1.0921
 Frc consts  --      6.5616                 6.6475                 6.6451
 IR Inten    --      1.6359                 9.4097                 5.0510

                     79                     80                     81
                      A                      A                      A
 Frequencies --   3223.3120              3227.3672              3229.9265
 Red. masses --      1.0922                 1.0920                 1.0901
 Frc consts  --      6.6860                 6.7018                 6.7005
 IR Inten    --      9.2804                 4.9490                 6.2830

                     82                     83                     84
                      A                      A                      A
 Frequencies --   3230.3057              3641.3600              3641.4850
 Red. masses --      1.0933                 1.0661                 1.0661
 Frc consts  --      6.7216                 8.3287                 8.3291
 IR Inten    --      4.9432                19.6318                42.4319

 - Thermochemistry -
 -------------------
 Temperature   298.150 Kelvin.  Pressure   1.00000 Atm.
 Atom     1 has atomic number  6 and mass  12.00000

 Molecular mass:   309.99697 amu.
 Principal axes and moments of inertia in atomic units:
                           1         2         3
     Eigenvalues --  3374.60170********************
           X            0.99993   0.01114  -0.00276
           Y           -0.01115   0.99992  -0.00555
           Z            0.00270   0.00558   0.99998
 This molecule is an asymmetric top.
 Rotational symmetry number  1.
 Warning -- assumption of classical behavior for rotation
           may cause significant error
 Rotational temperatures (Kelvin)      0.02567     0.00628     0.00555
 Rotational constants (GHZ):           0.53480     0.13076     0.11564
 Zero-point vibrational energy     549812.5 (Joules/Mol)
                                  131.40833 (Kcal/Mol)
 Warning -- explicit consideration of  29 degrees of freedom as
           vibrations may cause significant error
 Vibrational temperatures:     28.57    42.65    54.07    66.54    85.48
          (Kelvin)            157.34   179.75   190.13   210.12   223.63
                              307.98   339.65   361.20   388.32   416.17
                              471.58   481.90   506.29   524.98   549.90
                              614.62   629.70   639.41   661.36   668.53
                              688.07   790.74   793.05   877.56   943.48
                              973.13   991.46  1013.82  1023.57  1030.28
                             1058.33  1091.70  1162.06  1181.20  1202.33
                             1352.38  1361.00  1373.54  1384.91  1426.24
                             1434.64  1441.42  1465.83  1467.05  1582.36
                             1584.91  1613.96  1621.25  1628.62  1633.72
                             1710.40  1712.11  1715.21  1731.19  1739.21
                             1858.35  1893.74  1917.27  1970.17  1973.27
                             2101.01  2111.34  2180.15  2186.08  2341.93
                             2344.57  2373.15  2375.38  2519.43  4602.40
                             4605.50  4622.13  4623.69  4637.63  4643.46
                             4647.14  4647.69  5239.10  5239.28

 Zero-point correction=                           0.209413 (Hartree/Particle)
 Thermal correction to Energy=                    0.228003
 Thermal correction to Enthalpy=                  0.228947
 Thermal correction to Gibbs Free Energy=         0.159928
 Sum of electronic and zero-point Energies=          -1673.650702
 Sum of electronic and thermal Energies=             -1673.632112
 Sum of electronic and thermal Enthalpies=           -1673.631168
 Sum of electronic and thermal Free Energies=        -1673.700186

                     E (Thermal)             CV                S
                      KCal/Mol        Cal/Mol-Kelvin    Cal/Mol-Kelvin
 Total                  143.074             69.322            145.262
 Electronic               0.000              0.000              0.000
 Translational            0.889              2.981             43.090
 Rotational               0.889              2.981             34.940
 Vibrational            141.296             63.361             67.231
 Vibration     1          0.593              1.986              6.648
 Vibration     2          0.593              1.984              5.853
 Vibration     3          0.594              1.982              5.383
 Vibration     4          0.595              1.979              4.972
 Vibration     5          0.597              1.974              4.477
 Vibration     6          0.606              1.942              3.280
 Vibration     7          0.610              1.928              3.023
 Vibration     8          0.612              1.921              2.915
 Vibration     9          0.617              1.907              2.723
 Vibration    10          0.620              1.897              2.605
 Vibration    11          0.644              1.820              2.009
 Vibration    12          0.655              1.786              1.832
 Vibration    13          0.663              1.761              1.723
 Vibration    14          0.674              1.729              1.597
 Vibration    15          0.686              1.694              1.478
 Vibration    16          0.711              1.620              1.271
 Vibration    17          0.716              1.606              1.236
 Vibration    18          0.728              1.571              1.158
 Vibration    19          0.738              1.545              1.101
 Vibration    20          0.752              1.508              1.030
 Vibration    21          0.789              1.411              0.868
 Vibration    22          0.798              1.388              0.834
 Vibration    23          0.804              1.373              0.813
 Vibration    24          0.818              1.340              0.767
 Vibration    25          0.822              1.328              0.753
 Vibration    26          0.835              1.298              0.715
 Vibration    27          0.905              1.141              0.545
 Vibration    28          0.907              1.137              0.542
 Vibration    29          0.969              1.011              0.433

                           ! Non-Optimized Parameters !
 Normal termination of Gaussian 16 at Sun Dec 13 13:22:23 2020.

 ----------------------------------------------------------------------
 # B3LYP/6-311++G(d,p) empiricaldispersion=gd3bj scf=xqc pop=npa geom=c
 heck
 ----------------------------------------------------------------------

 ---------------------------------------
 CID_57198965_JID_10598_Energie_neutraal
 ---------------------------------------
 Structure from the checkpoint file:  "JID_10598.chk"
 Charge =  0 Multiplicity = 1

 SCF Done:  E(RB3LYP) =  -1674.16990815     A.U. after   18 cycles
 Normal termination of Gaussian 16 at Sun Dec 13 13:29:26 2020.

 ----------------------------------------------------------------------
 # B3LYP/6-311++G(d,p) empiricaldispersion=gd3bj scf=xqc pop=npa geom=c
 heck
 ----------------------------------------------------------------------

 -------------------------------------
 CID_57198965_JID_10598_Energie_kation
 -------------------------------------
 Structure from the checkpoint file:  "JID_10598.chk"
 Charge =  1 Multiplicity = 2

 SCF Done:  E(UB3LYP) =  -1673.84394307     A.U. after   33 cycles
 SCF Done:  E(UB3LYP) =  -1673.84394307     a.u. after    1 cycles
 Normal termination of Gaussian 16 at Sun Dec 13 13:47:58 2020.
 Gaussian 16:  ES64L-G16RevA.03 25-Dec-2016

 ----------------------------------------------------------------------
 # B3LYP/6-311++G(d,p) empiricaldispersion=gd3bj scf=xqc pop=npa geom=c
 heck
 ----------------------------------------------------------------------

 ------------------------------------
 CID_57198965_JID_10598_Energie_anion
 ------------------------------------
 Structure from the checkpoint file:  "JID_10598.chk"
 Charge = -1 Multiplicity = 2

                         Standard orientation:
 ---------------------------------------------------------------------
 Center     Atomic      Atomic             Coordinates (Angstroms)
 Number     Number       Type             X           Y           Z
 ---------------------------------------------------------------------
      1          6           0        3.690923    2.340405    0.177234
      2          6           0        2.312230    2.538772    0.165162
      3          6           0        1.431856    1.447787    0.114547
      4          6           0        1.951957    0.148777    0.046869
      5          6           0        3.330776   -0.032789    0.037762
      6          6           0        4.211531    1.046767    0.115879
      7         16           0        3.978268   -1.733147   -0.015050
      8          8           0        2.779578   -2.586806   -0.260567
      9          8           0        4.880568   -1.546079   -1.422063
     10          6           0       -0.038422    1.735074    0.054880
     11          8           0       -0.433108    2.806981   -0.384203
     12          6           0       -1.021730    0.708133    0.525815
     13          6           0       -2.299173    0.716807   -0.053530
     14          6           0       -3.247189   -0.201242    0.374683
     15          6           0       -2.973485   -1.108483    1.403193
     16          6           0       -1.714621   -1.096026    1.998574
     17          6           0       -0.741115   -0.196874    1.558694
     18         16           0       -4.907062   -0.156772   -0.375094
     19          8           0       -4.757317    0.698117   -1.586504
     20          8           0       -4.958121   -1.787784   -0.793118
     21          1           0        4.361998    3.192495    0.226825
     22          1           0        1.891223    3.538014    0.193520
     23          1           0        1.312474   -0.723726   -0.031456
     24          1           0        5.284740    0.879254    0.107948
     25          1           0        4.282259   -1.256633   -2.140489
     26          1           0       -2.539383    1.426119   -0.838421
     27          1           0       -3.730679   -1.819751    1.719327
     28          1           0       -1.486478   -1.788887    2.802558
     29          1           0        0.231491   -0.186006    2.038194
     30          1           0       -4.200961   -1.980243   -1.382620
 ---------------------------------------------------------------------

 SCF Done:  E(UB3LYP) =  -1674.22040798     A.U. after   26 cycles

 The electronic state is 2-A.
 Alpha  occ. eigenvalues --  -88.89619 -88.89362 -19.07144 -19.06901 -19.01396
 Alpha  occ. eigenvalues --  -19.01197 -18.95021 -10.10020 -10.09726 -10.09304
 Alpha  occ. eigenvalues --  -10.07739 -10.07661 -10.07509 -10.07439 -10.07229
 Alpha  occ. eigenvalues --  -10.07198 -10.06983 -10.06686 -10.06382 -10.05926
 Alpha  occ. eigenvalues --   -7.96882  -7.96625  -5.93333  -5.93076  -5.92982
 Alpha  occ. eigenvalues --   -5.92726  -5.92392  -5.92136  -0.98892  -0.98706
 Alpha  occ. eigenvalues --   -0.91728  -0.91523  -0.89301  -0.76225  -0.75825
 Alpha  occ. eigenvalues --   -0.67527  -0.66575  -0.65625  -0.64625  -0.59295
 Alpha  occ. eigenvalues --   -0.58992  -0.54238  -0.51035  -0.50101  -0.49431
 Alpha  occ. eigenvalues --   -0.46429  -0.44227  -0.40905  -0.40501  -0.39586
 Alpha  occ. eigenvalues --   -0.36763  -0.36370  -0.36344  -0.36168  -0.35441
 Alpha  occ. eigenvalues --   -0.35363  -0.33961  -0.33272  -0.32406  -0.29788
 Alpha  occ. eigenvalues --   -0.29253  -0.28998  -0.28095  -0.27823  -0.26911
 Alpha  occ. eigenvalues --   -0.26427  -0.25491  -0.25302  -0.24855  -0.24317
 Alpha  occ. eigenvalues --   -0.23253  -0.21637  -0.21511  -0.16863  -0.16705
 Alpha  occ. eigenvalues --   -0.16126  -0.15860  -0.15559  -0.15219  -0.11496
 Alpha  occ. eigenvalues --    0.00306
 Alpha virt. eigenvalues --    0.05064   0.05586   0.07601   0.07803   0.08029
 Alpha virt. eigenvalues --    0.08600   0.09152   0.09819   0.09987   0.10242
 Alpha virt. eigenvalues --    0.11099   0.11419   0.11838   0.12198   0.12753

  Beta  occ. eigenvalues --  -88.89617 -88.89357 -19.07141 -19.06879 -19.01388
  Beta  occ. eigenvalues --  -19.01181 -18.94454 -10.09764 -10.09762 -10.09308
  Beta  occ. eigenvalues --  -10.07773 -10.07519 -10.07490 -10.07451 -10.07159
  Beta  occ. eigenvalues --  -10.06926 -10.06854 -10.06651 -10.06345 -10.05711
  Beta  occ. eigenvalues --   -7.96880  -7.96619  -5.93327  -5.93060  -5.92980
  Beta  occ. eigenvalues --   -5.92722  -5.92390  -5.92133  -0.98882  -0.98659
  Beta  occ. eigenvalues --   -0.91716  -0.91483  -0.88303  -0.76015  -0.75607
  Beta  occ. eigenvalues --   -0.67259  -0.66362  -0.65377  -0.64399  -0.59160
  Beta  occ. eigenvalues --   -0.58803  -0.53537  -0.50792  -0.50033  -0.49295
  Beta  occ. eigenvalues --   -0.46228  -0.44131  -0.40825  -0.40405  -0.39214
  Beta  occ. eigenvalues --   -0.36642  -0.36299  -0.36256  -0.36035  -0.35344
  Beta  occ. eigenvalues --   -0.35245  -0.33870  -0.33208  -0.32162  -0.29518
  Beta  occ. eigenvalues --   -0.28902  -0.28860  -0.27628  -0.27447  -0.26662
  Beta  occ. eigenvalues --   -0.26154  -0.25175  -0.24901  -0.24585  -0.24121
  Beta  occ. eigenvalues --   -0.21904  -0.21583  -0.21409  -0.16694  -0.16516
  Beta  occ. eigenvalues --   -0.15804  -0.15463  -0.14687  -0.13757  -0.10866
  Beta virt. eigenvalues --    0.05242   0.05758   0.06463   0.07609   0.07933
  Beta virt. eigenvalues --    0.08551   0.08833   0.09234   0.09861   0.10023
  Beta virt. eigenvalues --    0.10294   0.11181   0.11541   0.11970   0.12253

 Mulliken charges and spin densities:
               1          2
     1  C   -0.377784  -0.040870
     2  C   -0.014549   0.192829
     3  C    1.244620   0.045965
     4  C   -0.777468  -0.015773
     5  C   -0.266625  -0.006976
     6  C   -0.365808   0.224117
     7  S    0.295564   0.010630
     8  O   -0.386299   0.003623
     9  O   -0.247565  -0.007340
    10  C   -1.387764   0.113803
    11  O   -0.309151   0.209759
    12  C    1.794994   0.067598
    13  C    0.502547   0.066923
    14  C   -0.499285  -0.047268
    15  C   -0.522868   0.161767
    16  C   -0.323147  -0.022389
    17  C   -1.157712   0.075908
    18  S    0.321355   0.009299
    19  O   -0.377976   0.000679
    20  O   -0.260061  -0.002611
    21  H    0.138303   0.004131
    22  H    0.185255  -0.012836
    23  H    0.303990  -0.000167
    24  H    0.134148  -0.014443
    25  H    0.290344   0.005031
    26  H    0.306761  -0.005162
    27  H    0.154064  -0.013046
    28  H    0.147405   0.002706
    29  H    0.154704  -0.006180
    30  H    0.300009   0.000293
 Sum of Mulliken charges =  -1.00000   1.00000

 Dipole moment (field-independent basis, Debye):
    X=              2.0645    Y=             -2.7280    Z=              2.1492  Tot=              4.0402
 Quadrupole moment (field-independent basis, Debye-Ang):
   XX=           -195.6096   YY=           -164.3467   ZZ=           -137.1263
   XY=             14.1428   XZ=             -7.5618   YZ=              3.2247

 Summary of Natural Population Analysis:

                                       Natural Population
                Natural  -----------------------------------------------
    Atom  No    Charge         Core      Valence    Rydberg      Total
 -----------------------------------------------------------------------
      C    1   -0.12428      0.99958     2.11543    0.00928     3.12428
      C    2   -0.03024      0.99954     2.02161    0.00910     3.03024
      C    3   -0.04852      0.99948     2.03896    0.01008     3.04852
      C    4   -0.09153      0.99946     2.08276    0.00931     3.09153
      C    5   -0.14429      0.99937     2.13068    0.01425     3.14429
      C    6   -0.05160      0.99951     2.04225    0.00984     3.05160
      S    7    0.71247      4.99939     2.21986    0.06828     7.28753
      O    8   -0.46281      0.99993     3.45522    0.00766     4.46281
      O    9   -0.44198      0.99992     3.43226    0.00979     4.44198
      C   10    0.28725      0.99958     1.69258    0.02059     2.71275
      O   11   -0.23035      0.99988     3.22448    0.00598     4.23035
      C   12   -0.04549      0.99948     2.03597    0.01004     3.04549
      C   13   -0.06753      0.99946     2.05748    0.01059     3.06753
      C   14   -0.14799      0.99937     2.13440    0.01422     3.14799
      C   15   -0.06417      0.99951     2.05493    0.00974     3.06417
      C   16   -0.11532      0.99957     2.10642    0.00932     3.11532
      C   17   -0.05870      0.99954     2.05130    0.00786     3.05870
      S   18    0.71141      4.99939     2.22068    0.06851     7.28859
      O   19   -0.45966      0.99993     3.45209    0.00764     4.45966
      O   20   -0.44317      0.99992     3.43369    0.00956     4.44317
      H   21    0.09561      0.00000     0.40337    0.00102     0.40439
      H   22    0.10707      0.00000     0.39172    0.00121     0.39293
      H   23    0.12023      0.00000     0.37873    0.00103     0.37977
      H   24    0.09758      0.00000     0.40130    0.00112     0.40242
      H   25    0.23572      0.00000     0.26149    0.00278     0.26428
      H   26    0.12428      0.00000     0.37447    0.00126     0.37572
      H   27    0.09984      0.00000     0.39906    0.00111     0.40016
      H   28    0.09714      0.00000     0.40183    0.00103     0.40286
      H   29    0.10291      0.00000     0.39584    0.00125     0.39709
      H   30    0.23613      0.00000     0.26110    0.00277     0.26387
 =======================================================================
   * Total *   -0.00000     27.99179    51.67197    0.33623    80.00000

 Normal termination of Gaussian 16 at Sun Dec 13 14:01:35 2020.
