 Gaussian 16, Revision A.03,

 -----------------------------------------------------------
 # opt freq B3LYP/6-31G(d) empiricaldispersion=gd3bj scf=xqc
 -----------------------------------------------------------

 ------------------------------
 CID_89575354_JID_1024_neutraal
 ------------------------------
 Symbolic Z-matrix:
 Charge =  0 Multiplicity = 1

 SCF Done:  E(RB3LYP) =  -916.238448405     A.U. after   15 cycles
 SCF Done:  E(RB3LYP) =  -916.248731453     A.U. after   13 cycles
 SCF Done:  E(RB3LYP) =  -916.252255004     A.U. after   12 cycles
 SCF Done:  E(RB3LYP) =  -916.254494582     A.U. after   13 cycles
 SCF Done:  E(RB3LYP) =  -916.256537337     A.U. after   13 cycles
 SCF Done:  E(RB3LYP) =  -916.257303479     A.U. after   12 cycles
 SCF Done:  E(RB3LYP) =  -916.257475692     A.U. after   12 cycles
 SCF Done:  E(RB3LYP) =  -916.257501509     A.U. after   11 cycles
 SCF Done:  E(RB3LYP) =  -916.257541379     A.U. after   11 cycles
 SCF Done:  E(RB3LYP) =  -916.257544235     A.U. after    8 cycles
 SCF Done:  E(RB3LYP) =  -916.257544477     A.U. after    7 cycles
 SCF Done:  E(RB3LYP) =  -916.257544613     A.U. after    7 cycles
 SCF Done:  E(RB3LYP) =  -916.257544649     A.U. after    7 cycles
 SCF Done:  E(RB3LYP) =  -916.257544682     A.U. after    7 cycles
 SCF Done:  E(RB3LYP) =  -916.257544725     A.U. after    7 cycles
 SCF Done:  E(RB3LYP) =  -916.257544757     A.U. after    7 cycles
 Optimization completed.
    -- Stationary point found.
 Normal termination of Gaussian 16 at Tue Dec  8 19:13:24 2020.

 --------------------------------------------------------------------
 #N Geom=AllCheck Guess=TCheck SCRF=Check GenChk RB3LYP/6-31G(d) Freq
 --------------------------------------------------------------------

 Structure from the checkpoint file:  "JID_1024.chk"
 ------------------------------
 CID_89575354_JID_1024_neutraal
 ------------------------------
 Charge =  0 Multiplicity = 1

 SCF Done:  E(RB3LYP) =  -916.257544757     A.U. after    1 cycles

  Exact polarizability: 115.476  -0.438  97.041  -1.302   1.966  81.382
 Approx polarizability: 157.053   1.757 138.627  -0.013   6.667 125.526

                      1                      2                      3
                      A                      A                      A
 Frequencies --     21.3896                42.3133                68.6030
 Red. masses --      4.8442                 4.4861                 6.3525
 Frc consts  --      0.0013                 0.0047                 0.0176
 IR Inten    --      1.1961                 0.2919                 1.1338

                      4                      5                      6
                      A                      A                      A
 Frequencies --     82.7269               107.1561               127.9087
 Red. masses --      3.7612                 3.5767                 3.0927
 Frc consts  --      0.0152                 0.0242                 0.0298
 IR Inten    --      0.8818                 1.5619                 0.7530

                      7                      8                      9
                      A                      A                      A
 Frequencies --    188.4635               210.2647               245.8976
 Red. masses --      2.1540                 3.3421                 1.7182
 Frc consts  --      0.0451                 0.0871                 0.0612
 IR Inten    --      1.4341                 1.8850                12.6854

                     10                     11                     12
                      A                      A                      A
 Frequencies --    264.2436               293.9173               311.4323
 Red. masses --      3.0469                 1.7859                 2.1943
 Frc consts  --      0.1253                 0.0909                 0.1254
 IR Inten    --      0.4639                28.5551                 7.8043

                     13                     14                     15
                      A                      A                      A
 Frequencies --    343.3089               351.8944               401.2728
 Red. masses --      1.8885                 1.2921                 2.9747
 Frc consts  --      0.1311                 0.0943                 0.2822
 IR Inten    --     52.3973                74.2366                25.4915

                     16                     17                     18
                      A                      A                      A
 Frequencies --    412.6848               466.2823               517.2211
 Red. masses --      2.9834                 2.7599                 2.0114
 Frc consts  --      0.2994                 0.3535                 0.3170
 IR Inten    --      2.3096                 6.0827               116.7584

                     19                     20                     21
                      A                      A                      A
 Frequencies --    558.1946               636.5764               679.1267
 Red. masses --      2.8042                 2.4301                 3.6251
 Frc consts  --      0.5148                 0.5802                 0.9851
 IR Inten    --      9.0071                 7.7730               103.2935

                     22                     23                     24
                      A                      A                      A
 Frequencies --    728.9876               740.6850               817.5927
 Red. masses --     11.0578                 1.3515                 2.5357
 Frc consts  --      3.4623                 0.4368                 0.9987
 IR Inten    --    140.2017                 7.7005                32.9833

                     25                     26                     27
                      A                      A                      A
 Frequencies --    821.5368               882.6315               903.4602
 Red. masses --      1.6743                 1.6442                 1.5850
 Frc consts  --      0.6658                 0.7547                 0.7623
 IR Inten    --      3.4892                55.4376                14.4032

                     28                     29                     30
                      A                      A                      A
 Frequencies --    936.1561               981.2677               987.0542
 Red. masses --      2.0774                 1.8984                 1.6423
 Frc consts  --      1.0727                 1.0770                 0.9427
 IR Inten    --     71.8417                 2.7073                 5.7129

                     31                     32                     33
                      A                      A                      A
 Frequencies --   1043.8891              1079.1312              1095.3361
 Red. masses --      1.6700                 2.1675                 2.2358
 Frc consts  --      1.0722                 1.4872                 1.5805
 IR Inten    --     28.6684                17.5963                36.0360

                     34                     35                     36
                      A                      A                      A
 Frequencies --   1116.3253              1128.6253              1156.6418
 Red. masses --      2.1047                 1.8514                 1.6843
 Frc consts  --      1.5454                 1.3895                 1.3276
 IR Inten    --      8.0322                14.9983                64.6102

                     37                     38                     39
                      A                      A                      A
 Frequencies --   1169.9163              1209.5923              1210.5108
 Red. masses --      2.1615                 1.7910                 2.0645
 Frc consts  --      1.7431                 1.5439                 1.7824
 IR Inten    --      1.7076                62.2154               103.2517

                     40                     41                     42
                      A                      A                      A
 Frequencies --   1260.8211              1274.6591              1302.3434
 Red. masses --      1.2985                 1.2980                 1.3126
 Frc consts  --      1.2162                 1.2425                 1.3117
 IR Inten    --     13.4643                15.1702                24.3604

                     43                     44                     45
                      A                      A                      A
 Frequencies --   1327.8790              1365.2486              1392.6521
 Red. masses --      1.1906                 1.2821                 1.4194
 Frc consts  --      1.2369                 1.4080                 1.6219
 IR Inten    --      0.5695                 3.0760                 1.0457

                     46                     47                     48
                      A                      A                      A
 Frequencies --   1399.1883              1404.4699              1415.9515
 Red. masses --      1.3292                 1.3411                 1.4036
 Frc consts  --      1.5332                 1.5586                 1.6581
 IR Inten    --     11.1392                 6.0861                18.1219

                     49                     50                     51
                      A                      A                      A
 Frequencies --   1431.7497              1448.2055              1453.0616
 Red. masses --      1.2638                 1.2570                 1.2834
 Frc consts  --      1.5263                 1.5533                 1.5965
 IR Inten    --     29.4548                 5.9655                33.5213

                     52                     53                     54
                      A                      A                      A
 Frequencies --   1512.5731              1524.5649              1528.2594
 Red. masses --      1.0749                 1.0725                 1.0617
 Frc consts  --      1.4490                 1.4687                 1.4610
 IR Inten    --      0.4978                 3.2280                 8.0245

                     55                     56                     57
                      A                      A                      A
 Frequencies --   1533.1434              1538.9823              1544.5342
 Red. masses --      1.0718                 1.0745                 1.0711
 Frc consts  --      1.4843                 1.4995                 1.5055
 IR Inten    --      5.8065                 7.6811                 0.6165

                     58                     59                     60
                      A                      A                      A
 Frequencies --   3025.7631              3033.8341              3035.8779
 Red. masses --      1.0647                 1.0683                 1.0649
 Frc consts  --      5.7429                 5.7934                 5.7825
 IR Inten    --     10.3371                60.5293                10.8756

                     61                     62                     63
                      A                      A                      A
 Frequencies --   3042.1732              3046.8331              3061.3340
 Red. masses --      1.0667                 1.0382                 1.0965
 Frc consts  --      5.8167                 5.6786                 6.0546
 IR Inten    --     37.9680                14.6411                31.9479

                     64                     65                     66
                      A                      A                      A
 Frequencies --   3071.2641              3080.6606              3102.5054
 Red. masses --      1.0977                 1.0863                 1.0940
 Frc consts  --      6.1004                 6.0741                 6.2043
 IR Inten    --     43.4675                20.9181                50.9406

                     67                     68                     69
                      A                      A                      A
 Frequencies --   3108.5450              3112.1693              3119.8412
 Red. masses --      1.0991                 1.1014                 1.1014
 Frc consts  --      6.2574                 6.2853                 6.3165
 IR Inten    --     20.4454                49.4461                37.7915

                     70                     71                     72
                      A                      A                      A
 Frequencies --   3482.2587              3616.2940              3750.9513
 Red. masses --      1.0742                 1.0650                 1.0662
 Frc consts  --      7.6746                 8.2057                 8.8380
 IR Inten    --     34.5523                33.9881                14.5895

 - Thermochemistry -
 -------------------
 Temperature   298.150 Kelvin.  Pressure   1.00000 Atm.
 Atom     1 has atomic number  6 and mass  12.00000

 Molecular mass:   181.07727 amu.
 Principal axes and moments of inertia in atomic units:
                           1         2         3
     Eigenvalues --  1487.720563134.582454201.02114
           X            0.99959   0.02866   0.00232
           Y           -0.02865   0.99958  -0.00334
           Z           -0.00241   0.00327   0.99999
 This molecule is an asymmetric top.
 Rotational symmetry number  1.
 Warning -- assumption of classical behavior for rotation
           may cause significant error
 Rotational temperatures (Kelvin)      0.05822     0.02763     0.02062
 Rotational constants (GHZ):           1.21309     0.57575     0.42960
 Zero-point vibrational energy     584308.8 (Joules/Mol)
                                  139.65317 (Kcal/Mol)
 Warning -- explicit consideration of  19 degrees of freedom as
           vibrations may cause significant error
 Vibrational temperatures:     30.77    60.88    98.70   119.03   154.17
          (Kelvin)            184.03   271.16   302.52   353.79   380.19
                              422.88   448.08   493.94   506.30   577.34
                              593.76   670.88   744.17   803.12   915.89
                              977.11  1048.85  1065.68  1176.33  1182.01
                             1269.91  1299.88  1346.92  1411.83  1420.15
                             1501.92  1552.63  1575.94  1606.14  1623.84
                             1664.15  1683.25  1740.33  1741.66  1814.04
                             1833.95  1873.78  1910.52  1964.29  2003.72
                             2013.12  2020.72  2037.24  2059.97  2083.64
                             2090.63  2176.26  2193.51  2198.82  2205.85
                             2214.25  2222.24  4353.40  4365.01  4367.95
                             4377.01  4383.71  4404.58  4418.86  4432.38
                             4463.81  4472.50  4477.72  4488.76  5010.19
                             5203.04  5396.78

 Zero-point correction=                           0.222551 (Hartree/Particle)
 Thermal correction to Energy=                    0.236169
 Thermal correction to Enthalpy=                  0.237113
 Thermal correction to Gibbs Free Energy=         0.180826
 Sum of electronic and zero-point Energies=           -916.034993
 Sum of electronic and thermal Energies=              -916.021376
 Sum of electronic and thermal Enthalpies=            -916.020432
 Sum of electronic and thermal Free Energies=         -916.076719

                     E (Thermal)             CV                S
                      KCal/Mol        Cal/Mol-Kelvin    Cal/Mol-Kelvin
 Total                  148.198             48.956            118.467
 Electronic               0.000              0.000              0.000
 Translational            0.889              2.981             41.488
 Rotational               0.889              2.981             31.350
 Vibrational            146.421             42.994             45.630
 Vibration     1          0.593              1.985              6.501
 Vibration     2          0.595              1.980              5.148
 Vibration     3          0.598              1.969              4.193
 Vibration     4          0.600              1.961              3.825
 Vibration     5          0.606              1.944              3.320
 Vibration     6          0.611              1.925              2.977
 Vibration     7          0.633              1.856              2.243
 Vibration     8          0.642              1.825              2.041
 Vibration     9          0.660              1.770              1.760
 Vibration    10          0.671              1.738              1.634
 Vibration    11          0.689              1.685              1.451
 Vibration    12          0.700              1.652              1.355
 Vibration    13          0.722              1.589              1.197
 Vibration    14          0.728              1.571              1.158
 Vibration    15          0.767              1.467              0.958
 Vibration    16          0.776              1.443              0.917
 Vibration    17          0.824              1.325              0.748
 Vibration    18          0.872              1.212              0.616
 Vibration    19          0.914              1.122              0.527

                           ! Non-Optimized Parameters !
 Normal termination of Gaussian 16 at Tue Dec  8 19:18:36 2020.

 ----------------------------------------------------------------------
 # B3LYP/6-311++G(d,p) empiricaldispersion=gd3bj scf=xqc pop=npa geom=c
 heck
 ----------------------------------------------------------------------

 --------------------------------------
 CID_89575354_JID_1024_Energie_neutraal
 --------------------------------------
 Structure from the checkpoint file:  "JID_1024.chk"
 Charge =  0 Multiplicity = 1

 SCF Done:  E(RB3LYP) =  -916.461163037     A.U. after   15 cycles
 Normal termination of Gaussian 16 at Tue Dec  8 19:20:46 2020.

 ----------------------------------------------------------------------
 # B3LYP/6-311++G(d,p) empiricaldispersion=gd3bj scf=xqc pop=npa geom=c
 heck
 ----------------------------------------------------------------------

 ------------------------------------
 CID_89575354_JID_1024_Energie_kation
 ------------------------------------
 Structure from the checkpoint file:  "JID_1024.chk"
 Charge =  1 Multiplicity = 2

 SCF Done:  E(UB3LYP) =  -916.124556760     A.U. after   23 cycles
 Normal termination of Gaussian 16 at Tue Dec  8 19:25:05 2020.
 Gaussian 16:  ES64L-G16RevA.03 25-Dec-2016

 ----------------------------------------------------------------------
 # B3LYP/6-311++G(d,p) empiricaldispersion=gd3bj scf=xqc pop=npa geom=c
 heck
 ----------------------------------------------------------------------

 -----------------------------------
 CID_89575354_JID_1024_Energie_anion
 -----------------------------------
 Structure from the checkpoint file:  "JID_1024.chk"
 Charge = -1 Multiplicity = 2

                         Standard orientation:
 ---------------------------------------------------------------------
 Center     Atomic      Atomic             Coordinates (Angstroms)
 Number     Number       Type             X           Y           Z
 ---------------------------------------------------------------------
      1          6           0       -2.758261   -2.116759   -0.118783
      2          6           0       -3.083946   -0.690495   -0.573845
      3          6           0       -2.778553    0.386662    0.480035
      4          6           0       -1.337586    0.375493    1.012205
      5          6           0       -0.246111    0.470811   -0.064127
      6          6           0       -0.289494    1.776407   -0.869887
      7          8           0        0.043173    2.902608   -0.061549
      8          7           0        1.065647    0.304117    0.590432
      9         16           0        2.266960   -0.483006   -0.381491
     10          8           0        3.519201   -0.249322    0.369644
     11          8           0        1.652421   -2.009589   -0.072912
     12          1           0       -1.682076   -2.263924    0.026949
     13          1           0       -3.089683   -2.849660   -0.861988
     14          1           0       -3.258468   -2.351850    0.828804
     15          1           0       -2.537921   -0.471649   -1.501489
     16          1           0       -4.148043   -0.625543   -0.833640
     17          1           0       -3.020245    1.373284    0.061084
     18          1           0       -3.454954    0.250893    1.334374
     19          1           0       -1.201406    1.195247    1.731548
     20          1           0       -1.154094   -0.542411    1.579315
     21          1           0       -0.370485   -0.366966   -0.759501
     22          1           0        0.471534    1.744327   -1.655821
     23          1           0       -1.266200    1.904847   -1.357110
     24          1           0       -0.708620    3.081270    0.523868
     25          1           0        1.434737    1.211039    0.884495
     26          1           0        1.500379   -2.051927    0.894899
 ---------------------------------------------------------------------

 SCF Done:  E(UB3LYP) =  -916.453994134     A.U. after   26 cycles

 The electronic state is 2-A.
 Alpha  occ. eigenvalues --  -88.91676 -19.06881 -19.02891 -19.02312 -14.23987
 Alpha  occ. eigenvalues --  -10.12443 -10.11705 -10.06658 -10.06612 -10.06187
 Alpha  occ. eigenvalues --  -10.05738  -7.98712  -5.95089  -5.94888  -5.94253
 Alpha  occ. eigenvalues --   -1.00257  -0.93119  -0.92524  -0.82442  -0.70665
 Alpha  occ. eigenvalues --   -0.65820  -0.61004  -0.58530  -0.55730  -0.51128
 Alpha  occ. eigenvalues --   -0.46033  -0.45218  -0.42609  -0.39927  -0.38003
 Alpha  occ. eigenvalues --   -0.37366  -0.36457  -0.35330  -0.34405  -0.32956
 Alpha  occ. eigenvalues --   -0.30423  -0.29545  -0.28638  -0.27232  -0.27110
 Alpha  occ. eigenvalues --   -0.25588  -0.24381  -0.23391  -0.22702  -0.22495
 Alpha  occ. eigenvalues --   -0.22177  -0.20631  -0.18765  -0.15988   0.04267
 Alpha virt. eigenvalues --    0.06682   0.07187   0.08086   0.08638   0.09477
 Alpha virt. eigenvalues --    0.09966   0.10310   0.10726   0.11678   0.11924
 Alpha virt. eigenvalues --    0.13073   0.13311   0.13781   0.14088   0.14886

  Beta  occ. eigenvalues --  -88.91667 -19.06850 -19.02827 -19.02297 -14.23973
  Beta  occ. eigenvalues --  -10.12423 -10.11705 -10.06626 -10.06597 -10.06146
  Beta  occ. eigenvalues --  -10.05702  -7.98703  -5.95068  -5.94878  -5.94244
  Beta  occ. eigenvalues --   -1.00207  -0.92980  -0.92469  -0.82410  -0.70613
  Beta  occ. eigenvalues --   -0.65771  -0.60922  -0.58465  -0.55654  -0.51062
  Beta  occ. eigenvalues --   -0.45951  -0.45154  -0.42528  -0.39865  -0.37956
  Beta  occ. eigenvalues --   -0.37291  -0.36408  -0.35285  -0.34357  -0.32910
  Beta  occ. eigenvalues --   -0.30379  -0.29510  -0.28582  -0.27185  -0.27062
  Beta  occ. eigenvalues --   -0.25547  -0.24319  -0.23343  -0.22642  -0.22446
  Beta  occ. eigenvalues --   -0.22124  -0.20570  -0.18712  -0.15941
  Beta virt. eigenvalues --    0.06809   0.07470   0.08160   0.08523   0.09029
  Beta virt. eigenvalues --    0.10043   0.10157   0.10628   0.11280   0.12110
  Beta virt. eigenvalues --    0.12208   0.13220   0.13762   0.14197   0.14383

 Mulliken charges and spin densities:
               1          2
     1  C    1.136600  -1.743576
     2  C   -1.068802   0.939220
     3  C    1.538485  -1.833086
     4  C   -0.758186   1.092809
     5  C   -0.423630  -0.570887
     6  C    1.012337  -1.637021
     7  O   -0.265811   0.036869
     8  N   -0.164416   0.112558
     9  S    0.569727  -0.093814
    10  O   -0.432947   0.003575
    11  O   -0.244800  -0.017146
    12  H   -0.110949   0.246449
    13  H   -0.122191   0.251450
    14  H   -0.229157   0.371396
    15  H   -0.005043   0.130316
    16  H   -0.338183   0.509957
    17  H   -0.465520   0.615618
    18  H   -0.593830   0.773265
    19  H   -0.377900   0.570875
    20  H   -0.085015   0.308326
    21  H    0.255725  -0.126601
    22  H    0.193517  -0.034174
    23  H   -0.141350   0.319994
    24  H   -0.221433   0.498105
    25  H    0.227166   0.082114
    26  H    0.115609   0.193408
 Sum of Mulliken charges =  -1.00000   1.00000

 Dipole moment (field-independent basis, Debye):
    X=              4.9181    Y=             -2.2155    Z=             -3.3813  Tot=              6.3663
 Quadrupole moment (field-independent basis, Debye-Ang):
   XX=           -149.8922   YY=           -129.0888   ZZ=           -101.2962
   XY=              4.5390   XZ=              2.4901   YZ=             -4.0839

 Summary of Natural Population Analysis:

                                       Natural Population
                Natural  -----------------------------------------------
    Atom  No    Charge         Core      Valence    Rydberg      Total
 -----------------------------------------------------------------------
      C    1   -0.28860      0.99966     2.28355    0.00539     3.28860
      C    2   -0.19212      0.99964     2.18418    0.00830     3.19212
      C    3   -0.19124      0.99962     2.18155    0.01007     3.19124
      C    4   -0.19745      0.99960     2.18500    0.01285     3.19745
      C    5   -0.03862      0.99957     2.02316    0.01589     3.03862
      C    6   -0.01640      0.99956     2.00341    0.01344     3.01640
      O    7   -0.37509      0.99990     3.36802    0.00717     4.37509
      N    8   -0.42553      0.99974     2.91178    0.01400     3.92553
      S    9    0.78161      4.99955     2.14915    0.06969     7.21839
      O   10   -0.45611      0.99992     3.44971    0.00648     4.45611
      O   11   -0.43899      0.99992     3.43102    0.00804     4.43899
      H   12    0.09717      0.00000     0.40164    0.00119     0.40283
      H   13    0.09823      0.00000     0.40088    0.00089     0.40177
      H   14    0.09791      0.00000     0.40094    0.00115     0.40209
      H   15    0.08809      0.00000     0.41066    0.00125     0.41191
      H   16    0.09860      0.00000     0.40020    0.00119     0.40140
      H   17    0.09993      0.00000     0.39694    0.00314     0.40007
      H   18    0.10151      0.00000     0.39638    0.00212     0.39849
      H   19    0.10375      0.00000     0.39387    0.00238     0.39625
      H   20    0.10384      0.00000     0.39407    0.00208     0.39616
      H   21    0.10139      0.00000     0.39571    0.00290     0.39861
      H   22    0.08385      0.00000     0.41473    0.00142     0.41615
      H   23    0.08742      0.00000     0.41142    0.00116     0.41258
      H   24    0.23895      0.00000     0.25204    0.00901     0.26105
      H   25    0.19904      0.00000     0.29811    0.00286     0.30096
      H   26    0.23887      0.00000     0.25617    0.00496     0.26113
 =======================================================================
   * Total *    0.00000     14.99670    33.79430    0.20900    49.00000

 Normal termination of Gaussian 16 at Tue Dec  8 19:29:58 2020.
