 Gaussian 16, Revision A.03,

 -----------------------------------------------------------
 # opt freq B3LYP/6-31G(d) empiricaldispersion=gd3bj scf=xqc
 -----------------------------------------------------------

 ------------------------------
 CID_60902730_JID_4791_neutraal
 ------------------------------
 Symbolic Z-matrix:
 Charge =  0 Multiplicity = 1

 SCF Done:  E(RB3LYP) =  -972.466894381     A.U. after   15 cycles
 SCF Done:  E(RB3LYP) =  -972.472541853     A.U. after   14 cycles
 SCF Done:  E(RB3LYP) =  -972.474776467     A.U. after   13 cycles
 SCF Done:  E(RB3LYP) =  -972.475904300     A.U. after   13 cycles
 SCF Done:  E(RB3LYP) =  -972.476755828     A.U. after   13 cycles
 SCF Done:  E(RB3LYP) =  -972.477160258     A.U. after   12 cycles
 SCF Done:  E(RB3LYP) =  -972.477297561     A.U. after   12 cycles
 SCF Done:  E(RB3LYP) =  -972.477331700     A.U. after   11 cycles
 SCF Done:  E(RB3LYP) =  -972.477339882     A.U. after   10 cycles
 SCF Done:  E(RB3LYP) =  -972.477344297     A.U. after    9 cycles
 SCF Done:  E(RB3LYP) =  -972.477345229     A.U. after    8 cycles
 SCF Done:  E(RB3LYP) =  -972.477345423     A.U. after    8 cycles
 Optimization completed.
    -- Stationary point found.
 Normal termination of Gaussian 16 at Thu Dec 10 09:55:24 2020.

 --------------------------------------------------------------------
 #N Geom=AllCheck Guess=TCheck SCRF=Check GenChk RB3LYP/6-31G(d) Freq
 --------------------------------------------------------------------

 Structure from the checkpoint file:  "JID_4791.chk"
 ------------------------------
 CID_60902730_JID_4791_neutraal
 ------------------------------
 Charge =  0 Multiplicity = 1

 SCF Done:  E(RB3LYP) =  -972.477345423     A.U. after    1 cycles

  Exact polarizability: 212.282  13.775 143.341   3.913  -8.277  85.012
 Approx polarizability: 283.838  32.989 263.889   6.895 -21.433 124.903

                      1                      2                      3
                      A                      A                      A
 Frequencies --     36.8086                50.8985                71.0350
 Red. masses --      4.5812                 4.1980                 2.1866
 Frc consts  --      0.0037                 0.0064                 0.0065
 IR Inten    --      5.7290                 1.0941                 0.6678

                      4                      5                      6
                      A                      A                      A
 Frequencies --     82.6462                99.9680               134.9468
 Red. masses --      4.2580                 3.9820                 4.1819
 Frc consts  --      0.0171                 0.0234                 0.0449
 IR Inten    --      0.1305                 4.2013                 0.1377

                      7                      8                      9
                      A                      A                      A
 Frequencies --    191.9045               214.6277               247.8262
 Red. masses --      4.3441                 1.0831                 1.8332
 Frc consts  --      0.0943                 0.0294                 0.0663
 IR Inten    --      1.1140                 0.0612                 0.5721

                     10                     11                     12
                      A                      A                      A
 Frequencies --    254.8311               263.6713               284.1862
 Red. masses --      3.2530                 2.2980                 3.7514
 Frc consts  --      0.1245                 0.0941                 0.1785
 IR Inten    --      1.8525                 1.8735                 1.3677

                     13                     14                     15
                      A                      A                      A
 Frequencies --    361.7251               390.9602               400.2523
 Red. masses --      3.0359                 2.1053                 1.6431
 Frc consts  --      0.2340                 0.1896                 0.1551
 IR Inten    --     35.7715                79.8787                99.3711

                     16                     17                     18
                      A                      A                      A
 Frequencies --    426.0836               427.3589               453.0120
 Red. masses --      3.5628                 2.6026                 4.3924
 Frc consts  --      0.3811                 0.2801                 0.5311
 IR Inten    --     10.9404                 4.2699                 5.3815

                     19                     20                     21
                      A                      A                      A
 Frequencies --    497.6611               531.2630               605.4982
 Red. masses --      4.7728                 3.0021                 1.1909
 Frc consts  --      0.6964                 0.4992                 0.2572
 IR Inten    --     12.2005                 0.7125                25.3050

                     22                     23                     24
                      A                      A                      A
 Frequencies --    621.0199               645.0188               655.1682
 Red. masses --      3.4890                 5.7678                 6.0948
 Frc consts  --      0.7928                 1.4139                 1.5414
 IR Inten    --      8.8583                 1.8608                 3.4788

                     25                     26                     27
                      A                      A                      A
 Frequencies --    718.1567               768.2757               783.7848
 Red. masses --      6.7915                 5.4370                 2.0817
 Frc consts  --      2.0637                 1.8908                 0.7535
 IR Inten    --     13.0212                 4.8280                 3.7958

                     28                     29                     30
                      A                      A                      A
 Frequencies --    814.6644               847.4733               867.1372
 Red. masses --      1.6465                 1.5404                 2.4357
 Frc consts  --      0.6438                 0.6518                 1.0791
 IR Inten    --      6.2794                30.7231                 0.6805

                     31                     32                     33
                      A                      A                      A
 Frequencies --    924.6344               943.8949               973.9344
 Red. masses --      2.8170                 2.1843                 1.4322
 Frc consts  --      1.4190                 1.1466                 0.8004
 IR Inten    --     37.8886                34.7214                 5.8125

                     34                     35                     36
                      A                      A                      A
 Frequencies --    985.4031               988.5120              1007.0602
 Red. masses --      1.3105                 1.3006                 1.8028
 Frc consts  --      0.7497                 0.7488                 1.0772
 IR Inten    --      0.5814                16.5027                26.6412

                     37                     38                     39
                      A                      A                      A
 Frequencies --   1035.9079              1053.0179              1146.0203
 Red. masses --      2.8904                 2.9661                 2.0530
 Frc consts  --      1.8275                 1.9378                 1.5886
 IR Inten    --      7.7324                26.3663               163.8665

                     40                     41                     42
                      A                      A                      A
 Frequencies --   1165.9739              1169.4928              1175.4330
 Red. masses --      1.5492                 1.6337                 2.0840
 Frc consts  --      1.2409                 1.3165                 1.6965
 IR Inten    --      9.2515                56.0215                 7.4558

                     43                     44                     45
                      A                      A                      A
 Frequencies --   1214.6507              1298.4589              1308.4295
 Red. masses --      1.9529                 2.4164                 1.8011
 Frc consts  --      1.6976                 2.4003                 1.8167
 IR Inten    --      3.5826                27.6537                16.9296

                     46                     47                     48
                      A                      A                      A
 Frequencies --   1325.4297              1336.5821              1361.3846
 Red. masses --      1.8940                 1.3983                 2.4392
 Frc consts  --      1.9603                 1.4717                 2.6635
 IR Inten    --    345.6049                 2.0074                95.6487

                     49                     50                     51
                      A                      A                      A
 Frequencies --   1370.3662              1379.3535              1409.9008
 Red. masses --      1.9954                 3.3536                 1.4112
 Frc consts  --      2.2077                 3.7593                 1.6528
 IR Inten    --     70.2514               285.8734                23.9810

                     52                     53                     54
                      A                      A                      A
 Frequencies --   1430.0200              1438.0181              1443.1646
 Red. masses --      1.4322                 1.9802                 1.2252
 Frc consts  --      1.7256                 2.4126                 1.5034
 IR Inten    --     31.2292                29.8699                 2.1506

                     55                     56                     57
                      A                      A                      A
 Frequencies --   1451.0432              1515.4033              1523.7264
 Red. masses --      2.0891                 1.0993                 1.0841
 Frc consts  --      2.5916                 1.4873                 1.4829
 IR Inten    --     82.2303                18.8653                 8.8881

                     58                     59                     60
                      A                      A                      A
 Frequencies --   1532.3469              1537.8385              1542.1010
 Red. masses --      1.0935                 1.2461                 1.2332
 Frc consts  --      1.5127                 1.7363                 1.7278
 IR Inten    --      6.9395                36.2644                34.7618

                     61                     62                     63
                      A                      A                      A
 Frequencies --   1547.2456              1604.9064              1656.7923
 Red. masses --      1.4108                 6.1338                 5.9771
 Frc consts  --      1.9899                 9.3086                 9.6666
 IR Inten    --     82.9904                33.1437               343.7919

                     64                     65                     66
                      A                      A                      A
 Frequencies --   1661.2808              3047.0716              3057.4023
 Red. masses --      1.2414                 1.0381                 1.0698
 Frc consts  --      2.0186                 5.6787                 5.8917
 IR Inten    --    186.6817                28.2473                25.3392

                     67                     68                     69
                      A                      A                      A
 Frequencies --   3065.2981              3070.8815              3106.0679
 Red. masses --      1.0633                 1.0583                 1.0977
 Frc consts  --      5.8865                 5.8801                 6.2398
 IR Inten    --     18.0985                40.5085                14.6018

                     70                     71                     72
                      A                      A                      A
 Frequencies --   3123.0612              3130.6385              3137.9988
 Red. masses --      1.1015                 1.1012                 1.0977
 Frc consts  --      6.3301                 6.3590                 6.3683
 IR Inten    --     42.2290                22.7702                26.4192

                     73                     74                     75
                      A                      A                      A
 Frequencies --   3171.6774              3197.7566              3209.5076
 Red. masses --      1.1006                 1.0892                 1.0914
 Frc consts  --      6.5232                 6.5620                 6.6238
 IR Inten    --     14.2971                 7.7111                 2.4835

                     76                     77                     78
                      A                      A                      A
 Frequencies --   3232.3148              3565.3889              3688.5765
 Red. masses --      1.0943                 1.0452                 1.1038
 Frc consts  --      6.7361                 7.8284                 8.8486
 IR Inten    --      4.8930                46.8095                33.9251

 - Thermochemistry -
 -------------------
 Temperature   298.150 Kelvin.  Pressure   1.00000 Atm.
 Atom     1 has atomic number  6 and mass  12.00000

 Molecular mass:   210.08268 amu.
 Principal axes and moments of inertia in atomic units:
                           1         2         3
     Eigenvalues --  1299.969546812.036007435.67500
           X            0.99971  -0.02391   0.00166
           Y            0.02391   0.99971   0.00346
           Z           -0.00174  -0.00342   0.99999
 This molecule is an asymmetric top.
 Rotational symmetry number  1.
 Warning -- assumption of classical behavior for rotation
           may cause significant error
 Rotational temperatures (Kelvin)      0.06663     0.01271     0.01165
 Rotational constants (GHZ):           1.38829     0.26493     0.24271
 Zero-point vibrational energy     610150.7 (Joules/Mol)
                                  145.82952 (Kcal/Mol)
 Warning -- explicit consideration of  21 degrees of freedom as
           vibrations may cause significant error
 Vibrational temperatures:     52.96    73.23   102.20   118.91   143.83
          (Kelvin)            194.16   276.11   308.80   356.57   366.65
                              379.36   408.88   520.44   562.50   575.87
                              613.04   614.87   651.78   716.02   764.37
                              871.18   893.51   928.04   942.64  1033.27
                             1105.38  1127.69  1172.12  1219.32  1247.62
                             1330.34  1358.05  1401.27  1417.78  1422.25
                             1448.93  1490.44  1515.06  1648.87  1677.58
                             1682.64  1691.19  1747.61  1868.19  1882.54
                             1907.00  1923.04  1958.73  1971.65  1984.58
                             2028.53  2057.48  2068.99  2076.39  2087.73
                             2180.33  2192.30  2204.71  2212.61  2218.74
                             2226.14  2309.10  2383.75  2390.21  4384.06
                             4398.92  4410.28  4418.31  4468.94  4493.39
                             4504.29  4514.88  4563.34  4600.86  4617.77
                             4650.58  5129.80  5307.04

 Zero-point correction=                           0.232394 (Hartree/Particle)
 Thermal correction to Energy=                    0.246699
 Thermal correction to Enthalpy=                  0.247644
 Thermal correction to Gibbs Free Energy=         0.190233
 Sum of electronic and zero-point Energies=           -972.244951
 Sum of electronic and thermal Energies=              -972.230646
 Sum of electronic and thermal Enthalpies=            -972.229702
 Sum of electronic and thermal Free Energies=         -972.287112

                     E (Thermal)             CV                S
                      KCal/Mol        Cal/Mol-Kelvin    Cal/Mol-Kelvin
 Total                  154.806             53.430            120.830
 Electronic               0.000              0.000              0.000
 Translational            0.889              2.981             41.931
 Rotational               0.889              2.981             32.554
 Vibrational            153.029             47.469             46.345
 Vibration     1          0.594              1.982              5.424
 Vibration     2          0.595              1.977              4.782
 Vibration     3          0.598              1.968              4.124
 Vibration     4          0.600              1.961              3.827
 Vibration     5          0.604              1.949              3.455
 Vibration     6          0.613              1.918              2.874
 Vibration     7          0.634              1.851              2.209
 Vibration     8          0.645              1.819              2.004
 Vibration     9          0.661              1.766              1.746
 Vibration    10          0.665              1.755              1.697
 Vibration    11          0.670              1.739              1.637
 Vibration    12          0.683              1.703              1.508
 Vibration    13          0.736              1.551              1.115
 Vibration    14          0.759              1.489              0.996
 Vibration    15          0.766              1.470              0.962
 Vibration    16          0.788              1.413              0.872
 Vibration    17          0.789              1.411              0.867
 Vibration    18          0.812              1.354              0.787
 Vibration    19          0.853              1.255              0.664
 Vibration    20          0.886              1.181              0.584
 Vibration    21          0.964              1.020              0.440

                           ! Non-Optimized Parameters !
 Normal termination of Gaussian 16 at Thu Dec 10 10:02:21 2020.

 ----------------------------------------------------------------------
 # B3LYP/6-311++G(d,p) empiricaldispersion=gd3bj scf=xqc pop=npa geom=c
 heck
 ----------------------------------------------------------------------

 --------------------------------------
 CID_60902730_JID_4791_Energie_neutraal
 --------------------------------------
 Structure from the checkpoint file:  "JID_4791.chk"
 Charge =  0 Multiplicity = 1

 SCF Done:  E(RB3LYP) =  -972.663730283     A.U. after   15 cycles
 Normal termination of Gaussian 16 at Thu Dec 10 10:05:12 2020.

 ----------------------------------------------------------------------
 # B3LYP/6-311++G(d,p) empiricaldispersion=gd3bj scf=xqc pop=npa geom=c
 heck
 ----------------------------------------------------------------------

 ------------------------------------
 CID_60902730_JID_4791_Energie_kation
 ------------------------------------
 Structure from the checkpoint file:  "JID_4791.chk"
 Charge =  1 Multiplicity = 2

 SCF Done:  E(UB3LYP) =  -972.377176657     A.U. after   25 cycles
 Normal termination of Gaussian 16 at Thu Dec 10 10:13:59 2020.
 Gaussian 16:  ES64L-G16RevA.03 25-Dec-2016

 ----------------------------------------------------------------------
 # B3LYP/6-311++G(d,p) empiricaldispersion=gd3bj scf=xqc pop=npa geom=c
 heck
 ----------------------------------------------------------------------

 -----------------------------------
 CID_60902730_JID_4791_Energie_anion
 -----------------------------------
 Structure from the checkpoint file:  "JID_4791.chk"
 Charge = -1 Multiplicity = 2

                         Standard orientation:
 ---------------------------------------------------------------------
 Center     Atomic      Atomic             Coordinates (Angstroms)
 Number     Number       Type             X           Y           Z
 ---------------------------------------------------------------------
      1          6           0       -4.702299    1.193696    1.087969
      2          6           0       -3.362192    0.458298    0.987173
      3          6           0       -3.210593   -0.296255   -0.337024
      4          6           0       -3.110553    0.585762   -1.578189
      5          8           0       -2.127124   -1.271341   -0.277628
      6          6           0       -0.840788   -0.909436   -0.164585
      7          7           0       -0.488388    0.373503   -0.060766
      8          6           0        0.811334    0.662448    0.040988
      9          6           0        1.831456   -0.295414    0.062692
     10          6           0        1.434451   -1.644255   -0.048274
     11          6           0        0.096474   -1.962420   -0.167141
     12          6           0        3.245990    0.109017    0.194783
     13         16           0        3.841049    1.580985   -0.320939
     14          7           0        4.062002   -0.825319    0.745157
     15          1           0       -4.782888    1.994032    0.344635
     16          1           0       -4.816225    1.650836    2.076307
     17          1           0       -5.547648    0.510466    0.937978
     18          1           0       -2.532157    1.159550    1.102000
     19          1           0       -3.283549   -0.275464    1.799136
     20          1           0       -4.074552   -0.960207   -0.450832
     21          1           0       -2.309293    1.319671   -1.479476
     22          1           0       -2.921206   -0.030305   -2.463096
     23          1           0       -4.058529    1.111629   -1.731684
     24          1           0        1.070816    1.714228    0.118925
     25          1           0        2.178763   -2.434581   -0.085606
     26          1           0       -0.248611   -2.983908   -0.277019
     27          1           0        3.683811   -1.580945    1.300365
     28          1           0        5.026499   -0.565970    0.903318
 ---------------------------------------------------------------------

 SCF Done:  E(UB3LYP) =  -972.677123501     A.U. after   31 cycles

 The electronic state is 2-A.
 Alpha  occ. eigenvalues --  -88.62111 -19.02501 -14.18316 -14.16704 -10.12944
 Alpha  occ. eigenvalues --  -10.11173 -10.08072 -10.06917 -10.06765 -10.06104
 Alpha  occ. eigenvalues --  -10.05781 -10.04215 -10.04114 -10.02751  -7.70887
 Alpha  occ. eigenvalues --   -5.67236  -5.66786  -5.66476  -0.95005  -0.79996
 Alpha  occ. eigenvalues --   -0.78360  -0.70644  -0.66529  -0.64266  -0.61880
 Alpha  occ. eigenvalues --   -0.57292  -0.55200  -0.51111  -0.50367  -0.46131
 Alpha  occ. eigenvalues --   -0.43241  -0.40234  -0.39100  -0.38473  -0.36245
 Alpha  occ. eigenvalues --   -0.34843  -0.33459  -0.32326  -0.31610  -0.30205
 Alpha  occ. eigenvalues --   -0.29419  -0.27941  -0.27809  -0.26927  -0.25857
 Alpha  occ. eigenvalues --   -0.25693  -0.24696  -0.22948  -0.20974  -0.19812
 Alpha  occ. eigenvalues --   -0.18936  -0.15271  -0.13013  -0.10512  -0.07313
 Alpha  occ. eigenvalues --   -0.04864   0.04433
 Alpha virt. eigenvalues --    0.06356   0.08351   0.08704   0.09062   0.09934
 Alpha virt. eigenvalues --    0.10569   0.10748   0.11773   0.11902   0.12610
 Alpha virt. eigenvalues --    0.12983   0.13448   0.13863   0.14647   0.14922

  Beta  occ. eigenvalues --  -88.62046 -19.02399 -14.18179 -14.16796 -10.12947
  Beta  occ. eigenvalues --  -10.10813 -10.08072 -10.06911 -10.06175 -10.06100
  Beta  occ. eigenvalues --  -10.05639 -10.04243 -10.03972 -10.02701  -7.70829
  Beta  occ. eigenvalues --   -5.67218  -5.66565  -5.66440  -0.94748  -0.79809
  Beta  occ. eigenvalues --   -0.77864  -0.70607  -0.66282  -0.64127  -0.61552
  Beta  occ. eigenvalues --   -0.56844  -0.55002  -0.50950  -0.50137  -0.45770
  Beta  occ. eigenvalues --   -0.42844  -0.40093  -0.38933  -0.38389  -0.36157
  Beta  occ. eigenvalues --   -0.34644  -0.33349  -0.32137  -0.31396  -0.30063
  Beta  occ. eigenvalues --   -0.29298  -0.27819  -0.27370  -0.26678  -0.25665
  Beta  occ. eigenvalues --   -0.25585  -0.24464  -0.21475  -0.20870  -0.19110
  Beta  occ. eigenvalues --   -0.18289  -0.14702  -0.13036  -0.09486  -0.06055
  Beta  occ. eigenvalues --   -0.04602
  Beta virt. eigenvalues --    0.06321   0.08301   0.08621   0.09035   0.09868
  Beta virt. eigenvalues --    0.10362   0.10783   0.11009   0.11811   0.11906
  Beta virt. eigenvalues --    0.12574   0.12952   0.13605   0.13879   0.14674

 Mulliken charges and spin densities:
               1          2
     1  C   -0.605861   0.007402
     2  C    0.025513  -0.011452
     3  C   -0.145308   0.015511
     4  C   -0.404079  -0.013082
     5  O   -0.057485   0.021051
     6  C   -0.352067   0.191866
     7  N    0.101962  -0.043299
     8  C   -0.615798   0.164049
     9  C    1.343158  -0.045996
    10  C   -0.328560   0.179486
    11  C   -0.310918  -0.071506
    12  C   -0.597355   0.256929
    13  S   -0.902438   0.201340
    14  N   -0.191229   0.078327
    15  H    0.137913   0.000165
    16  H    0.135201   0.000029
    17  H    0.118327   0.000046
    18  H    0.173540   0.004166
    19  H    0.130350   0.004304
    20  H    0.152337  -0.000430
    21  H    0.178155   0.004554
    22  H    0.119414   0.007105
    23  H    0.119343   0.002020
    24  H    0.116733   0.006208
    25  H    0.146930  -0.020268
    26  H    0.134761   0.007920
    27  H    0.142036   0.058725
    28  H    0.235427  -0.005171
 Sum of Mulliken charges =  -1.00000   1.00000

 Dipole moment (field-independent basis, Debye):
    X=            -10.0576    Y=             -3.6986    Z=              1.5410  Tot=             10.8263
 Quadrupole moment (field-independent basis, Debye-Ang):
   XX=           -148.2588   YY=           -110.0039   ZZ=           -102.2314
   XY=            -20.6603   XZ=              6.1753   YZ=              0.0604

 Summary of Natural Population Analysis:

                                       Natural Population
                Natural  -----------------------------------------------
    Atom  No    Charge         Core      Valence    Rydberg      Total
 -----------------------------------------------------------------------
      C    1   -0.28610      0.99967     2.28266    0.00377     3.28610
      C    2   -0.20692      0.99961     2.20031    0.00700     3.20692
      C    3    0.07307      0.99954     1.91521    0.01218     2.92693
      C    4   -0.30294      0.99964     2.29871    0.00459     3.30294
      O    5   -0.27737      0.99985     3.26796    0.00955     4.27737
      C    6    0.31946      0.99947     1.66318    0.01788     2.68054
      N    7   -0.30252      0.99967     2.79138    0.01146     3.80252
      C    8    0.08726      0.99955     1.90074    0.01244     2.91274
      C    9   -0.08503      0.99946     2.07387    0.01171     3.08503
      C   10   -0.03198      0.99954     2.02247    0.00996     3.03198
      C   11   -0.17100      0.99953     2.16356    0.00792     3.17100
      C   12    0.14822      0.99961     1.83317    0.01901     2.85178
      S   13   -0.13870      4.99957     3.12440    0.01472     8.13870
      N   14   -0.37729      0.99968     2.86645    0.01116     3.87729
      H   15    0.09525      0.00000     0.40389    0.00086     0.40475
      H   16    0.09713      0.00000     0.40204    0.00083     0.40287
      H   17    0.09061      0.00000     0.40824    0.00116     0.40939
      H   18    0.11502      0.00000     0.38389    0.00109     0.38498
      H   19    0.09774      0.00000     0.40111    0.00115     0.40226
      H   20    0.08219      0.00000     0.41649    0.00132     0.41781
      H   21    0.11630      0.00000     0.38278    0.00091     0.38370
      H   22    0.10175      0.00000     0.39727    0.00097     0.39825
      H   23    0.09262      0.00000     0.40654    0.00084     0.40738
      H   24    0.09762      0.00000     0.40115    0.00123     0.40238
      H   25    0.09351      0.00000     0.40548    0.00101     0.40649
      H   26    0.09896      0.00000     0.40004    0.00100     0.40104
      H   27    0.18317      0.00000     0.31445    0.00239     0.31683
      H   28    0.18994      0.00000     0.30847    0.00158     0.31006
 =======================================================================
   * Total *   -0.00000     17.99440    37.83591    0.16969    56.00000

 Normal termination of Gaussian 16 at Thu Dec 10 10:22:47 2020.
