 Gaussian 16, Revision A.03,

 -----------------------------------------------------------
 # opt freq B3LYP/6-31G(d) empiricaldispersion=gd3bj scf=xqc
 -----------------------------------------------------------

 -------------------------------
 CID_131236881_JID_1555_neutraal
 -------------------------------
 Symbolic Z-matrix:
 Charge =  0 Multiplicity = 1

 SCF Done:  E(RB3LYP) =  -839.677987977     A.U. after   15 cycles
 SCF Done:  E(RB3LYP) =  -839.684343996     A.U. after   13 cycles
 SCF Done:  E(RB3LYP) =  -839.685437562     A.U. after   13 cycles
 SCF Done:  E(RB3LYP) =  -839.685504968     A.U. after   13 cycles
 SCF Done:  E(RB3LYP) =  -839.686036714     A.U. after   12 cycles
 SCF Done:  E(RB3LYP) =  -839.686087443     A.U. after   11 cycles
 SCF Done:  E(RB3LYP) =  -839.686102647     A.U. after    9 cycles
 SCF Done:  E(RB3LYP) =  -839.686105390     A.U. after    9 cycles
 SCF Done:  E(RB3LYP) =  -839.686106191     A.U. after    9 cycles
 SCF Done:  E(RB3LYP) =  -839.686106430     A.U. after    8 cycles
 Optimization completed.
    -- Stationary point found.
 Normal termination of Gaussian 16 at Tue Dec  8 20:25:22 2020.

 --------------------------------------------------------------------
 #N Geom=AllCheck Guess=TCheck SCRF=Check GenChk RB3LYP/6-31G(d) Freq
 --------------------------------------------------------------------

 Structure from the checkpoint file:  "JID_1555.chk"
 -------------------------------
 CID_131236881_JID_1555_neutraal
 -------------------------------
 Charge =  0 Multiplicity = 1

 SCF Done:  E(RB3LYP) =  -839.686106430     A.U. after    1 cycles

  Exact polarizability: 161.458   0.079 107.206   1.652   1.564  68.735
 Approx polarizability: 221.247  -8.159 178.006   4.431   6.066 107.458

                      1                      2                      3
                      A                      A                      A
 Frequencies --     70.2321               109.5636               149.0547
 Red. masses --      3.1741                 4.2193                 3.3357
 Frc consts  --      0.0092                 0.0298                 0.0437
 IR Inten    --      4.5009                 2.2996                 0.7581

                      4                      5                      6
                      A                      A                      A
 Frequencies --    153.0005               174.8717               222.8196
 Red. masses --      4.7952                 2.2502                 2.1759
 Frc consts  --      0.0661                 0.0405                 0.0636
 IR Inten    --      5.0494                 2.1659                 5.8607

                      7                      8                      9
                      A                      A                      A
 Frequencies --    287.4441               298.3820               378.2540
 Red. masses --      2.9156                 8.7851                 6.2845
 Frc consts  --      0.1419                 0.4608                 0.5298
 IR Inten    --      1.8639                 2.5820                 1.0204

                     10                     11                     12
                      A                      A                      A
 Frequencies --    526.1140               535.0230               549.1390
 Red. masses --      3.3696                 3.7823                 4.5477
 Frc consts  --      0.5495                 0.6379                 0.8080
 IR Inten    --      4.6833                 1.7979                10.5844

                     13                     14                     15
                      A                      A                      A
 Frequencies --    607.4021               628.4687               660.8385
 Red. masses --      3.4949                 3.9112                 2.9521
 Frc consts  --      0.7597                 0.9102                 0.7596
 IR Inten    --      9.2946                28.6042                 1.2131

                     16                     17                     18
                      A                      A                      A
 Frequencies --    692.6875               704.1807               756.2080
 Red. masses --      3.2530                 4.1745                 1.3656
 Frc consts  --      0.9196                 1.2196                 0.4601
 IR Inten    --      5.1501                 4.3921                94.6767

                     19                     20                     21
                      A                      A                      A
 Frequencies --    834.1145               877.7835               900.0098
 Red. masses --      2.2224                 2.6268                 1.5246
 Frc consts  --      0.9110                 1.1925                 0.7276
 IR Inten    --     38.6616                 2.2535                 2.9886

                     22                     23                     24
                      A                      A                      A
 Frequencies --    915.2343               926.1158               958.0152
 Red. masses --      2.2573                 2.1776                 2.3151
 Frc consts  --      1.1141                 1.1004                 1.2519
 IR Inten    --     17.4897                 0.5536                 4.7262

                     25                     26                     27
                      A                      A                      A
 Frequencies --   1021.5671              1049.3032              1059.9675
 Red. masses --      2.0064                 1.3962                 1.8880
 Frc consts  --      1.2337                 0.9057                 1.2498
 IR Inten    --      3.7806                 5.7256                15.5775

                     28                     29                     30
                      A                      A                      A
 Frequencies --   1075.7367              1120.2945              1154.0507
 Red. masses --      2.3472                 3.0805                 1.2374
 Frc consts  --      1.6004                 2.2779                 0.9710
 IR Inten    --     11.2577                 6.6151                 1.7833

                     31                     32                     33
                      A                      A                      A
 Frequencies --   1190.2898              1212.0269              1231.5290
 Red. masses --      1.3503                 1.4060                 1.2719
 Frc consts  --      1.1272                 1.2169                 1.1366
 IR Inten    --     24.3351                 0.4421                 4.3174

                     34                     35                     36
                      A                      A                      A
 Frequencies --   1244.4822              1253.7270              1303.1777
 Red. masses --      2.4872                 1.4366                 1.7210
 Frc consts  --      2.2695                 1.3305                 1.7220
 IR Inten    --    135.0076                 9.3221                94.2649

                     37                     38                     39
                      A                      A                      A
 Frequencies --   1317.9177              1332.3517              1356.6589
 Red. masses --      1.4129                 1.3965                 1.3540
 Frc consts  --      1.4459                 1.4606                 1.4683
 IR Inten    --      0.0430                33.4714                 1.6988

                     40                     41                     42
                      A                      A                      A
 Frequencies --   1369.4349              1397.2911              1461.0457
 Red. masses --      1.9178                 1.6755                 2.6795
 Frc consts  --      2.1191                 1.9274                 3.3700
 IR Inten    --      5.1740                48.2412               129.1290

                     43                     44                     45
                      A                      A                      A
 Frequencies --   1492.6112              1510.4807              1520.9342
 Red. masses --      1.0855                 1.1102                 1.0866
 Frc consts  --      1.4249                 1.4924                 1.4809
 IR Inten    --      3.8181                15.1272                10.8285

                     46                     47                     48
                      A                      A                      A
 Frequencies --   1536.8183              1541.3776              1644.5991
 Red. masses --      1.1048                 1.1054                 3.9710
 Frc consts  --      1.5374                 1.5473                 6.3280
 IR Inten    --      0.9283                24.5408               727.0746

                     49                     50                     51
                      A                      A                      A
 Frequencies --   1734.3394              3006.8494              3008.5589
 Red. masses --     11.7634                 1.0709                 1.0713
 Frc consts  --     20.8474                 5.7047                 5.7131
 IR Inten    --    208.0674                43.4283                69.0311

                     52                     53                     54
                      A                      A                      A
 Frequencies --   3038.6346              3059.4934              3072.8607
 Red. masses --      1.0700                 1.0741                 1.0810
 Frc consts  --      5.8210                 5.9235                 6.0137
 IR Inten    --     19.1646                14.5754                49.0335

                     55                     56                     57
                      A                      A                      A
 Frequencies --   3095.9698              3108.1182              3112.1852
 Red. masses --      1.0709                 1.0827                 1.0975
 Frc consts  --      6.0476                 6.1623                 6.2629
 IR Inten    --      4.6026                42.8664                35.3979

                     58                     59                     60
                      A                      A                      A
 Frequencies --   3120.2543              3166.5285              3394.5207
 Red. masses --      1.0993                 1.1073                 1.0796
 Frc consts  --      6.3058                 6.5418                 7.3293
 IR Inten    --     31.6718                 7.6119               127.9849

 - Thermochemistry -
 -------------------
 Temperature   298.150 Kelvin.  Pressure   1.00000 Atm.
 Atom     1 has atomic number  6 and mass  12.00000

 Molecular mass:   169.05614 amu.
 Principal axes and moments of inertia in atomic units:
                           1         2         3
     Eigenvalues --   917.337172703.929383535.52865
           X            0.99932   0.03680   0.00082
           Y           -0.03679   0.99931  -0.00594
           Z           -0.00104   0.00590   0.99998
 This molecule is an asymmetric top.
 Rotational symmetry number  1.
 Warning -- assumption of classical behavior for rotation
           may cause significant error
 Rotational temperatures (Kelvin)      0.09442     0.03203     0.02450
 Rotational constants (GHZ):           1.96737     0.66745     0.51046
 Zero-point vibrational energy     479887.6 (Joules/Mol)
                                  114.69589 (Kcal/Mol)
 Warning -- explicit consideration of  13 degrees of freedom as
           vibrations may cause significant error
 Vibrational temperatures:    101.05   157.64   214.46   220.13   251.60
          (Kelvin)            320.59   413.57   429.31   544.22   756.96
                              769.78   790.09   873.92   904.23   950.80
                              996.62  1013.16  1088.01  1200.10  1262.93
                             1294.91  1316.82  1332.47  1378.37  1469.81
                             1509.71  1525.06  1547.75  1611.85  1660.42
                             1712.56  1743.84  1771.90  1790.53  1803.83
                             1874.98  1896.19  1916.96  1951.93  1970.31
                             2010.39  2102.12  2147.53  2173.24  2188.29
                             2211.14  2217.70  2366.21  2495.33  4326.19
                             4328.65  4371.92  4401.93  4421.16  4454.41
                             4471.89  4477.74  4489.35  4555.93  4883.96

 Zero-point correction=                           0.182780 (Hartree/Particle)
 Thermal correction to Energy=                    0.192719
 Thermal correction to Enthalpy=                  0.193663
 Thermal correction to Gibbs Free Energy=         0.146964
 Sum of electronic and zero-point Energies=           -839.503327
 Sum of electronic and thermal Energies=              -839.493387
 Sum of electronic and thermal Enthalpies=            -839.492443
 Sum of electronic and thermal Free Energies=         -839.539142

                     E (Thermal)             CV                S
                      KCal/Mol        Cal/Mol-Kelvin    Cal/Mol-Kelvin
 Total                  120.933             38.053             98.287
 Electronic               0.000              0.000              0.000
 Translational            0.889              2.981             41.283
 Rotational               0.889              2.981             30.551
 Vibrational            119.156             32.092             26.453
 Vibration     1          0.598              1.968              4.147
 Vibration     2          0.606              1.942              3.277
 Vibration     3          0.618              1.904              2.684
 Vibration     4          0.619              1.899              2.635
 Vibration     5          0.627              1.873              2.382
 Vibration     6          0.648              1.806              1.936
 Vibration     7          0.685              1.697              1.489
 Vibration     8          0.691              1.677              1.426
 Vibration     9          0.749              1.516              1.046
 Vibration    10          0.881              1.192              0.596
 Vibration    11          0.890              1.173              0.576
 Vibration    12          0.904              1.142              0.546
 Vibration    13          0.966              1.016              0.437

                           ! Non-Optimized Parameters !
 Normal termination of Gaussian 16 at Tue Dec  8 20:30:39 2020.

 ----------------------------------------------------------------------
 # B3LYP/6-311++G(d,p) empiricaldispersion=gd3bj scf=xqc pop=npa geom=c
 heck
 ----------------------------------------------------------------------

 ---------------------------------------
 CID_131236881_JID_1555_Energie_neutraal
 ---------------------------------------
 Structure from the checkpoint file:  "JID_1555.chk"
 Charge =  0 Multiplicity = 1

 SCF Done:  E(RB3LYP) =  -839.836489608     A.U. after   15 cycles
 Normal termination of Gaussian 16 at Tue Dec  8 20:32:20 2020.

 ----------------------------------------------------------------------
 # B3LYP/6-311++G(d,p) empiricaldispersion=gd3bj scf=xqc pop=npa geom=c
 heck
 ----------------------------------------------------------------------

 -------------------------------------
 CID_131236881_JID_1555_Energie_kation
 -------------------------------------
 Structure from the checkpoint file:  "JID_1555.chk"
 Charge =  1 Multiplicity = 2

 SCF Done:  E(UB3LYP) =  -839.558255930     A.U. after   24 cycles
 Normal termination of Gaussian 16 at Tue Dec  8 20:37:30 2020.
 Gaussian 16:  ES64L-G16RevA.03 25-Dec-2016

 ----------------------------------------------------------------------
 # B3LYP/6-311++G(d,p) empiricaldispersion=gd3bj scf=xqc pop=npa geom=c
 heck
 ----------------------------------------------------------------------

 ------------------------------------
 CID_131236881_JID_1555_Energie_anion
 ------------------------------------
 Structure from the checkpoint file:  "JID_1555.chk"
 Charge = -1 Multiplicity = 2

                         Standard orientation:
 ---------------------------------------------------------------------
 Center     Atomic      Atomic             Coordinates (Angstroms)
 Number     Number       Type             X           Y           Z
 ---------------------------------------------------------------------
      1          6           0       -2.996607   -1.072958    0.274530
      2          6           0       -1.554529   -1.501371   -0.108071
      3          6           0       -0.779962   -0.210599   -0.010014
      4          6           0        0.576628   -0.038921    0.033624
      5          7           0        1.188864    1.167040    0.188304
      6          6           0        2.594637    1.201389   -0.172268
      7          6           0        3.142830   -0.169568    0.237917
      8         16           0        1.765773   -1.347609   -0.116734
      9          6           0       -1.670124    0.930037   -0.030770
     10          8           0       -1.354673    2.128169    0.009748
     11          6           0       -3.102443    0.403701   -0.148622
     12          1           0       -3.116652   -1.147783    1.361491
     13          1           0       -3.758207   -1.709054   -0.185893
     14          1           0       -1.171151   -2.288671    0.552235
     15          1           0       -1.534415   -1.908693   -1.130644
     16          1           0        0.555320    1.966191    0.085179
     17          1           0        3.105349    2.006793    0.364488
     18          1           0        2.732968    1.360042   -1.253091
     19          1           0        3.373545   -0.205128    1.305601
     20          1           0        4.022990   -0.458126   -0.338273
     21          1           0       -3.414408    0.500099   -1.198559
     22          1           0       -3.794964    1.001189    0.451147
 ---------------------------------------------------------------------

 SCF Done:  E(UB3LYP) =  -839.826560034     A.U. after   32 cycles

 The electronic state is 2-A.
 Alpha  occ. eigenvalues --  -88.74029 -18.95717 -14.20939 -10.11271 -10.10195
 Alpha  occ. eigenvalues --  -10.09970 -10.09352 -10.06281 -10.06052 -10.05358
 Alpha  occ. eigenvalues --  -10.03162  -7.82667  -5.79025  -5.78683  -5.78094
 Alpha  occ. eigenvalues --   -0.88829  -0.83938  -0.71850  -0.67750  -0.65510
 Alpha  occ. eigenvalues --   -0.58873  -0.56716  -0.50623  -0.48476  -0.45262
 Alpha  occ. eigenvalues --   -0.43525  -0.38153  -0.36344  -0.35086  -0.33930
 Alpha  occ. eigenvalues --   -0.31425  -0.29572  -0.28698  -0.28351  -0.26801
 Alpha  occ. eigenvalues --   -0.26507  -0.25805  -0.25044  -0.23706  -0.22642
 Alpha  occ. eigenvalues --   -0.21860  -0.20927  -0.12901  -0.11321  -0.08538
 Alpha  occ. eigenvalues --    0.04908
 Alpha virt. eigenvalues --    0.06995   0.07872   0.09165   0.09370   0.09896
 Alpha virt. eigenvalues --    0.10176   0.10388   0.11874   0.12655   0.12849
 Alpha virt. eigenvalues --    0.12963   0.13737   0.14744   0.15638   0.16609

  Beta  occ. eigenvalues --  -88.74013 -18.95567 -14.20900 -10.11001 -10.10028
  Beta  occ. eigenvalues --  -10.09922 -10.09292 -10.06271 -10.06047 -10.05372
  Beta  occ. eigenvalues --  -10.03232  -7.82652  -5.79010  -5.78677  -5.78051
  Beta  occ. eigenvalues --   -0.88537  -0.83737  -0.71761  -0.67663  -0.65286
  Beta  occ. eigenvalues --   -0.58838  -0.56563  -0.50463  -0.48298  -0.45080
  Beta  occ. eigenvalues --   -0.43391  -0.38034  -0.36237  -0.34942  -0.33824
  Beta  occ. eigenvalues --   -0.31244  -0.29466  -0.28529  -0.28211  -0.26467
  Beta  occ. eigenvalues --   -0.26345  -0.25594  -0.24987  -0.23649  -0.22410
  Beta  occ. eigenvalues --   -0.21602  -0.20266  -0.12650  -0.11207  -0.08160
  Beta virt. eigenvalues --    0.07504   0.08179   0.09077   0.09680   0.09941
  Beta virt. eigenvalues --    0.10190   0.10538   0.10658   0.12218   0.12752
  Beta virt. eigenvalues --    0.12946   0.13252   0.13862   0.14764   0.15682

 Mulliken charges and spin densities:
               1          2
     1  C   -0.123214  -0.250569
     2  C   -1.214345   0.472382
     3  C    0.691679   0.067957
     4  C    0.243074   0.316444
     5  N   -0.238201   0.246241
     6  C    0.331486  -0.660195
     7  C    0.599394  -1.044073
     8  S    0.225530  -0.563882
     9  C    0.301902  -0.536313
    10  O   -0.439063   0.063730
    11  C   -0.422636   0.078147
    12  H    0.126474  -0.004287
    13  H   -0.070405   0.211951
    14  H    0.064680   0.048962
    15  H    0.095808   0.037796
    16  H    0.216554   0.112122
    17  H   -0.513132   0.659672
    18  H   -0.097470   0.279859
    19  H   -0.138649   0.350995
    20  H   -0.780691   0.966717
    21  H   -0.015231   0.162423
    22  H    0.156457  -0.016077
 Sum of Mulliken charges =  -1.00000   1.00000

 Dipole moment (field-independent basis, Debye):
    X=             -5.3893    Y=             -2.4195    Z=              0.7233  Tot=              5.9516
 Quadrupole moment (field-independent basis, Debye-Ang):
   XX=           -139.7732   YY=           -103.8727   ZZ=            -93.8341
   XY=              1.2057   XZ=             -0.9434   YZ=             -0.9253

 Summary of Natural Population Analysis:

                                       Natural Population
                Natural  -----------------------------------------------
    Atom  No    Charge         Core      Valence    Rydberg      Total
 -----------------------------------------------------------------------
      C    1   -0.18562      0.99965     2.17890    0.00707     3.18562
      C    2   -0.18613      0.99963     2.17997    0.00653     3.18613
      C    3   -0.16312      0.99941     2.15300    0.01071     3.16312
      C    4    0.12253      0.99942     1.86352    0.01453     2.87747
      N    5   -0.31066      0.99964     2.80011    0.01091     3.81066
      C    6   -0.08600      0.99962     2.07385    0.01252     3.08600
      C    7   -0.24389      0.99961     2.23364    0.01065     3.24389
      S    8    0.12162      4.99956     2.85965    0.01917     7.87838
      C    9    0.28570      0.99956     1.69429    0.02045     2.71430
      O   10   -0.32867      0.99987     3.32245    0.00635     4.32867
      C   11   -0.22805      0.99961     2.22024    0.00820     3.22805
      H   12    0.09196      0.00000     0.40659    0.00146     0.40804
      H   13    0.09296      0.00000     0.40538    0.00166     0.40704
      H   14    0.09709      0.00000     0.40106    0.00185     0.40291
      H   15    0.09093      0.00000     0.40723    0.00183     0.40907
      H   16    0.21882      0.00000     0.27877    0.00241     0.28118
      H   17    0.10078      0.00000     0.39758    0.00164     0.39922
      H   18    0.09128      0.00000     0.40654    0.00218     0.40872
      H   19    0.10179      0.00000     0.39643    0.00178     0.39821
      H   20    0.11237      0.00000     0.38242    0.00521     0.38763
      H   21    0.10257      0.00000     0.39525    0.00219     0.39743
      H   22    0.10172      0.00000     0.39684    0.00144     0.39828
 =======================================================================
   * Total *    0.00000     14.99558    29.85369    0.15073    45.00000

 Normal termination of Gaussian 16 at Tue Dec  8 20:46:09 2020.
