 Gaussian 16, Revision A.03,

 -----------------------------------------------------------
 # opt freq B3LYP/6-31G(d) empiricaldispersion=gd3bj scf=xqc
 -----------------------------------------------------------

 -------------------------------
 CID_115272683_JID_7873_neutraal
 -------------------------------
 Symbolic Z-matrix:
 Charge =  0 Multiplicity = 1

 SCF Done:  E(RB3LYP) =  -733.930384806     A.U. after   14 cycles
 SCF Done:  E(RB3LYP) =  -733.935280077     A.U. after   12 cycles
 SCF Done:  E(RB3LYP) =  -733.936475165     A.U. after   12 cycles
 SCF Done:  E(RB3LYP) =  -733.937103758     A.U. after   12 cycles
 SCF Done:  E(RB3LYP) =  -733.937385662     A.U. after   12 cycles
 SCF Done:  E(RB3LYP) =  -733.937676003     A.U. after   11 cycles
 SCF Done:  E(RB3LYP) =  -733.937782371     A.U. after   10 cycles
 SCF Done:  E(RB3LYP) =  -733.937873504     A.U. after   10 cycles
 SCF Done:  E(RB3LYP) =  -733.937910950     A.U. after   11 cycles
 SCF Done:  E(RB3LYP) =  -733.937932153     A.U. after   10 cycles
 SCF Done:  E(RB3LYP) =  -733.937951080     A.U. after    9 cycles
 SCF Done:  E(RB3LYP) =  -733.937951363     A.U. after    7 cycles
 SCF Done:  E(RB3LYP) =  -733.937951400     A.U. after    6 cycles
 SCF Done:  E(RB3LYP) =  -733.937951408     A.U. after    7 cycles
 SCF Done:  E(RB3LYP) =  -733.937951355     A.U. after    6 cycles
 Optimization completed.
    -- Stationary point found.
 Normal termination of Gaussian 16 at Fri Dec 11 13:35:35 2020.

 --------------------------------------------------------------------
 #N Geom=AllCheck Guess=TCheck SCRF=Check GenChk RB3LYP/6-31G(d) Freq
 --------------------------------------------------------------------

 Structure from the checkpoint file:  "JID_7873.chk"
 -------------------------------
 CID_115272683_JID_7873_neutraal
 -------------------------------
 Charge =  0 Multiplicity = 1

 SCF Done:  E(RB3LYP) =  -733.937951355     A.U. after    1 cycles

  Exact polarizability: 175.081  -3.941 152.958  -5.919   3.065 142.440
 Approx polarizability: 219.342  -9.163 234.188  -7.603   4.881 208.299

                      1                      2                      3
                      A                      A                      A
 Frequencies --     16.0939                31.9049                39.4514
 Red. masses --      3.5240                 3.6284                 3.9378
 Frc consts  --      0.0005                 0.0022                 0.0036
 IR Inten    --      0.2501                 0.1142                 0.1298

                      4                      5                      6
                      A                      A                      A
 Frequencies --     74.7073                74.8044               131.5008
 Red. masses --      3.5063                 5.6152                 3.0214
 Frc consts  --      0.0115                 0.0185                 0.0308
 IR Inten    --      1.1120                 3.8979                 0.2047

                      7                      8                      9
                      A                      A                      A
 Frequencies --    139.8046               155.1280               171.8248
 Red. masses --      3.0820                 3.0846                 1.7942
 Frc consts  --      0.0355                 0.0437                 0.0312
 IR Inten    --      4.9734                 1.2980                 1.8912

                     10                     11                     12
                      A                      A                      A
 Frequencies --    181.5742               218.3841               232.1761
 Red. masses --      1.4667                 3.0797                 3.8120
 Frc consts  --      0.0285                 0.0865                 0.1211
 IR Inten    --      2.5648                 3.2210                 1.1287

                     13                     14                     15
                      A                      A                      A
 Frequencies --    273.4059               291.8056               297.7657
 Red. masses --      2.1095                 2.5443                 2.1153
 Frc consts  --      0.0929                 0.1276                 0.1105
 IR Inten    --     12.0660                 6.8322                 0.1929

                     16                     17                     18
                      A                      A                      A
 Frequencies --    304.5901               339.6221               355.7516
 Red. masses --      1.5059                 1.6707                 2.0595
 Frc consts  --      0.0823                 0.1135                 0.1536
 IR Inten    --     24.8463                19.9064                 0.6711

                     19                     20                     21
                      A                      A                      A
 Frequencies --    367.1444               404.7497               443.9583
 Red. masses --      2.5010                 1.9531                 2.9825
 Frc consts  --      0.1986                 0.1885                 0.3464
 IR Inten    --      6.9002                 1.3530                13.8775

                     22                     23                     24
                      A                      A                      A
 Frequencies --    447.0893               458.3447               472.7659
 Red. masses --      2.3532                 2.8449                 2.1882
 Frc consts  --      0.2771                 0.3521                 0.2882
 IR Inten    --      5.9031                 0.3681                 5.2028

                     25                     26                     27
                      A                      A                      A
 Frequencies --    481.0141               510.1124               607.6647
 Red. masses --      2.0949                 3.8588                 2.2487
 Frc consts  --      0.2856                 0.5916                 0.4892
 IR Inten    --      0.8832                 5.2403                 2.0424

                     28                     29                     30
                      A                      A                      A
 Frequencies --    647.1657               694.4078               751.8748
 Red. masses --      3.0626                 4.1956                 3.2501
 Frc consts  --      0.7557                 1.1920                 1.0825
 IR Inten    --      6.6955                 9.4665                 5.9480

                     31                     32                     33
                      A                      A                      A
 Frequencies --    785.2201               793.3416               801.4607
 Red. masses --      2.0681                 1.3138                 1.5478
 Frc consts  --      0.7513                 0.4872                 0.5858
 IR Inten    --      0.0218                 0.9184                 0.2105

                     34                     35                     36
                      A                      A                      A
 Frequencies --    825.0531               845.5501               856.7313
 Red. masses --      3.6035                 1.9856                 1.8308
 Frc consts  --      1.4452                 0.8364                 0.7917
 IR Inten    --      4.1629                 0.2223                 1.8796

                     37                     38                     39
                      A                      A                      A
 Frequencies --    879.2571               886.6090               902.7876
 Red. masses --      1.5872                 2.2601                 1.8551
 Frc consts  --      0.7230                 1.0467                 0.8908
 IR Inten    --     62.8227                11.0595                21.5255

                     40                     41                     42
                      A                      A                      A
 Frequencies --    925.5385               945.4309               948.8846
 Red. masses --      1.4161                 1.6076                 1.5792
 Frc consts  --      0.7147                 0.8466                 0.8378
 IR Inten    --     32.5069                 3.8188                 5.3801

                     43                     44                     45
                      A                      A                      A
 Frequencies --    958.0113               968.6445               976.4897
 Red. masses --      1.5908                 3.0416                 2.3459
 Frc consts  --      0.8602                 1.6814                 1.3180
 IR Inten    --      2.0157                 4.1589                 3.0924

                     46                     47                     48
                      A                      A                      A
 Frequencies --    992.2735              1016.1609              1047.1799
 Red. masses --      1.9285                 1.7728                 2.3928
 Frc consts  --      1.1188                 1.0785                 1.5460
 IR Inten    --      8.2178                17.4467                 5.3656

                     49                     50                     51
                      A                      A                      A
 Frequencies --   1053.5895              1055.3856              1064.3294
 Red. masses --      1.7578                 1.7997                 1.6239
 Frc consts  --      1.1496                 1.1810                 1.0838
 IR Inten    --      0.4616                 9.7306                 7.4996

                     52                     53                     54
                      A                      A                      A
 Frequencies --   1066.6781              1082.4316              1088.8911
 Red. masses --      1.7613                 1.5117                 2.1389
 Frc consts  --      1.1807                 1.0436                 1.4942
 IR Inten    --      1.6606                 1.2916                10.2656

                     55                     56                     57
                      A                      A                      A
 Frequencies --   1105.7351              1122.6759              1149.7906
 Red. masses --      1.8149                 1.7154                 1.0898
 Frc consts  --      1.3074                 1.2739                 0.8488
 IR Inten    --      0.2178                36.9897                 0.3697

                     58                     59                     60
                      A                      A                      A
 Frequencies --   1162.1715              1166.7822              1175.8194
 Red. masses --      1.4105                 1.4625                 1.8441
 Frc consts  --      1.1225                 1.1731                 1.5021
 IR Inten    --      5.0269                 8.1014                15.1072

                     61                     62                     63
                      A                      A                      A
 Frequencies --   1186.5503              1198.2872              1224.2850
 Red. masses --      1.2773                 1.3163                 1.5108
 Frc consts  --      1.0596                 1.1136                 1.3342
 IR Inten    --      2.4547                 1.4217                23.1897

                     64                     65                     66
                      A                      A                      A
 Frequencies --   1261.7381              1284.8169              1290.6437
 Red. masses --      1.4723                 1.5454                 2.2946
 Frc consts  --      1.3810                 1.5030                 2.2520
 IR Inten    --     34.6634                13.4673                 9.5774

                     67                     68                     69
                      A                      A                      A
 Frequencies --   1307.3835              1309.4292              1319.8721
 Red. masses --      1.2456                 1.2300                 1.4832
 Frc consts  --      1.2544                 1.2426                 1.5224
 IR Inten    --      2.7743                 5.3802                 1.4908

                     70                     71                     72
                      A                      A                      A
 Frequencies --   1326.4763              1351.1593              1369.5290
 Red. masses --      1.5272                 2.0743                 1.3396
 Frc consts  --      1.5832                 2.2312                 1.4804
 IR Inten    --      3.9412                31.8589                 0.2493

                     73                     74                     75
                      A                      A                      A
 Frequencies --   1373.4904              1377.9000              1385.7152
 Red. masses --      1.5480                 1.3450                 1.4896
 Frc consts  --      1.7206                 1.5046                 1.6852
 IR Inten    --      0.1309                 3.9926                 8.6741

                     76                     77                     78
                      A                      A                      A
 Frequencies --   1398.5286              1406.3305              1407.7979
 Red. masses --      1.4409                 1.5425                 1.4813
 Frc consts  --      1.6604                 1.7974                 1.7297
 IR Inten    --      0.4268                20.8644                 3.6208

                     79                     80                     81
                      A                      A                      A
 Frequencies --   1412.4791              1416.8856              1445.6982
 Red. masses --      1.4427                 1.4188                 1.7275
 Frc consts  --      1.6958                 1.6782                 2.1273
 IR Inten    --      3.7165                 2.3642               130.3678

                     82                     83                     84
                      A                      A                      A
 Frequencies --   1454.9255              1477.0589              1497.8939
 Red. masses --      1.4239                 1.3657                 1.0901
 Frc consts  --      1.7759                 1.7556                 1.4410
 IR Inten    --      4.1562                47.3350                 2.9748

                     85                     86                     87
                      A                      A                      A
 Frequencies --   1507.0635              1512.1845              1515.0050
 Red. masses --      1.1129                 1.0853                 1.0912
 Frc consts  --      1.4893                 1.4623                 1.4756
 IR Inten    --     14.6825                 6.6647                 1.8557

                     88                     89                     90
                      A                      A                      A
 Frequencies --   1516.3175              1521.5287              1525.6517
 Red. masses --      1.1086                 1.0937                 1.1498
 Frc consts  --      1.5017                 1.4918                 1.5768
 IR Inten    --      5.7910                 2.2258                 1.3147

                     91                     92                     93
                      A                      A                      A
 Frequencies --   1525.8520              1535.1448              1540.3038
 Red. masses --      1.0878                 1.1126                 1.1313
 Frc consts  --      1.4921                 1.5449                 1.5814
 IR Inten    --     15.8755                 0.9903                 5.9177

                     94                     95                     96
                      A                      A                      A
 Frequencies --   1541.2323              1555.5179              1714.6467
 Red. masses --      1.1964                 1.1266                 1.1408
 Frc consts  --      1.6745                 1.6061                 1.9761
 IR Inten    --      0.7464                24.3791                 3.2692

                     97                     98                     99
                      A                      A                      A
 Frequencies --   1729.5284              2951.2991              3021.9596
 Red. masses --      6.7338                 1.0730                 1.0679
 Frc consts  --     11.8676                 5.5067                 5.7460
 IR Inten    --    257.2049                78.5818                16.5938

                    100                    101                    102
                      A                      A                      A
 Frequencies --   3026.2240              3030.1421              3031.2578
 Red. masses --      1.0654                 1.0658                 1.0639
 Frc consts  --      5.7484                 5.7660                 5.7597
 IR Inten    --     30.0539                 9.3935                14.2127

                    103                    104                    105
                      A                      A                      A
 Frequencies --   3035.0697              3047.8775              3062.0336
 Red. masses --      1.0630                 1.0706                 1.0381
 Frc consts  --      5.7692                 5.8599                 5.7350
 IR Inten    --     41.4785                27.4673                36.7828

                    106                    107                    108
                      A                      A                      A
 Frequencies --   3066.1991              3070.9002              3071.9075
 Red. masses --      1.0967                 1.0912                 1.0798
 Frc consts  --      6.0749                 6.0632                 6.0038
 IR Inten    --     39.9070                72.7096                27.3371

                    109                    110                    111
                      A                      A                      A
 Frequencies --   3072.8299              3075.6463              3076.7436
 Red. masses --      1.0986                 1.0887                 1.0804
 Frc consts  --      6.1120                 6.0676                 6.0260
 IR Inten    --     29.5595                40.8627                 9.3215

                    112                    113                    114
                      A                      A                      A
 Frequencies --   3078.8877              3085.5332              3121.6567
 Red. masses --      1.1004                 1.0992                 1.1045
 Frc consts  --      6.1462                 6.1657                 6.3417
 IR Inten    --     85.6373                71.1506                15.4638

                    115                    116                    117
                      A                      A                      A
 Frequencies --   3135.2814              3138.7810              3150.0754
 Red. masses --      1.0939                 1.0539                 1.0570
 Frc consts  --      6.3354                 6.1177                 6.1798
 IR Inten    --     26.7802                22.2836                14.5508

                    118                    119                    120
                      A                      A                      A
 Frequencies --   3168.5910              3186.8823              3214.5343
 Red. masses --      1.0868                 1.1001                 1.1180
 Frc consts  --      6.4291                 6.5830                 6.8066
 IR Inten    --     29.9111                 5.0925                 5.8620

                    121                    122                    123
                      A                      A                      A
 Frequencies --   3234.2506              3484.1797              3565.4514
 Red. masses --      1.1157                 1.0505                 1.0923
 Frc consts  --      6.8761                 7.5134                 8.1816
 IR Inten    --     14.5052                 7.4823                 7.2935

 - Thermochemistry -
 -------------------
 Temperature   298.150 Kelvin.  Pressure   1.00000 Atm.
 Atom     1 has atomic number  6 and mass  12.00000

 Molecular mass:   238.20451 amu.
 Principal axes and moments of inertia in atomic units:
                           1         2         3
     Eigenvalues --  2364.196696751.120077308.96648
           X            0.99999   0.00327  -0.00204
           Y           -0.00327   0.99999   0.00221
           Z            0.00204  -0.00220   1.00000
 This molecule is an asymmetric top.
 Rotational symmetry number  1.
 Warning -- assumption of classical behavior for rotation
           may cause significant error
 Rotational temperatures (Kelvin)      0.03664     0.01283     0.01185
 Rotational constants (GHZ):           0.76336     0.26732     0.24692
 Zero-point vibrational energy    1035933.4 (Joules/Mol)
                                  247.59402 (Kcal/Mol)
 Warning -- explicit consideration of  27 degrees of freedom as
           vibrations may cause significant error
 Vibrational temperatures:     23.16    45.90    56.76   107.49   107.63
          (Kelvin)            189.20   201.15   223.19   247.22   261.24
                              314.21   334.05   393.37   419.84   428.42
                              438.24   488.64   511.85   528.24   582.34
                              638.76   643.26   659.46   680.20   692.07
                              733.94   874.29   931.13   999.10  1081.78
                             1129.76  1141.44  1153.12  1187.07  1216.56
                             1232.65  1265.05  1275.63  1298.91  1331.64
                             1360.26  1365.23  1378.36  1393.66  1404.95
                             1427.66  1462.03  1506.66  1515.88  1518.46
                             1531.33  1534.71  1557.38  1566.67  1590.91
                             1615.28  1654.29  1672.11  1678.74  1691.74
                             1707.18  1724.07  1761.47  1815.36  1848.56
                             1856.95  1881.03  1883.98  1899.00  1908.50
                             1944.02  1970.45  1976.15  1982.49  1993.74
                             2012.17  2023.40  2025.51  2032.24  2038.58
                             2080.04  2093.31  2125.16  2155.14  2168.33
                             2175.70  2179.75  2181.64  2189.14  2195.07
                             2195.36  2208.73  2216.15  2217.49  2238.04
                             2466.99  2488.41  4246.26  4347.93  4354.06
                             4359.70  4361.30  4366.79  4385.22  4405.58
                             4411.58  4418.34  4419.79  4421.12  4425.17
                             4426.75  4429.83  4439.39  4491.37  4510.97
                             4516.01  4532.26  4558.90  4585.21  4625.00
                             4653.37  5012.96  5129.89

 Zero-point correction=                           0.394566 (Hartree/Particle)
 Thermal correction to Energy=                    0.412462
 Thermal correction to Enthalpy=                  0.413406
 Thermal correction to Gibbs Free Energy=         0.347610
 Sum of electronic and zero-point Energies=           -733.543385
 Sum of electronic and thermal Energies=              -733.525489
 Sum of electronic and thermal Enthalpies=            -733.524545
 Sum of electronic and thermal Free Energies=         -733.590342

                     E (Thermal)             CV                S
                      KCal/Mol        Cal/Mol-Kelvin    Cal/Mol-Kelvin
 Total                  258.824             69.420            138.480
 Electronic               0.000              0.000              0.000
 Translational            0.889              2.981             42.305
 Rotational               0.889              2.981             33.122
 Vibrational            257.046             63.458             63.053
 Vibration     1          0.593              1.986              7.066
 Vibration     2          0.594              1.983              5.707
 Vibration     3          0.594              1.981              5.286
 Vibration     4          0.599              1.966              4.025
 Vibration     5          0.599              1.966              4.023
 Vibration     6          0.612              1.922              2.924
 Vibration     7          0.615              1.914              2.807
 Vibration     8          0.620              1.897              2.608
 Vibration     9          0.626              1.877              2.415
 Vibration    10          0.630              1.865              2.312
 Vibration    11          0.646              1.813              1.972
 Vibration    12          0.653              1.792              1.862
 Vibration    13          0.676              1.722              1.575
 Vibration    14          0.687              1.689              1.463
 Vibration    15          0.691              1.678              1.429
 Vibration    16          0.696              1.665              1.392
 Vibration    17          0.720              1.596              1.214
 Vibration    18          0.731              1.563              1.141
 Vibration    19          0.740              1.540              1.092
 Vibration    20          0.770              1.460              0.945
 Vibration    21          0.803              1.374              0.814
 Vibration    22          0.806              1.367              0.805
 Vibration    23          0.816              1.342              0.771
 Vibration    24          0.830              1.310              0.730
 Vibration    25          0.837              1.292              0.707
 Vibration    26          0.865              1.228              0.633
 Vibration    27          0.966              1.016              0.437

 Optimization completed.
    -- Stationary point found.
 Normal termination of Gaussian 16 at Fri Dec 11 13:55:30 2020.

 ----------------------------------------------------------------------
 # B3LYP/6-311++G(d,p) empiricaldispersion=gd3bj scf=xqc pop=npa geom=c
 heck
 ----------------------------------------------------------------------

 ---------------------------------------
 CID_115272683_JID_7873_Energie_neutraal
 ---------------------------------------
 Structure from the checkpoint file:  "JID_7873.chk"
 Charge =  0 Multiplicity = 1

 SCF Done:  E(RB3LYP) =  -734.148131571     A.U. after   14 cycles
 Normal termination of Gaussian 16 at Fri Dec 11 14:04:54 2020.

 ----------------------------------------------------------------------
 # B3LYP/6-311++G(d,p) empiricaldispersion=gd3bj scf=xqc pop=npa geom=c
 heck
 ----------------------------------------------------------------------

 -------------------------------------
 CID_115272683_JID_7873_Energie_kation
 -------------------------------------
 Structure from the checkpoint file:  "JID_7873.chk"
 Charge =  1 Multiplicity = 2

 SCF Done:  E(UB3LYP) =  -733.840298114     A.U. after   23 cycles
 Normal termination of Gaussian 16 at Fri Dec 11 14:26:41 2020.
 Gaussian 16:  ES64L-G16RevA.03 25-Dec-2016

 ----------------------------------------------------------------------
 # B3LYP/6-311++G(d,p) empiricaldispersion=gd3bj scf=xqc pop=npa geom=c
 heck
 ----------------------------------------------------------------------

 ------------------------------------
 CID_115272683_JID_7873_Energie_anion
 ------------------------------------
 Structure from the checkpoint file:  "JID_7873.chk"
 Charge = -1 Multiplicity = 2

                         Standard orientation:
 ---------------------------------------------------------------------
 Center     Atomic      Atomic             Coordinates (Angstroms)
 Number     Number       Type             X           Y           Z
 ---------------------------------------------------------------------
      1          6           0        1.839877    1.314786   -1.763551
      2          7           0        0.933866    0.567380   -0.890686
      3          6           0        1.314765   -0.819310   -0.635559
      4          6           0        2.586018   -0.961722    0.192860
      5          6           0        3.266248   -2.312125    0.123873
      6          6           0        3.901626   -1.109495   -0.525928
      7          6           0        2.602155   -0.221556    1.526231
      8          7           0        2.985101    1.190859    1.392998
      9          6           0        0.081500    1.306061   -0.103713
     10          8           0        0.100730    2.537990   -0.136968
     11          6           0       -0.959372    0.612384    0.765241
     12          6           0       -2.378978    0.954546    0.256463
     13          6           0       -2.629882    0.435818   -1.173402
     14          6           0       -2.756342   -1.092966   -1.237205
     15          6           0       -3.842542   -1.601194   -0.279058
     16          6           0       -3.597274   -1.114540    1.155966
     17          6           0       -3.460614    0.414781    1.210785
     18          1           0        2.096353    0.684084   -2.620163
     19          1           0        2.760869    1.595145   -1.240577
     20          1           0        1.334881    2.218345   -2.101872
     21          1           0        0.492070   -1.331580   -0.135660
     22          1           0        1.451619   -1.317634   -1.603589
     23          1           0        3.709510   -2.707765    1.033629
     24          1           0        2.829151   -3.072150   -0.519901
     25          1           0        3.904887   -1.058965   -1.611646
     26          1           0        4.770009   -0.657032   -0.057370
     27          1           0        1.628179   -0.377203    2.026109
     28          1           0        3.354335   -0.692936    2.168667
     29          1           0        3.189274    1.570756    2.315215
     30          1           0        2.216405    1.748571    1.026522
     31          1           0       -0.826758   -0.466002    0.837465
     32          1           0       -0.843385    1.019230    1.776176
     33          1           0       -2.436797    2.048375    0.239400
     34          1           0       -3.565474    0.880651   -1.540119
     35          1           0       -1.837213    0.782297   -1.846583
     36          1           0       -1.795256   -1.559722   -0.979000
     37          1           0       -2.979803   -1.405304   -2.264769
     38          1           0       -3.896717   -2.696708   -0.306798
     39          1           0       -4.820025   -1.229522   -0.620057
     40          1           0       -2.685687   -1.586410    1.548719
     41          1           0       -4.415282   -1.438128    1.811390
     42          1           0       -3.252941    0.742458    2.237727
     43          1           0       -4.423920    0.862741    0.928626
 ---------------------------------------------------------------------

 SCF Done:  E(UB3LYP) =  -734.136730485     A.U. after   33 cycles
 SCF Done:  E(UB3LYP) =  -734.136730485     a.u. after    1 cycles

 The electronic state is 2-A.
 Alpha  occ. eigenvalues --  -18.99311 -14.25219 -14.19911 -10.17685 -10.11699
 Alpha  occ. eigenvalues --  -10.10321 -10.10089 -10.09386 -10.08194 -10.08067
 Alpha  occ. eigenvalues --  -10.07988 -10.07828 -10.07253 -10.06981 -10.06941
 Alpha  occ. eigenvalues --  -10.06912 -10.06846  -0.94583  -0.84599  -0.79628
 Alpha  occ. eigenvalues --   -0.76372  -0.74583  -0.67957  -0.64870  -0.63978
 Alpha  occ. eigenvalues --   -0.62285  -0.58650  -0.58152  -0.51694  -0.51378
 Alpha  occ. eigenvalues --   -0.50681  -0.47570  -0.45148  -0.43728  -0.41637
 Alpha  occ. eigenvalues --   -0.41017  -0.40351  -0.38697  -0.37059  -0.36608
 Alpha  occ. eigenvalues --   -0.35953  -0.35693  -0.35026  -0.34136  -0.33541
 Alpha  occ. eigenvalues --   -0.31745  -0.31510  -0.31099  -0.29823  -0.29286
 Alpha  occ. eigenvalues --   -0.28806  -0.28310  -0.27646  -0.27327  -0.26424
 Alpha  occ. eigenvalues --   -0.25614  -0.24730  -0.24208  -0.21980  -0.21041
 Alpha  occ. eigenvalues --   -0.20754  -0.20636  -0.19381  -0.16530  -0.15517
 Alpha  occ. eigenvalues --   -0.15100   0.04040
 Alpha virt. eigenvalues --    0.06087   0.06354   0.07052   0.07642   0.07909
 Alpha virt. eigenvalues --    0.08409   0.09121   0.09673   0.09719   0.10037
 Alpha virt. eigenvalues --    0.10467   0.10774   0.10905   0.11275   0.12306

  Beta  occ. eigenvalues --  -18.99307 -14.25219 -14.19898 -10.17682 -10.11676
  Beta  occ. eigenvalues --  -10.10296 -10.10077 -10.09387 -10.08195 -10.08043
  Beta  occ. eigenvalues --  -10.07973 -10.07813 -10.07244 -10.06974 -10.06923
  Beta  occ. eigenvalues --  -10.06895 -10.06828  -0.94575  -0.84591  -0.79607
  Beta  occ. eigenvalues --   -0.76354  -0.74563  -0.67931  -0.64840  -0.63950
  Beta  occ. eigenvalues --   -0.62260  -0.58608  -0.58112  -0.51652  -0.51317
  Beta  occ. eigenvalues --   -0.50642  -0.47541  -0.45108  -0.43691  -0.41605
  Beta  occ. eigenvalues --   -0.40982  -0.40327  -0.38659  -0.37029  -0.36583
  Beta  occ. eigenvalues --   -0.35914  -0.35663  -0.35004  -0.34112  -0.33519
  Beta  occ. eigenvalues --   -0.31720  -0.31484  -0.31075  -0.29800  -0.29266
  Beta  occ. eigenvalues --   -0.28782  -0.28288  -0.27624  -0.27303  -0.26402
  Beta  occ. eigenvalues --   -0.25588  -0.24703  -0.24181  -0.21956  -0.21013
  Beta  occ. eigenvalues --   -0.20727  -0.20610  -0.19357  -0.16521  -0.15501
  Beta  occ. eigenvalues --   -0.15084
  Beta virt. eigenvalues --    0.06111   0.06651   0.07185   0.07525   0.08007
  Beta virt. eigenvalues --    0.08245   0.08639   0.09390   0.09965   0.10084
  Beta virt. eigenvalues --    0.10212   0.10748   0.10999   0.11073   0.11422

 Mulliken charges and spin densities:
               1          2
     1  C   -0.110955  -0.170433
     2  N    0.154763   0.091801
     3  C    1.255484  -2.246799
     4  C   -1.438194   2.514821
     5  C    1.035365  -1.504933
     6  C   -0.123185  -0.241573
     7  C    0.078791  -0.808566
     8  N   -0.412774   0.074072
     9  C   -0.801238   0.100534
    10  O   -0.257710   0.013551
    11  C   -0.238021   0.008074
    12  C    0.337425   0.144391
    13  C   -0.474892  -0.021746
    14  C   -0.416911   0.311588
    15  C    0.788882  -1.384084
    16  C   -0.057029  -0.128438
    17  C    0.052244  -0.551051
    18  H   -0.096081   0.243771
    19  H    0.160205   0.021949
    20  H    0.101575   0.070049
    21  H   -0.189458   0.341191
    22  H   -0.360843   0.548779
    23  H   -0.073677   0.214935
    24  H   -0.334591   0.490622
    25  H   -0.046157   0.187048
    26  H    0.093974   0.081762
    27  H   -0.618512   0.775485
    28  H   -0.276661   0.484606
    29  H    0.081402   0.149427
    30  H    0.287848  -0.015235
    31  H    1.544702  -1.480637
    32  H    0.080066   0.142510
    33  H    0.297392  -0.051344
    34  H    0.026730   0.131426
    35  H    0.174487   0.026132
    36  H    0.005778   0.140632
    37  H   -0.269017   0.435279
    38  H   -0.255532   0.423227
    39  H    0.099753   0.019337
    40  H   -0.538407   0.690450
    41  H   -0.214749   0.393576
    42  H   -0.079473   0.216744
    43  H    0.027199   0.117069
 Sum of Mulliken charges =  -1.00000   1.00000

 Dipole moment (field-independent basis, Debye):
    X=             -0.3310    Y=              3.8681    Z=             -1.2481  Tot=              4.0779
 Quadrupole moment (field-independent basis, Debye-Ang):
   XX=           -178.1288   YY=           -163.4253   ZZ=           -152.9125
   XY=             -4.0587   XZ=             -0.5090   YZ=             -1.7246

 Summary of Natural Population Analysis:

                                       Natural Population
                Natural  -----------------------------------------------
    Atom  No    Charge         Core      Valence    Rydberg      Total
 -----------------------------------------------------------------------
      C    1   -0.18318      0.99963     2.17580    0.00776     3.18318
      N    2   -0.25594      0.99964     2.74518    0.01112     3.75594
      C    3   -0.07710      0.99954     2.06420    0.01337     3.07710
      C    4   -0.05916      0.99953     2.04471    0.01492     3.05916
      C    5   -0.19074      0.99958     2.18227    0.00889     3.19074
      C    6   -0.19091      0.99957     2.18226    0.00908     3.19091
      C    7   -0.08764      0.99957     2.07590    0.01218     3.08764
      N    8   -0.42582      0.99976     2.91621    0.00984     3.92582
      C    9    0.34646      0.99963     1.63051    0.02340     2.65354
      O   10   -0.33503      0.99988     3.33015    0.00500     4.33503
      C   11   -0.23263      0.99956     2.22374    0.00933     3.23263
      C   12   -0.10541      0.99959     2.09650    0.00932     3.10541
      C   13   -0.19016      0.99961     2.18203    0.00853     3.19016
      C   14   -0.19290      0.99963     2.18438    0.00889     3.19290
      C   15   -0.18856      0.99963     2.18069    0.00824     3.18856
      C   16   -0.19172      0.99963     2.18375    0.00835     3.19172
      C   17   -0.18722      0.99961     2.17838    0.00923     3.18722
      H   18    0.09485      0.00000     0.40428    0.00087     0.40515
      H   19    0.10228      0.00000     0.39662    0.00110     0.39772
      H   20    0.10936      0.00000     0.38984    0.00081     0.39064
      H   21    0.10426      0.00000     0.39343    0.00231     0.39574
      H   22    0.10028      0.00000     0.39771    0.00201     0.39972
      H   23    0.10331      0.00000     0.39552    0.00116     0.39669
      H   24    0.10414      0.00000     0.39448    0.00138     0.39586
      H   25    0.10168      0.00000     0.39731    0.00100     0.39832
      H   26    0.10678      0.00000     0.39219    0.00103     0.39322
      H   27    0.08501      0.00000     0.41299    0.00199     0.41499
      H   28    0.09513      0.00000     0.40333    0.00154     0.40487
      H   29    0.17459      0.00000     0.32395    0.00146     0.32541
      H   30    0.17997      0.00000     0.31805    0.00198     0.32003
      H   31    0.10227      0.00000     0.39552    0.00221     0.39773
      H   32    0.11201      0.00000     0.38668    0.00131     0.38799
      H   33    0.10519      0.00000     0.39328    0.00154     0.39481
      H   34    0.09445      0.00000     0.40449    0.00106     0.40555
      H   35    0.10237      0.00000     0.39660    0.00103     0.39763
      H   36    0.09400      0.00000     0.40396    0.00203     0.40600
      H   37    0.09889      0.00000     0.40005    0.00106     0.40111
      H   38    0.10056      0.00000     0.39833    0.00111     0.39944
      H   39    0.08936      0.00000     0.40947    0.00117     0.41064
      H   40    0.09518      0.00000     0.40308    0.00174     0.40482
      H   41    0.09828      0.00000     0.40068    0.00104     0.40172
      H   42    0.09919      0.00000     0.39988    0.00092     0.40081
      H   43    0.09428      0.00000     0.40467    0.00105     0.40572
 =======================================================================
   * Total *   -0.00000     16.99359    48.79304    0.21337    66.00000

 Normal termination of Gaussian 16 at Fri Dec 11 14:57:14 2020.
