 Gaussian 16, Revision A.03,

 -----------------------------------------------------------
 # opt freq B3LYP/6-31G(d) empiricaldispersion=gd3bj scf=xqc
 -----------------------------------------------------------

 -------------------------------
 CID_61320870_JID_10242_neutraal
 -------------------------------
 Symbolic Z-matrix:
 Charge =  0 Multiplicity = 1

 SCF Done:  E(RB3LYP) =  -878.162810696     A.U. after   15 cycles
 SCF Done:  E(RB3LYP) =  -878.167998457     A.U. after   13 cycles
 SCF Done:  E(RB3LYP) =  -878.168589200     A.U. after   13 cycles
 SCF Done:  E(RB3LYP) =  -878.169503381     A.U. after   15 cycles
 SCF Done:  E(RB3LYP) =  -878.169883938     A.U. after   13 cycles
 SCF Done:  E(RB3LYP) =  -878.170137270     A.U. after   12 cycles
 SCF Done:  E(RB3LYP) =  -878.170215183     A.U. after   12 cycles
 SCF Done:  E(RB3LYP) =  -878.170265018     A.U. after   12 cycles
 SCF Done:  E(RB3LYP) =  -878.170311698     A.U. after   12 cycles
 SCF Done:  E(RB3LYP) =  -878.170333091     A.U. after   12 cycles
 SCF Done:  E(RB3LYP) =  -878.170335333     A.U. after   11 cycles
 SCF Done:  E(RB3LYP) =  -878.170335898     A.U. after   10 cycles
 SCF Done:  E(RB3LYP) =  -878.170336002     A.U. after    8 cycles
 SCF Done:  E(RB3LYP) =  -878.170336115     A.U. after    8 cycles
 Optimization completed.
    -- Stationary point found.
 Normal termination of Gaussian 16 at Mon Dec 14 17:32:16 2020.

 --------------------------------------------------------------------
 #N Geom=AllCheck Guess=TCheck SCRF=Check GenChk RB3LYP/6-31G(d) Freq
 --------------------------------------------------------------------

 Structure from the checkpoint file:  "JID_10242.chk"
 -------------------------------
 CID_61320870_JID_10242_neutraal
 -------------------------------
 Charge =  0 Multiplicity = 1

 SCF Done:  E(RB3LYP) =  -878.170336115     A.U. after    1 cycles

  Exact polarizability: 253.067   1.581 152.046   2.881 -20.196 159.417
 Approx polarizability: 342.122   1.366 261.161   8.879 -42.724 276.523

                      1                      2                      3
                      A                      A                      A
 Frequencies --     16.3569                18.1410                35.9611
 Red. masses --      5.2143                 4.9694                 4.1321
 Frc consts  --      0.0008                 0.0010                 0.0031
 IR Inten    --      0.3981                 0.4856                 0.2163

                      4                      5                      6
                      A                      A                      A
 Frequencies --     67.3573                95.5750               108.0433
 Red. masses --      7.1469                 9.1238                 5.6986
 Frc consts  --      0.0191                 0.0491                 0.0392
 IR Inten    --      4.2865                 1.9625                 2.2358

                      7                      8                      9
                      A                      A                      A
 Frequencies --    120.9629               157.5202               180.9722
 Red. masses --      6.2095                 5.6315                 4.0475
 Frc consts  --      0.0535                 0.0823                 0.0781
 IR Inten    --      2.9100                 3.8415                 2.3214

                     10                     11                     12
                      A                      A                      A
 Frequencies --    196.9400               209.6184               249.3051
 Red. masses --      1.1520                 3.8125                 6.1403
 Frc consts  --      0.0263                 0.0987                 0.2249
 IR Inten    --      1.1535                 0.9651                 2.7343

                     13                     14                     15
                      A                      A                      A
 Frequencies --    281.5174               309.9284               320.8216
 Red. masses --      5.7589                 3.2789                 3.7334
 Frc consts  --      0.2689                 0.1856                 0.2264
 IR Inten    --      1.9178                 2.5695                 5.9768

                     16                     17                     18
                      A                      A                      A
 Frequencies --    355.5393               372.4420               376.4366
 Red. masses --      4.1930                 1.1141                 3.3534
 Frc consts  --      0.3123                 0.0911                 0.2800
 IR Inten    --      1.5108                34.9245                 3.9294

                     19                     20                     21
                      A                      A                      A
 Frequencies --    412.8731               422.0260               429.1135
 Red. masses --      3.0100                 4.0936                 4.7358
 Frc consts  --      0.3023                 0.4296                 0.5138
 IR Inten    --      0.1371                 9.5882                17.5659

                     22                     23                     24
                      A                      A                      A
 Frequencies --    447.6718               495.0434               530.3957
 Red. masses --      2.8226                 5.1943                 1.5542
 Frc consts  --      0.3333                 0.7500                 0.2576
 IR Inten    --     17.6008                11.2922               292.8145

                     25                     26                     27
                      A                      A                      A
 Frequencies --    546.0268               551.6766               560.3809
 Red. masses --      5.8600                 3.9252                 7.4569
 Frc consts  --      1.0294                 0.7039                 1.3797
 IR Inten    --     15.9516                 6.1079                 0.1171

                     28                     29                     30
                      A                      A                      A
 Frequencies --    567.3459               595.0509               658.3593
 Red. masses --      2.8393                 3.2748                 5.7110
 Frc consts  --      0.5385                 0.6832                 1.4585
 IR Inten    --     93.8991                28.5470                 4.2294

                     31                     32                     33
                      A                      A                      A
 Frequencies --    663.6016               707.0038               721.8383
 Red. masses --      6.8187                 4.3555                 4.0306
 Frc consts  --      1.7692                 1.2827                 1.2374
 IR Inten    --      0.7602                 2.9339                 4.9445

                     34                     35                     36
                      A                      A                      A
 Frequencies --    760.5379               770.2137               777.7233
 Red. masses --      4.7688                 5.1922                 4.8440
 Frc consts  --      1.6252                 1.8148                 1.7262
 IR Inten    --      4.0911                30.2713                 8.4993

                     37                     38                     39
                      A                      A                      A
 Frequencies --    804.0104               839.3781               840.3103
 Red. masses --      4.0464                 1.7105                 2.3702
 Frc consts  --      1.5411                 0.7100                 0.9861
 IR Inten    --      1.2652                31.4068                10.2457

                     40                     41                     42
                      A                      A                      A
 Frequencies --    860.0557               877.7518               924.6317
 Red. masses --      1.4064                 2.0136                 1.3571
 Frc consts  --      0.6129                 0.9141                 0.6836
 IR Inten    --      1.4239                35.8107                 4.4246

                     43                     44                     45
                      A                      A                      A
 Frequencies --    931.6423               970.2263               970.6903
 Red. masses --      4.7577                 1.3499                 1.3029
 Frc consts  --      2.4330                 0.7487                 0.7233
 IR Inten    --      1.3022                 1.8236                 0.5645

                     46                     47                     48
                      A                      A                      A
 Frequencies --    991.7874              1001.3095              1019.5949
 Red. masses --      1.4699                 3.4513                 1.8641
 Frc consts  --      0.8519                 2.0388                 1.1418
 IR Inten    --     17.1090                28.4193                 4.6803

                     49                     50                     51
                      A                      A                      A
 Frequencies --   1029.1065              1046.7128              1076.0311
 Red. masses --      1.6628                 2.9012                 1.4770
 Frc consts  --      1.0376                 1.8727                 1.0076
 IR Inten    --     17.4947                 5.2246                 1.8224

                     52                     53                     54
                      A                      A                      A
 Frequencies --   1086.4787              1127.7293              1152.5760
 Red. masses --      1.6016                 2.6936                 1.3611
 Frc consts  --      1.1139                 2.0183                 1.0653
 IR Inten    --     54.9477               210.3060                16.6275

                     55                     56                     57
                      A                      A                      A
 Frequencies --   1181.5946              1214.7863              1219.2051
 Red. masses --      1.2461                 1.4078                 2.3188
 Frc consts  --      1.0250                 1.2240                 2.0308
 IR Inten    --    147.0095                 5.2989               112.1973

                     58                     59                     60
                      A                      A                      A
 Frequencies --   1235.7894              1243.2455              1295.3562
 Red. masses --      2.7640                 2.8020                 1.4145
 Frc consts  --      2.4870                 2.5517                 1.3984
 IR Inten    --      1.0520                20.0156                62.9707

                     61                     62                     63
                      A                      A                      A
 Frequencies --   1303.5868              1337.9750              1343.5171
 Red. masses --      2.4313                 1.5300                 2.0370
 Frc consts  --      2.4343                 1.6137                 2.1663
 IR Inten    --    371.9848                89.8122                 7.7790

                     64                     65                     66
                      A                      A                      A
 Frequencies --   1346.2200              1371.8107              1390.8660
 Red. masses --      3.8042                 1.9324                 5.2746
 Frc consts  --      4.0621                 2.1425                 6.0119
 IR Inten    --    200.4210                 4.0171                 8.2965

                     67                     68                     69
                      A                      A                      A
 Frequencies --   1421.3837              1443.5302              1461.6347
 Red. masses --      1.4000                 1.2886                 2.6070
 Frc consts  --      1.6665                 1.5820                 3.2815
 IR Inten    --     55.5222                 0.4786                 9.5300

                     70                     71                     72
                      A                      A                      A
 Frequencies --   1470.9608              1515.6432              1516.0507
 Red. masses --      3.3530                 1.0445                 1.1178
 Frc consts  --      4.2745                 1.4137                 1.5138
 IR Inten    --     12.6640                 6.9068                29.1941

                     73                     74                     75
                      A                      A                      A
 Frequencies --   1533.1366              1558.4135              1561.6275
 Red. masses --      1.2124                 2.4224                 2.6619
 Frc consts  --      1.6791                 3.4663                 3.8247
 IR Inten    --      9.6134                16.0278                21.2157

                     76                     77                     78
                      A                      A                      A
 Frequencies --   1621.0355              1632.4458              1669.7810
 Red. masses --      6.3309                 6.5173                 3.5126
 Frc consts  --      9.8016                10.2328                 5.7703
 IR Inten    --      0.6340                51.2785                73.9149

                     79                     80                     81
                      A                      A                      A
 Frequencies --   1672.5160              1698.3638              1778.6548
 Red. masses --      5.6379                 1.3435                11.6968
 Frc consts  --      9.2919                 2.2833                21.8022
 IR Inten    --      3.1663               210.8493               263.8014

                     82                     83                     84
                      A                      A                      A
 Frequencies --   2351.0466              3019.3386              3071.1643
 Red. masses --     12.6804                 1.0461                 1.0940
 Frc consts  --     41.2959                 5.6191                 6.0798
 IR Inten    --     36.5928                41.0631                21.8253

                     85                     86                     87
                      A                      A                      A
 Frequencies --   3101.3907              3134.5580              3157.1270
 Red. masses --      1.0576                 1.0974                 1.1097
 Frc consts  --      5.9934                 6.3528                 6.5166
 IR Inten    --     33.0209                11.2374                 4.9578

                     88                     89                     90
                      A                      A                      A
 Frequencies --   3180.0821              3192.6736              3216.7188
 Red. masses --      1.0895                 1.0892                 1.0897
 Frc consts  --      6.4916                 6.5413                 6.6436
 IR Inten    --     20.8534                 9.1139                 2.1628

                     91                     92                     93
                      A                      A                      A
 Frequencies --   3220.2997              3221.6153              3227.7772
 Red. masses --      1.0901                 1.0940                 1.0924
 Frc consts  --      6.6605                 6.6900                 6.7057
 IR Inten    --      3.6285                 5.7597                 2.6072

                     94                     95                     96
                      A                      A                      A
 Frequencies --   3234.9876              3573.0706              3675.0370
 Red. masses --      1.0944                 1.0473                 1.0995
 Frc consts  --      6.7479                 7.8777                 8.7492
 IR Inten    --      1.2885                33.7767                15.0763

 - Thermochemistry -
 -------------------
 Temperature   298.150 Kelvin.  Pressure   1.00000 Atm.
 Atom     1 has atomic number  6 and mass  12.00000

 Molecular mass:   266.10553 amu.
 Principal axes and moments of inertia in atomic units:
                           1         2         3
     Eigenvalues --  2591.38206********************
           X            0.99991  -0.01341  -0.00211
           Y            0.01296   0.98918  -0.14612
           Z            0.00404   0.14608   0.98926
 This molecule is an asymmetric top.
 Rotational symmetry number  1.
 Warning -- assumption of classical behavior for rotation
           may cause significant error
 Rotational temperatures (Kelvin)      0.03342     0.00645     0.00627
 Rotational constants (GHZ):           0.69644     0.13436     0.13066
 Zero-point vibrational energy     707330.1 (Joules/Mol)
                                  169.05596 (Kcal/Mol)
 Warning -- explicit consideration of  29 degrees of freedom as
           vibrations may cause significant error
 Vibrational temperatures:     23.53    26.10    51.74    96.91   137.51
          (Kelvin)            155.45   174.04   226.64   260.38   283.35
                              301.59   358.69   405.04   445.92   461.59
                              511.54   535.86   541.61   594.03   607.20
                              617.40   644.10   712.26   763.12   785.61
                              793.74   806.26   816.28   856.15   947.23
                              954.77  1017.22  1038.56  1094.24  1108.17
                             1118.97  1156.79  1207.68  1209.02  1237.43
                             1262.89  1330.34  1340.43  1395.94  1396.61
                             1426.96  1440.66  1466.97  1480.65  1505.99
                             1548.17  1563.20  1622.55  1658.30  1700.05
                             1747.81  1754.16  1778.03  1788.75  1863.73
                             1875.57  1925.05  1933.02  1936.91  1973.73
                             2001.15  2045.05  2076.92  2102.97  2116.38
                             2180.67  2181.26  2205.84  2242.21  2246.83
                             2332.31  2348.73  2402.44  2406.38  2443.57
                             2559.09  3382.63  4344.15  4418.72  4462.21
                             4509.93  4542.40  4575.43  4593.55  4628.14
                             4633.29  4635.19  4644.05  4654.43  5140.85
                             5287.56

 Zero-point correction=                           0.269408 (Hartree/Particle)
 Thermal correction to Energy=                    0.287157
 Thermal correction to Enthalpy=                  0.288101
 Thermal correction to Gibbs Free Energy=         0.221219
 Sum of electronic and zero-point Energies=           -877.900928
 Sum of electronic and thermal Energies=              -877.883179
 Sum of electronic and thermal Enthalpies=            -877.882235
 Sum of electronic and thermal Free Energies=         -877.949117

                     E (Thermal)             CV                S
                      KCal/Mol        Cal/Mol-Kelvin    Cal/Mol-Kelvin
 Total                  180.194             68.007            140.765
 Electronic               0.000              0.000              0.000
 Translational            0.889              2.981             42.635
 Rotational               0.889              2.981             34.529
 Vibrational            178.416             62.046             63.600
 Vibration     1          0.593              1.986              7.034
 Vibration     2          0.593              1.986              6.828
 Vibration     3          0.594              1.982              5.470
 Vibration     4          0.598              1.970              4.229
 Vibration     5          0.603              1.952              3.543
 Vibration     6          0.606              1.943              3.304
 Vibration     7          0.609              1.932              3.085
 Vibration     8          0.621              1.894              2.579
 Vibration     9          0.630              1.866              2.318
 Vibration    10          0.636              1.844              2.161
 Vibration    11          0.642              1.826              2.047
 Vibration    12          0.662              1.764              1.735
 Vibration    13          0.681              1.708              1.524
 Vibration    14          0.699              1.655              1.363
 Vibration    15          0.706              1.634              1.306
 Vibration    16          0.731              1.564              1.142
 Vibration    17          0.744              1.529              1.070
 Vibration    18          0.747              1.520              1.053
 Vibration    19          0.777              1.442              0.917
 Vibration    20          0.784              1.422              0.885
 Vibration    21          0.790              1.407              0.862
 Vibration    22          0.807              1.366              0.803
 Vibration    23          0.851              1.261              0.671
 Vibration    24          0.885              1.183              0.586
 Vibration    25          0.901              1.148              0.552
 Vibration    26          0.907              1.136              0.541
 Vibration    27          0.916              1.117              0.523
 Vibration    28          0.923              1.102              0.509
 Vibration    29          0.953              1.042              0.458

 Optimization completed.
    -- Stationary point found.
 Normal termination of Gaussian 16 at Mon Dec 14 17:45:50 2020.

 ----------------------------------------------------------------------
 # B3LYP/6-311++G(d,p) empiricaldispersion=gd3bj scf=xqc pop=npa geom=c
 heck
 ----------------------------------------------------------------------

 ---------------------------------------
 CID_61320870_JID_10242_Energie_neutraal
 ---------------------------------------
 Structure from the checkpoint file:  "JID_10242.chk"
 Charge =  0 Multiplicity = 1

 SCF Done:  E(RB3LYP) =  -878.410572875     A.U. after   16 cycles
 Normal termination of Gaussian 16 at Mon Dec 14 17:51:20 2020.

 ----------------------------------------------------------------------
 # B3LYP/6-311++G(d,p) empiricaldispersion=gd3bj scf=xqc pop=npa geom=c
 heck
 ----------------------------------------------------------------------

 -------------------------------------
 CID_61320870_JID_10242_Energie_kation
 -------------------------------------
 Structure from the checkpoint file:  "JID_10242.chk"
 Charge =  1 Multiplicity = 2

 SCF Done:  E(UB3LYP) =  -878.119088860     A.U. after   25 cycles
 Normal termination of Gaussian 16 at Mon Dec 14 18:04:02 2020.
 Gaussian 16:  ES64L-G16RevA.03 25-Dec-2016

 ----------------------------------------------------------------------
 # B3LYP/6-311++G(d,p) empiricaldispersion=gd3bj scf=xqc pop=npa geom=c
 heck
 ----------------------------------------------------------------------

 ------------------------------------
 CID_61320870_JID_10242_Energie_anion
 ------------------------------------
 Structure from the checkpoint file:  "JID_10242.chk"
 Charge = -1 Multiplicity = 2

                         Standard orientation:
 ---------------------------------------------------------------------
 Center     Atomic      Atomic             Coordinates (Angstroms)
 Number     Number       Type             X           Y           Z
 ---------------------------------------------------------------------
      1          6           0       -4.180640    2.134988   -1.254206
      2          6           0       -3.678330    0.985928   -0.418823
      3          6           0       -4.439120    0.525368    0.683805
      4          6           0       -3.954333   -0.536797    1.468788
      5          6           0       -2.742172   -1.136332    1.173608
      6          6           0       -1.982108   -0.694997    0.081783
      7          6           0       -2.467091    0.365295   -0.698322
      8          6           0       -0.699024   -1.365083   -0.193467
      9          8           0       -0.234116   -2.277234    0.469275
     10          8           0       -0.072983   -0.855003   -1.289978
     11          6           0        1.209038   -1.435108   -1.618249
     12          6           0        2.330817   -0.717895   -0.909195
     13          6           0        2.994623    0.342769   -1.535965
     14          6           0        4.016054    1.028265   -0.887661
     15          6           0        4.385490    0.652076    0.413024
     16          6           0        3.723795   -0.410389    1.050239
     17          6           0        2.704800   -1.087237    0.390214
     18          6           0        5.438796    1.350454    1.087847
     19          7           0        6.294348    1.918043    1.634514
     20          7           0       -5.627564    1.155272    1.020588
     21          1           0       -5.131267    1.897354   -1.754640
     22          1           0       -4.352176    3.031171   -0.643585
     23          1           0       -3.460834    2.393458   -2.035338
     24          1           0       -4.542111   -0.881285    2.316248
     25          1           0       -2.364757   -1.955451    1.775966
     26          1           0       -1.878017    0.712272   -1.540308
     27          1           0        1.192612   -2.495774   -1.361557
     28          1           0        1.294488   -1.317024   -2.700333
     29          1           0        2.708437    0.633992   -2.543003
     30          1           0        4.531167    1.848667   -1.375913
     31          1           0        4.015125   -0.696044    2.055440
     32          1           0        2.177853   -1.898372    0.880193
     33          1           0       -6.244746    0.637014    1.631500
     34          1           0       -6.120048    1.626868    0.274703
 ---------------------------------------------------------------------

 SCF Done:  E(UB3LYP) =  -878.425020395     A.U. after   31 cycles

 The electronic state is 2-A.
 Alpha  occ. eigenvalues --  -19.05084 -18.98946 -14.23818 -14.18293 -10.18085
 Alpha  occ. eigenvalues --  -10.12233 -10.12083 -10.08980 -10.08759 -10.08410
 Alpha  occ. eigenvalues --  -10.08080 -10.07847 -10.07782 -10.07729 -10.07312
 Alpha  occ. eigenvalues --  -10.06969 -10.06739 -10.06710 -10.06121 -10.05999
 Alpha  occ. eigenvalues --   -0.98887  -0.90186  -0.84155  -0.78597  -0.75482
 Alpha  occ. eigenvalues --   -0.75098  -0.68831  -0.67959  -0.65164  -0.64190
 Alpha  occ. eigenvalues --   -0.60436  -0.60128  -0.53750  -0.52082  -0.50616
 Alpha  occ. eigenvalues --   -0.49891  -0.45331  -0.43737  -0.43558  -0.43133
 Alpha  occ. eigenvalues --   -0.41161  -0.38274  -0.37295  -0.36301  -0.35338
 Alpha  occ. eigenvalues --   -0.34569  -0.34016  -0.33768  -0.32536  -0.32064
 Alpha  occ. eigenvalues --   -0.31546  -0.31039  -0.30472  -0.28631  -0.28204
 Alpha  occ. eigenvalues --   -0.27675  -0.26608  -0.25849  -0.24857  -0.24393
 Alpha  occ. eigenvalues --   -0.23701  -0.22632  -0.22273  -0.21186  -0.19424
 Alpha  occ. eigenvalues --   -0.16994  -0.15977  -0.15368  -0.14431  -0.12234
 Alpha  occ. eigenvalues --    0.02808
 Alpha virt. eigenvalues --    0.04128   0.05337   0.06623   0.07658   0.08020
 Alpha virt. eigenvalues --    0.08510   0.09051   0.09381   0.09463   0.09972
 Alpha virt. eigenvalues --    0.10448   0.11250   0.11575   0.11836   0.12516

  Beta  occ. eigenvalues --  -19.05040 -18.98826 -14.23765 -14.18086 -10.17986
  Beta  occ. eigenvalues --  -10.12103 -10.12094 -10.08967 -10.08795 -10.08412
  Beta  occ. eigenvalues --  -10.07866 -10.07843 -10.07768 -10.07658 -10.07287
  Beta  occ. eigenvalues --  -10.06886 -10.06726 -10.06656 -10.06019 -10.05828
  Beta  occ. eigenvalues --   -0.98734  -0.89999  -0.84038  -0.78277  -0.75353
  Beta  occ. eigenvalues --   -0.74828  -0.68767  -0.67614  -0.64940  -0.63959
  Beta  occ. eigenvalues --   -0.60257  -0.59993  -0.53424  -0.51897  -0.50535
  Beta  occ. eigenvalues --   -0.49640  -0.45171  -0.43637  -0.43457  -0.43059
  Beta  occ. eigenvalues --   -0.41059  -0.38037  -0.37137  -0.36206  -0.35236
  Beta  occ. eigenvalues --   -0.34489  -0.33820  -0.33679  -0.32491  -0.31988
  Beta  occ. eigenvalues --   -0.31425  -0.30842  -0.30395  -0.28402  -0.27639
  Beta  occ. eigenvalues --   -0.27270  -0.26301  -0.25694  -0.24787  -0.24079
  Beta  occ. eigenvalues --   -0.23547  -0.22000  -0.21861  -0.21069  -0.19095
  Beta  occ. eigenvalues --   -0.16861  -0.15770  -0.14711  -0.13099  -0.11894
  Beta virt. eigenvalues --    0.04916   0.06334   0.06768   0.07164   0.07745
  Beta virt. eigenvalues --    0.08086   0.08576   0.09207   0.09417   0.09471
  Beta virt. eigenvalues --    0.09946   0.10470   0.11196   0.11562   0.11814

 Mulliken charges and spin densities:
               1          2
     1  C    0.013489  -0.580005
     2  C    0.839241   0.230634
     3  C   -1.572037   0.167843
     4  C   -0.203720  -0.165100
     5  C   -0.361356  -0.049418
     6  C    0.984255  -0.061036
     7  C   -0.369015   0.088583
     8  C   -0.178369   0.056773
     9  O   -0.280394   0.037675
    10  O    0.071151  -0.006166
    11  C   -0.853823   0.000873
    12  C    1.226933   0.181066
    13  C   -0.618757  -0.005913
    14  C   -0.381979   0.086769
    15  C    2.108505   0.148754
    16  C   -0.591356   0.074849
    17  C   -0.036092   0.032396
    18  C   -1.836205  -0.069544
    19  N   -0.283580   0.111534
    20  N   -0.229502  -0.034872
    21  H    0.012714   0.130151
    22  H    0.110786   0.050589
    23  H    0.147944  -0.002990
    24  H    0.094657   0.041437
    25  H    0.171865  -0.002782
    26  H    0.129950  -0.000695
    27  H    0.164563   0.002735
    28  H    0.137846   0.018220
    29  H    0.104866   0.004323
    30  H    0.150696  -0.003597
    31  H    0.158816  -0.003899
    32  H    0.190359   0.008745
    33  H   -0.007832   0.246179
    34  H   -0.014617   0.265888
 Sum of Mulliken charges =  -1.00000   1.00000

 Dipole moment (field-independent basis, Debye):
    X=             -7.0167    Y=             -1.8570    Z=             -3.9743  Tot=              8.2751
 Quadrupole moment (field-independent basis, Debye-Ang):
   XX=           -241.8002   YY=           -141.7382   ZZ=           -129.2959
   XY=            -15.8502   XZ=            -16.4424   YZ=             -8.9285

 Summary of Natural Population Analysis:

                                       Natural Population
                Natural  -----------------------------------------------
    Atom  No    Charge         Core      Valence    Rydberg      Total
 -----------------------------------------------------------------------
      C    1   -0.29675      0.99964     2.29102    0.00610     3.29675
      C    2   -0.05474      0.99949     2.04601    0.00925     3.05474
      C    3    0.11327      0.99946     1.87631    0.01096     2.88673
      C    4   -0.13855      0.99953     2.12920    0.00982     3.13855
      C    5   -0.06004      0.99955     2.05260    0.00789     3.06004
      C    6   -0.09341      0.99946     2.08435    0.00960     3.09341
      C    7   -0.05490      0.99950     2.04815    0.00725     3.05490
      C    8    0.41206      0.99962     1.56506    0.02327     2.58794
      O    9   -0.31186      0.99987     3.30658    0.00541     4.31186
      O   10   -0.28191      0.99986     3.27385    0.00820     4.28191
      C   11   -0.02134      0.99952     2.01070    0.01111     3.02134
      C   12    0.01740      0.99950     1.97490    0.00820     2.98260
      C   13   -0.10439      0.99953     2.09615    0.00871     3.10439
      C   14   -0.06461      0.99955     2.05710    0.00797     3.06461
      C   15   -0.06525      0.99943     2.05535    0.01048     3.06525
      C   16   -0.06210      0.99955     2.05475    0.00779     3.06210
      C   17   -0.10040      0.99953     2.09229    0.00859     3.10040
      C   18    0.14966      0.99964     1.83259    0.01811     2.85034
      N   19   -0.17122      0.99979     2.66054    0.01089     3.67122
      N   20   -0.39249      0.99971     2.88309    0.00969     3.89249
      H   21    0.09753      0.00000     0.40130    0.00117     0.40247
      H   22    0.10268      0.00000     0.39630    0.00102     0.39732
      H   23    0.10459      0.00000     0.39456    0.00085     0.39541
      H   24    0.09620      0.00000     0.40293    0.00087     0.40380
      H   25    0.10924      0.00000     0.38981    0.00095     0.39076
      H   26    0.10620      0.00000     0.39287    0.00093     0.39380
      H   27    0.09922      0.00000     0.39940    0.00137     0.40078
      H   28    0.08820      0.00000     0.41073    0.00107     0.41180
      H   29    0.09490      0.00000     0.40409    0.00102     0.40510
      H   30    0.09823      0.00000     0.40090    0.00087     0.40177
      H   31    0.09897      0.00000     0.40018    0.00085     0.40103
      H   32    0.11082      0.00000     0.38812    0.00107     0.38918
      H   33    0.18609      0.00000     0.31204    0.00187     0.31391
      H   34    0.18871      0.00000     0.30923    0.00207     0.31129
 =======================================================================
   * Total *   -0.00000     19.99172    49.79302    0.21526    70.00000

 Normal termination of Gaussian 16 at Mon Dec 14 18:20:01 2020.
