 Gaussian 16, Revision A.03,

 -----------------------------------------------------------
 # opt freq B3LYP/6-31G(d) empiricaldispersion=gd3bj scf=xqc
 -----------------------------------------------------------

 ------------------------------
 CID_61498490_JID_4924_neutraal
 ------------------------------
 Symbolic Z-matrix:
 Charge =  0 Multiplicity = 1

 SCF Done:  E(RB3LYP) =  -1025.56984017     A.U. after   15 cycles
 SCF Done:  E(RB3LYP) =  -1025.57599080     A.U. after   13 cycles
 SCF Done:  E(RB3LYP) =  -1025.57714461     A.U. after   12 cycles
 SCF Done:  E(RB3LYP) =  -1025.57655801     A.U. after   13 cycles
 SCF Done:  E(RB3LYP) =  -1025.57787421     A.U. after   13 cycles
 SCF Done:  E(RB3LYP) =  -1025.57833284     A.U. after   12 cycles
 SCF Done:  E(RB3LYP) =  -1025.57858209     A.U. after   12 cycles
 SCF Done:  E(RB3LYP) =  -1025.57863264     A.U. after   11 cycles
 SCF Done:  E(RB3LYP) =  -1025.57863395     A.U. after   12 cycles
 SCF Done:  E(RB3LYP) =  -1025.57866751     A.U. after   11 cycles
 SCF Done:  E(RB3LYP) =  -1025.57869859     A.U. after    9 cycles
 SCF Done:  E(RB3LYP) =  -1025.57869900     A.U. after   10 cycles
 SCF Done:  E(RB3LYP) =  -1025.57869912     A.U. after    9 cycles
 SCF Done:  E(RB3LYP) =  -1025.57869918     A.U. after    8 cycles
 SCF Done:  E(RB3LYP) =  -1025.57869921     A.U. after    8 cycles
 SCF Done:  E(RB3LYP) =  -1025.57869921     A.U. after    7 cycles
 Optimization completed.
    -- Stationary point found.
 Normal termination of Gaussian 16 at Thu Dec 10 11:02:44 2020.

 --------------------------------------------------------------------
 #N Geom=AllCheck Guess=TCheck SCRF=Check GenChk RB3LYP/6-31G(d) Freq
 --------------------------------------------------------------------

 Structure from the checkpoint file:  "JID_4924.chk"
 ------------------------------
 CID_61498490_JID_4924_neutraal
 ------------------------------
 Charge =  0 Multiplicity = 1

 SCF Done:  E(RB3LYP) =  -1025.57869921     A.U. after    1 cycles

  Exact polarizability: 146.086 -13.790 111.410  -3.767  -8.061 105.868
 Approx polarizability: 188.992 -40.216 198.339  -7.813 -33.749 184.390

                      1                      2                      3
                      A                      A                      A
 Frequencies --     10.7522                20.8974                41.7709
 Red. masses --      4.5859                 6.1251                 3.9200
 Frc consts  --      0.0003                 0.0016                 0.0040
 IR Inten    --      0.2746                 2.2911                 0.7374

                      4                      5                      6
                      A                      A                      A
 Frequencies --     55.6975                85.6790                97.3075
 Red. masses --      4.1959                 5.3100                 4.1442
 Frc consts  --      0.0077                 0.0230                 0.0231
 IR Inten    --      1.0038                 4.4152                 0.7148

                      7                      8                      9
                      A                      A                      A
 Frequencies --    149.4036               153.3385               214.6790
 Red. masses --      3.2220                 4.0302                 1.8617
 Frc consts  --      0.0424                 0.0558                 0.0506
 IR Inten    --      0.9476                 0.9070                 1.3803

                     10                     11                     12
                      A                      A                      A
 Frequencies --    236.8076               251.8119               284.3887
 Red. masses --      1.7062                 2.1796                 1.6245
 Frc consts  --      0.0564                 0.0814                 0.0774
 IR Inten    --      0.3173                 0.4969                 0.4132

                     13                     14                     15
                      A                      A                      A
 Frequencies --    311.6279               335.6146               355.7301
 Red. masses --      2.7975                 2.1832                 2.8871
 Frc consts  --      0.1601                 0.1449                 0.2153
 IR Inten    --      0.5449                 4.4811                11.3264

                     16                     17                     18
                      A                      A                      A
 Frequencies --    420.2678               459.0551               466.1643
 Red. masses --      3.8725                 5.1463                 6.3402
 Frc consts  --      0.4030                 0.6390                 0.8118
 IR Inten    --      9.3674                25.5451                17.8995

                     19                     20                     21
                      A                      A                      A
 Frequencies --    516.8843               531.6576               605.2644
 Red. masses --      3.8340                 6.1109                 4.2712
 Frc consts  --      0.6035                 1.0177                 0.9219
 IR Inten    --      7.7761                 3.8120                 6.8151

                     22                     23                     24
                      A                      A                      A
 Frequencies --    678.9196               709.6282               736.4288
 Red. masses --      2.7095                 2.1011                 4.9562
 Frc consts  --      0.7358                 0.6234                 1.5836
 IR Inten    --     38.7772                41.2393                30.2787

                     25                     26                     27
                      A                      A                      A
 Frequencies --    778.6886               793.4222               799.5353
 Red. masses --      3.9812                 1.5877                 1.6564
 Frc consts  --      1.4223                 0.5889                 0.6239
 IR Inten    --      6.9020                 6.0417                37.3522

                     28                     29                     30
                      A                      A                      A
 Frequencies --    824.2314               855.8032               881.2476
 Red. masses --      3.3213                 2.0929                 2.2517
 Frc consts  --      1.3294                 0.9031                 1.0303
 IR Inten    --     44.2836                26.4658                 4.8160

                     31                     32                     33
                      A                      A                      A
 Frequencies --    893.9134               920.4046               955.7537
 Red. masses --      3.8369                 2.2658                 2.0168
 Frc consts  --      1.8064                 1.1309                 1.0855
 IR Inten    --     13.8140                 2.1457                 4.6310

                     34                     35                     36
                      A                      A                      A
 Frequencies --    998.0578              1030.3143              1066.4628
 Red. masses --      4.4265                 2.1063                 3.2592
 Frc consts  --      2.5979                 1.3174                 2.1840
 IR Inten    --     27.9389                 3.2902                19.7025

                     37                     38                     39
                      A                      A                      A
 Frequencies --   1092.6056              1133.1728              1134.9782
 Red. masses --      2.5561                 2.0022                 2.3434
 Frc consts  --      1.7979                 1.5148                 1.7786
 IR Inten    --    138.4749                57.1234                12.8629

                     40                     41                     42
                      A                      A                      A
 Frequencies --   1148.5318              1161.2067              1209.4817
 Red. masses --      1.4803                 3.0750                 1.7173
 Frc consts  --      1.1505                 2.4430                 1.4801
 IR Inten    --      9.0600                98.8406                 5.7503

                     43                     44                     45
                      A                      A                      A
 Frequencies --   1265.1611              1291.1834              1332.2324
 Red. masses --      2.1311                 2.8493                 1.7720
 Frc consts  --      2.0098                 2.7987                 1.8530
 IR Inten    --     20.5232               257.7835                 1.6292

                     46                     47                     48
                      A                      A                      A
 Frequencies --   1344.3189              1348.0020              1385.8602
 Red. masses --      1.1567                 1.6498                 1.2475
 Frc consts  --      1.2316                 1.7663                 1.4116
 IR Inten    --     18.9009                 8.4682                 9.8954

                     49                     50                     51
                      A                      A                      A
 Frequencies --   1392.4202              1412.5061              1418.5756
 Red. masses --      2.5192                 1.9995                 1.2719
 Frc consts  --      2.8777                 2.3505                 1.5080
 IR Inten    --     44.6168                26.7252                 2.9594

                     52                     53                     54
                      A                      A                      A
 Frequencies --   1430.5606              1444.2344              1492.7949
 Red. masses --      1.2351                 1.3267                 1.0899
 Frc consts  --      1.4893                 1.6305                 1.4311
 IR Inten    --      3.9539                17.2143                 3.7988

                     55                     56                     57
                      A                      A                      A
 Frequencies --   1513.9230              1516.2165              1520.0399
 Red. masses --      1.1425                 1.0833                 1.1016
 Frc consts  --      1.5428                 1.4674                 1.4996
 IR Inten    --     16.8478                20.4854                11.0013

                     58                     59                     60
                      A                      A                      A
 Frequencies --   1526.4810              1528.7980              1537.3509
 Red. masses --      1.1244                 5.1200                 1.0623
 Frc consts  --      1.5437                 7.0505                 1.4792
 IR Inten    --      3.0768                 6.9268                 7.5270

                     61                     62                     63
                      A                      A                      A
 Frequencies --   1539.6133              1833.3068              3057.1636
 Red. masses --      1.0635                11.0834                 1.0384
 Frc consts  --      1.4852                21.9480                 5.7182
 IR Inten    --     20.4046               223.0110                17.4070

                     64                     65                     66
                      A                      A                      A
 Frequencies --   3060.4282              3061.6697              3095.1065
 Red. masses --      1.0629                 1.0363                 1.0591
 Frc consts  --      5.8654                 5.7234                 5.9777
 IR Inten    --     32.4072                15.2558                27.1682

                     67                     68                     69
                      A                      A                      A
 Frequencies --   3099.0989              3115.2456              3123.2238
 Red. masses --      1.0872                 1.1019                 1.1004
 Frc consts  --      6.1521                 6.3007                 6.3242
 IR Inten    --      5.4237                 6.8920                27.5749

                     70                     71                     72
                      A                      A                      A
 Frequencies --   3127.1978              3141.1088              3160.1356
 Red. masses --      1.1020                 1.1039                 1.1075
 Frc consts  --      6.3497                 6.4172                 6.5164
 IR Inten    --     25.8710                 8.4137                26.2059

                     73                     74                     75
                      A                      A                      A
 Frequencies --   3167.3884              3273.4580              3524.6833
 Red. masses --      1.0994                 1.0945                 1.0738
 Frc consts  --      6.4986                 6.9099                 7.8601
 IR Inten    --      7.7410                 1.8012                 0.8558

 - Thermochemistry -
 -------------------
 Temperature   298.150 Kelvin.  Pressure   1.00000 Atm.
 Atom     1 has atomic number  6 and mass  12.00000

 Molecular mass:   215.07285 amu.
 Principal axes and moments of inertia in atomic units:
                           1         2         3
     Eigenvalues --  1238.793357274.277227489.83526
           X            0.99983   0.01781   0.00556
           Y           -0.01809   0.99821   0.05694
           Z           -0.00454  -0.05703   0.99836
 This molecule is an asymmetric top.
 Rotational symmetry number  1.
 Warning -- assumption of classical behavior for rotation
           may cause significant error
 Rotational temperatures (Kelvin)      0.06992     0.01191     0.01156
 Rotational constants (GHZ):           1.45685     0.24810     0.24096
 Zero-point vibrational energy     571139.5 (Joules/Mol)
                                  136.50563 (Kcal/Mol)
 Warning -- explicit consideration of  21 degrees of freedom as
           vibrations may cause significant error
 Vibrational temperatures:     15.47    30.07    60.10    80.14   123.27
          (Kelvin)            140.00   214.96   220.62   308.88   340.71
                              362.30   409.17   448.36   482.87   511.82
                              604.67   660.48   670.71   743.68   764.94
                              870.84   976.81  1021.00  1059.56  1120.36
                             1141.56  1150.35  1185.89  1231.31  1267.92
                             1286.14  1324.26  1375.12  1435.98  1482.39
                             1534.40  1572.02  1630.38  1632.98  1652.48
                             1670.72  1740.17  1820.28  1857.72  1916.79
                             1934.18  1939.47  1993.94  2003.38  2032.28
                             2041.01  2058.26  2077.93  2147.80  2178.20
                             2181.50  2187.00  2196.27  2199.60  2211.91
                             2215.16  2637.72  4398.58  4403.27  4405.06
                             4453.17  4458.91  4482.14  4493.62  4499.34
                             4519.36  4546.73  4557.17  4709.78  5071.23

 Zero-point correction=                           0.217536 (Hartree/Particle)
 Thermal correction to Energy=                    0.232389
 Thermal correction to Enthalpy=                  0.233333
 Thermal correction to Gibbs Free Energy=         0.171811
 Sum of electronic and zero-point Energies=          -1025.361164
 Sum of electronic and thermal Energies=             -1025.346310
 Sum of electronic and thermal Enthalpies=           -1025.345366
 Sum of electronic and thermal Free Energies=        -1025.406888

                     E (Thermal)             CV                S
                      KCal/Mol        Cal/Mol-Kelvin    Cal/Mol-Kelvin
 Total                  145.826             52.932            129.485
 Electronic               0.000              0.000              0.000
 Translational            0.889              2.981             42.001
 Rotational               0.889              2.981             32.579
 Vibrational            144.049             46.971             54.905
 Vibration     1          0.593              1.987              7.867
 Vibration     2          0.593              1.986              6.547
 Vibration     3          0.594              1.980              5.173
 Vibration     4          0.596              1.975              4.604
 Vibration     5          0.601              1.959              3.756
 Vibration     6          0.603              1.951              3.508
 Vibration     7          0.618              1.903              2.680
 Vibration     8          0.619              1.899              2.630
 Vibration     9          0.645              1.819              2.004
 Vibration    10          0.656              1.784              1.827
 Vibration    11          0.664              1.760              1.718
 Vibration    12          0.683              1.703              1.507
 Vibration    13          0.700              1.652              1.354
 Vibration    14          0.717              1.604              1.233
 Vibration    15          0.731              1.563              1.141
 Vibration    16          0.783              1.426              0.891
 Vibration    17          0.817              1.341              0.769
 Vibration    18          0.824              1.325              0.748
 Vibration    19          0.872              1.213              0.617
 Vibration    20          0.887              1.180              0.584
 Vibration    21          0.964              1.021              0.441

 Optimization completed.
    -- Stationary point found.
 Normal termination of Gaussian 16 at Thu Dec 10 11:10:35 2020.

 ----------------------------------------------------------------------
 # B3LYP/6-311++G(d,p) empiricaldispersion=gd3bj scf=xqc pop=npa geom=c
 heck
 ----------------------------------------------------------------------

 --------------------------------------
 CID_61498490_JID_4924_Energie_neutraal
 --------------------------------------
 Structure from the checkpoint file:  "JID_4924.chk"
 Charge =  0 Multiplicity = 1

 SCF Done:  E(RB3LYP) =  -1025.78619796     A.U. after   16 cycles
 Normal termination of Gaussian 16 at Thu Dec 10 11:14:19 2020.

 ----------------------------------------------------------------------
 # B3LYP/6-311++G(d,p) empiricaldispersion=gd3bj scf=xqc pop=npa geom=c
 heck
 ----------------------------------------------------------------------

 ------------------------------------
 CID_61498490_JID_4924_Energie_kation
 ------------------------------------
 Structure from the checkpoint file:  "JID_4924.chk"
 Charge =  1 Multiplicity = 2

 SCF Done:  E(UB3LYP) =  -1025.47512290     A.U. after   27 cycles
 Normal termination of Gaussian 16 at Thu Dec 10 11:23:01 2020.
 Gaussian 16:  ES64L-G16RevA.03 25-Dec-2016

 ----------------------------------------------------------------------
 # B3LYP/6-311++G(d,p) empiricaldispersion=gd3bj scf=xqc pop=npa geom=c
 heck
 ----------------------------------------------------------------------

 -----------------------------------
 CID_61498490_JID_4924_Energie_anion
 -----------------------------------
 Structure from the checkpoint file:  "JID_4924.chk"
 Charge = -1 Multiplicity = 2

                         Standard orientation:
 ---------------------------------------------------------------------
 Center     Atomic      Atomic             Coordinates (Angstroms)
 Number     Number       Type             X           Y           Z
 ---------------------------------------------------------------------
      1          6           0        4.622274    1.551576    0.376170
      2          6           0        4.052719    0.759808   -0.789498
      3          8           0        2.660718    0.433811   -0.565362
      4          6           0        2.413956   -0.659525    0.193633
      5          8           0        3.274662   -1.354350    0.685573
      6          6           0        0.912992   -0.850752    0.379067
      7          6           0        0.402811    0.194211    1.393600
      8          7           0        0.290719   -0.849076   -0.945898
      9          6           0       -1.061354   -1.384242   -1.062302
     10          6           0       -2.190001   -0.551008   -0.494674
     11          6           0       -2.779949    0.549183   -1.068176
     12         16           0       -3.963305    1.185257   -0.018928
     13          7           0       -3.631603   -0.069831    1.168510
     14          7           0       -2.713624   -0.842155    0.747331
     15          1           0        4.029717    2.454083    0.558117
     16          1           0        5.652397    1.853226    0.155548
     17          1           0        4.628607    0.941645    1.283269
     18          1           0        4.049223    1.344502   -1.712337
     19          1           0        4.607712   -0.167663   -0.948207
     20          1           0        0.790068   -1.853210    0.799394
     21          1           0        0.446576    1.198665    0.958880
     22          1           0       -0.624620   -0.020883    1.692176
     23          1           0        1.026393    0.184340    2.295074
     24          1           0        0.363341    0.076130   -1.361183
     25          1           0       -1.255114   -1.553508   -2.127794
     26          1           0       -1.083652   -2.362174   -0.571238
     27          1           0       -2.559942    0.976967   -2.037069
 ---------------------------------------------------------------------

 SCF Done:  E(UB3LYP) =  -1025.79507232     A.U. after   32 cycles

 The electronic state is 2-A.
 Alpha  occ. eigenvalues --  -88.73218 -19.07491 -19.01971 -14.19639 -14.19612
 Alpha  occ. eigenvalues --  -14.19247 -10.20444 -10.14068 -10.11182 -10.09053
 Alpha  occ. eigenvalues --  -10.08005 -10.06378 -10.05538 -10.05089  -7.81824
 Alpha  occ. eigenvalues --   -5.78147  -5.77744  -5.77440  -1.01466  -0.92936
 Alpha  occ. eigenvalues --   -0.88628  -0.80827  -0.69456  -0.67163  -0.65832
 Alpha  occ. eigenvalues --   -0.63804  -0.57844  -0.55521  -0.52226  -0.47526
 Alpha  occ. eigenvalues --   -0.46692  -0.43029  -0.41368  -0.39558  -0.37802
 Alpha  occ. eigenvalues --   -0.36750  -0.36260  -0.34552  -0.32578  -0.32195
 Alpha  occ. eigenvalues --   -0.31045  -0.30858  -0.29413  -0.29110  -0.28277
 Alpha  occ. eigenvalues --   -0.27722  -0.26578  -0.25529  -0.25103  -0.22963
 Alpha  occ. eigenvalues --   -0.21639  -0.19675  -0.18672  -0.16133  -0.13229
 Alpha  occ. eigenvalues --   -0.11569  -0.10729   0.04214
 Alpha virt. eigenvalues --    0.05396   0.07882   0.08597   0.08995   0.09658
 Alpha virt. eigenvalues --    0.09739   0.10628   0.11224   0.11673   0.12027
 Alpha virt. eigenvalues --    0.12593   0.12954   0.13547   0.14092   0.14699

  Beta  occ. eigenvalues --  -88.73140 -19.07490 -19.01968 -14.19642 -14.19064
  Beta  occ. eigenvalues --  -14.18936 -10.20441 -10.14054 -10.11181 -10.09048
  Beta  occ. eigenvalues --  -10.07980 -10.06448 -10.05532 -10.04689  -7.81754
  Beta  occ. eigenvalues --   -5.78117  -5.77714  -5.77169  -1.01461  -0.92932
  Beta  occ. eigenvalues --   -0.87909  -0.80822  -0.69407  -0.66880  -0.65445
  Beta  occ. eigenvalues --   -0.63457  -0.57793  -0.55322  -0.52163  -0.47036
  Beta  occ. eigenvalues --   -0.46462  -0.42934  -0.41059  -0.39532  -0.37767
  Beta  occ. eigenvalues --   -0.36686  -0.36168  -0.34487  -0.32498  -0.32100
  Beta  occ. eigenvalues --   -0.31009  -0.30502  -0.29318  -0.28932  -0.27689
  Beta  occ. eigenvalues --   -0.27436  -0.26182  -0.25284  -0.25037  -0.22642
  Beta  occ. eigenvalues --   -0.21629  -0.19208  -0.18533  -0.14088  -0.12772
  Beta  occ. eigenvalues --   -0.10335  -0.10170
  Beta virt. eigenvalues --    0.06220   0.08023   0.08625   0.09085   0.09733
  Beta virt. eigenvalues --    0.09873   0.10467   0.10778   0.11306   0.11712
  Beta virt. eigenvalues --    0.12042   0.12623   0.13039   0.13558   0.14097

 Mulliken charges and spin densities:
               1          2
     1  C    0.252007  -0.626699
     2  C   -0.070252  -0.124224
     3  O   -0.011096   0.020137
     4  C   -0.211833   0.063542
     5  O   -0.255933   0.003024
     6  C   -0.250206  -0.164243
     7  C   -0.362672  -0.111433
     8  N    0.140867  -0.031892
     9  C   -0.894917   0.059162
    10  C   -0.066126  -0.109492
    11  C    0.101898   0.271539
    12  S   -0.156872   0.147986
    13  N   -0.119283   0.273132
    14  N   -0.048036   0.087954
    15  H    0.105378   0.035874
    16  H   -0.386881   0.529011
    17  H    0.021796   0.147561
    18  H   -0.243074   0.403554
    19  H    0.159244   0.009241
    20  H    0.153289   0.021114
    21  H    0.134122   0.009694
    22  H    0.198083   0.011077
    23  H    0.125601   0.012033
    24  H    0.246620  -0.017360
    25  H    0.080400   0.080077
    26  H    0.183983  -0.011706
    27  H    0.173892   0.011340
 Sum of Mulliken charges =  -1.00000   1.00000

 Dipole moment (field-independent basis, Debye):
    X=              2.7433    Y=              0.0967    Z=             -2.0747  Tot=              3.4409
 Quadrupole moment (field-independent basis, Debye-Ang):
   XX=           -184.7284   YY=           -111.9937   ZZ=           -107.9683
   XY=             -4.2519   XZ=              9.3456   YZ=              2.5165

 Summary of Natural Population Analysis:

                                       Natural Population
                Natural  -----------------------------------------------
    Atom  No    Charge         Core      Valence    Rydberg      Total
 -----------------------------------------------------------------------
      C    1   -0.30049      0.99966     2.29578    0.00505     3.30049
      C    2   -0.01857      0.99958     2.00624    0.01274     3.01857
      O    3   -0.28746      0.99986     3.27896    0.00864     4.28746
      C    4    0.41952      0.99966     1.55478    0.02604     2.58048
      O    5   -0.31159      0.99987     3.30623    0.00549     4.31159
      C    6   -0.04927      0.99956     2.03591    0.01380     3.04927
      C    7   -0.29782      0.99964     2.29300    0.00517     3.29782
      N    8   -0.34076      0.99974     2.82849    0.01253     3.84076
      C    9   -0.09624      0.99958     2.08473    0.01193     3.09624
      C   10    0.00133      0.99948     1.98414    0.01504     2.99867
      C   11   -0.14245      0.99948     2.13180    0.01117     3.14245
      S   12    0.24044      4.99950     2.73376    0.02630     7.75956
      N   13   -0.08359      0.99982     2.56793    0.01584     3.58359
      N   14   -0.11563      0.99969     2.59372    0.02222     3.61563
      H   15    0.10031      0.00000     0.39875    0.00095     0.39969
      H   16    0.10306      0.00000     0.39544    0.00149     0.39694
      H   17    0.10567      0.00000     0.39332    0.00101     0.39433
      H   18    0.09039      0.00000     0.40837    0.00125     0.40961
      H   19    0.09418      0.00000     0.40447    0.00135     0.40582
      H   20    0.10203      0.00000     0.39647    0.00149     0.39797
      H   21    0.09923      0.00000     0.39937    0.00140     0.40077
      H   22    0.11967      0.00000     0.37845    0.00187     0.38033
      H   23    0.09588      0.00000     0.40303    0.00109     0.40412
      H   24    0.17748      0.00000     0.32038    0.00215     0.32252
      H   25    0.09493      0.00000     0.40376    0.00131     0.40507
      H   26    0.09861      0.00000     0.40005    0.00134     0.40139
      H   27    0.10111      0.00000     0.39709    0.00180     0.39889
 =======================================================================
   * Total *    0.00000     17.99512    38.79439    0.21048    57.00000

 Normal termination of Gaussian 16 at Thu Dec 10 11:33:46 2020.
