 Gaussian 16, Revision A.03,

 -----------------------------------------------------------
 # opt freq B3LYP/6-31G(d) empiricaldispersion=gd3bj scf=xqc
 -----------------------------------------------------------

 ------------------------------
 CID_89703367_JID_1889_neutraal
 ------------------------------
 Symbolic Z-matrix:
 Charge =  0 Multiplicity = 1

 SCF Done:  E(RB3LYP) =  -496.779471234     A.U. after   14 cycles
 SCF Done:  E(RB3LYP) =  -496.786452747     A.U. after   12 cycles
 SCF Done:  E(RB3LYP) =  -496.787571543     A.U. after   11 cycles
 SCF Done:  E(RB3LYP) =  -496.787727378     A.U. after   10 cycles
 SCF Done:  E(RB3LYP) =  -496.787764880     A.U. after   10 cycles
 SCF Done:  E(RB3LYP) =  -496.787773319     A.U. after    9 cycles
 SCF Done:  E(RB3LYP) =  -496.787775904     A.U. after    8 cycles
 SCF Done:  E(RB3LYP) =  -496.787777240     A.U. after    8 cycles
 SCF Done:  E(RB3LYP) =  -496.787778153     A.U. after    8 cycles
 SCF Done:  E(RB3LYP) =  -496.787778867     A.U. after    8 cycles
 SCF Done:  E(RB3LYP) =  -496.787779158     A.U. after    8 cycles
 SCF Done:  E(RB3LYP) =  -496.787779229     A.U. after    7 cycles
 Optimization completed.
    -- Stationary point found.
 Normal termination of Gaussian 16 at Tue Dec  8 21:25:39 2020.

 --------------------------------------------------------------------
 #N Geom=AllCheck Guess=TCheck SCRF=Check GenChk RB3LYP/6-31G(d) Freq
 --------------------------------------------------------------------

 Structure from the checkpoint file:  "JID_1889.chk"
 ------------------------------
 CID_89703367_JID_1889_neutraal
 ------------------------------
 Charge =  0 Multiplicity = 1

 SCF Done:  E(RB3LYP) =  -496.787779229     A.U. after    1 cycles

  Exact polarizability: 144.161  -2.042 113.158  -1.469  -1.856  51.340
 Approx polarizability: 206.656  -3.333 178.295  -2.297  -3.200  76.361

                      1                      2                      3
                      A                      A                      A
 Frequencies --     78.4890               104.1176               143.9858
 Red. masses --      3.0451                 2.7041                 3.0828
 Frc consts  --      0.0111                 0.0173                 0.0377
 IR Inten    --      6.1860                 4.2220                 1.1030

                      4                      5                      6
                      A                      A                      A
 Frequencies --    164.0704               190.1575               194.3142
 Red. masses --      1.4008                 1.9195                 1.3102
 Frc consts  --      0.0222                 0.0409                 0.0291
 IR Inten    --     46.6107                 3.5213                 9.6725

                      7                      8                      9
                      A                      A                      A
 Frequencies --    237.9816               254.3262               257.5639
 Red. masses --      2.7956                 2.1166                 1.3494
 Frc consts  --      0.0933                 0.0807                 0.0527
 IR Inten    --     13.3778                 1.1490                 0.3791

                     10                     11                     12
                      A                      A                      A
 Frequencies --    324.9799               347.3660               409.1811
 Red. masses --      3.3472                 3.4446                 5.3357
 Frc consts  --      0.2083                 0.2449                 0.5263
 IR Inten    --      0.5756                 5.4111                 2.7267

                     13                     14                     15
                      A                      A                      A
 Frequencies --    462.7899               497.5782               531.0765
 Red. masses --      3.0853                 4.5067                 4.4518
 Frc consts  --      0.3893                 0.6574                 0.7398
 IR Inten    --      9.3265                15.0645                 9.3392

                     16                     17                     18
                      A                      A                      A
 Frequencies --    586.8274               619.9328               696.5279
 Red. masses --      3.6168                 3.3611                 2.8323
 Frc consts  --      0.7338                 0.7611                 0.8096
 IR Inten    --     12.3785                14.2418                30.2274

                     19                     20                     21
                      A                      A                      A
 Frequencies --    722.6516               753.5421               792.5545
 Red. masses --      4.7326                 2.6586                 1.4128
 Frc consts  --      1.4561                 0.8895                 0.5229
 IR Inten    --     12.4046                83.6788                17.8365

                     22                     23                     24
                      A                      A                      A
 Frequencies --    818.1561               857.0538               919.8425
 Red. masses --      2.6232                 1.6486                 1.2759
 Frc consts  --      1.0345                 0.7135                 0.6361
 IR Inten    --     46.6675                55.0616                 1.1327

                     25                     26                     27
                      A                      A                      A
 Frequencies --    966.9930              1016.4677              1031.5972
 Red. masses --      2.8531                 2.1427                 2.3705
 Frc consts  --      1.5719                 1.3044                 1.4863
 IR Inten    --      3.8587                22.1092                12.0752

                     28                     29                     30
                      A                      A                      A
 Frequencies --   1075.0383              1092.6644              1161.8452
 Red. masses --      1.4606                 3.3950                 1.7293
 Frc consts  --      0.9945                 2.3881                 1.3754
 IR Inten    --      2.8573                49.5272                42.7431

                     31                     32                     33
                      A                      A                      A
 Frequencies --   1187.4500              1195.2974              1215.1496
 Red. masses --      1.2718                 1.3922                 1.4698
 Frc consts  --      1.0566                 1.1720                 1.2787
 IR Inten    --      0.7159                35.9123                56.0190

                     34                     35                     36
                      A                      A                      A
 Frequencies --   1230.4442              1242.5824              1297.1158
 Red. masses --      1.9247                 1.8980                 1.6197
 Frc consts  --      1.7169                 1.7266                 1.6056
 IR Inten    --     16.1766                93.3720                35.5814

                     37                     38                     39
                      A                      A                      A
 Frequencies --   1319.9559              1340.8166              1388.5609
 Red. masses --      3.3827                 1.3988                 4.7934
 Frc consts  --      3.4724                 1.4816                 5.4453
 IR Inten    --     86.1003                 4.6624                52.0786

                     40                     41                     42
                      A                      A                      A
 Frequencies --   1441.9438              1489.2153              1500.9684
 Red. masses --      1.2773                 2.1616                 1.3385
 Frc consts  --      1.5648                 2.8245                 1.7768
 IR Inten    --      0.0720                23.8368                12.9375

                     43                     44                     45
                      A                      A                      A
 Frequencies --   1509.9478              1519.8321              1529.6270
 Red. masses --      1.0562                 1.0483                 1.2670
 Frc consts  --      1.4187                 1.4267                 1.7466
 IR Inten    --      5.7799                 4.8719                25.3259

                     46                     47                     48
                      A                      A                      A
 Frequencies --   1538.1009              1544.5448              1566.9810
 Red. masses --      1.1024                 1.4881                 1.8163
 Frc consts  --      1.5366                 2.0916                 2.6277
 IR Inten    --     43.1668                11.7029                81.0382

                     49                     50                     51
                      A                      A                      A
 Frequencies --   1638.3626              1682.3460              1705.1219
 Red. masses --      5.6055                 5.1529                 1.1056
 Frc consts  --      8.8651                 8.5928                 1.8939
 IR Inten    --     65.0110               128.2914                54.6521

                     52                     53                     54
                      A                      A                      A
 Frequencies --   3010.1602              3022.2711              3070.0432
 Red. masses --      1.0510                 1.0348                 1.0864
 Frc consts  --      5.6108                 5.5692                 6.0331
 IR Inten    --     57.1871                57.1497                25.3610

                     55                     56                     57
                      A                      A                      A
 Frequencies --   3078.9202              3127.0244              3153.9600
 Red. masses --      1.1063                 1.0991                 1.0995
 Frc consts  --      6.1793                 6.3323                 6.4442
 IR Inten    --     47.9561                16.2299                30.9650

                     58                     59                     60
                      A                      A                      A
 Frequencies --   3177.3398              3233.7043              3243.0201
 Red. masses --      1.0892                 1.0911                 1.0897
 Frc consts  --      6.4787                 6.7220                 6.7522
 IR Inten    --     22.2220                11.4262                 1.6267

                     61                     62                     63
                      A                      A                      A
 Frequencies --   3410.3507              3496.2878              3513.0316
 Red. masses --      1.0516                 1.0881                 1.0784
 Frc consts  --      7.2061                 7.8366                 7.8414
 IR Inten    --      2.4604                 1.2237                 1.9248

 - Thermochemistry -
 -------------------
 Temperature   298.150 Kelvin.  Pressure   1.00000 Atm.
 Atom     1 has atomic number  6 and mass  12.00000

 Molecular mass:   152.09496 amu.
 Principal axes and moments of inertia in atomic units:
                           1         2         3
     Eigenvalues --  1024.496352346.107973339.27809
           X            1.00000   0.00086  -0.00016
           Y           -0.00087   0.99999  -0.00525
           Z            0.00015   0.00525   0.99999
 This molecule is an asymmetric top.
 Rotational symmetry number  1.
 Warning -- assumption of classical behavior for rotation
           may cause significant error
 Rotational temperatures (Kelvin)      0.08454     0.03692     0.02594
 Rotational constants (GHZ):           1.76159     0.76925     0.54046
 Zero-point vibrational energy     513976.4 (Joules/Mol)
                                  122.84332 (Kcal/Mol)
 Warning -- explicit consideration of  17 degrees of freedom as
           vibrations may cause significant error
 Vibrational temperatures:    112.93   149.80   207.16   236.06   273.59
          (Kelvin)            279.57   342.40   365.92   370.58   467.57
                              499.78   588.72   665.85   715.90   764.10
                              844.31   891.95  1002.15  1039.73  1084.18
                             1140.31  1177.14  1233.11  1323.45  1391.29
                             1462.47  1484.24  1546.74  1572.10  1671.64
                             1708.48  1719.77  1748.33  1770.33  1787.80
                             1866.26  1899.12  1929.14  1997.83  2074.64
                             2142.65  2159.56  2172.48  2186.70  2200.79
                             2212.98  2222.26  2254.54  2357.24  2420.52
                             2453.29  4330.95  4348.37  4417.11  4429.88
                             4499.09  4537.84  4571.48  4652.58  4665.98
                             4906.73  5030.38  5054.47

 Zero-point correction=                           0.195763 (Hartree/Particle)
 Thermal correction to Energy=                    0.206958
 Thermal correction to Enthalpy=                  0.207902
 Thermal correction to Gibbs Free Energy=         0.159300
 Sum of electronic and zero-point Energies=           -496.592016
 Sum of electronic and thermal Energies=              -496.580821
 Sum of electronic and thermal Enthalpies=            -496.579877
 Sum of electronic and thermal Free Energies=         -496.628479

                     E (Thermal)             CV                S
                      KCal/Mol        Cal/Mol-Kelvin    Cal/Mol-Kelvin
 Total                  129.868             42.014            102.292
 Electronic               0.000              0.000              0.000
 Translational            0.889              2.981             40.968
 Rotational               0.889              2.981             30.463
 Vibrational            128.091             36.052             30.861
 Vibration     1          0.600              1.964              3.928
 Vibration     2          0.605              1.946              3.376
 Vibration     3          0.616              1.909              2.750
 Vibration     4          0.623              1.887              2.502
 Vibration     5          0.633              1.853              2.226
 Vibration     6          0.635              1.848              2.186
 Vibration     7          0.656              1.782              1.818
 Vibration     8          0.665              1.755              1.700
 Vibration     9          0.667              1.750              1.678
 Vibration    10          0.709              1.626              1.285
 Vibration    11          0.725              1.581              1.178
 Vibration    12          0.774              1.450              0.930
 Vibration    13          0.820              1.333              0.758
 Vibration    14          0.853              1.255              0.664
 Vibration    15          0.886              1.181              0.585
 Vibration    16          0.944              1.060              0.473
 Vibration    17          0.980              0.990              0.417

                           ! Non-Optimized Parameters !
 Normal termination of Gaussian 16 at Tue Dec  8 21:30:23 2020.

 ----------------------------------------------------------------------
 # B3LYP/6-311++G(d,p) empiricaldispersion=gd3bj scf=xqc pop=npa geom=c
 heck
 ----------------------------------------------------------------------

 --------------------------------------
 CID_89703367_JID_1889_Energie_neutraal
 --------------------------------------
 Structure from the checkpoint file:  "JID_1889.chk"
 Charge =  0 Multiplicity = 1

 SCF Done:  E(RB3LYP) =  -496.934725928     A.U. after   14 cycles
 Normal termination of Gaussian 16 at Tue Dec  8 21:32:20 2020.

 ----------------------------------------------------------------------
 # B3LYP/6-311++G(d,p) empiricaldispersion=gd3bj scf=xqc pop=npa geom=c
 heck
 ----------------------------------------------------------------------

 ------------------------------------
 CID_89703367_JID_1889_Energie_kation
 ------------------------------------
 Structure from the checkpoint file:  "JID_1889.chk"
 Charge =  1 Multiplicity = 2

 SCF Done:  E(UB3LYP) =  -496.669517852     A.U. after   23 cycles
 Normal termination of Gaussian 16 at Tue Dec  8 21:39:42 2020.
 Gaussian 16:  ES64L-G16RevA.03 25-Dec-2016

 ----------------------------------------------------------------------
 # B3LYP/6-311++G(d,p) empiricaldispersion=gd3bj scf=xqc pop=npa geom=c
 heck
 ----------------------------------------------------------------------

 -----------------------------------
 CID_89703367_JID_1889_Energie_anion
 -----------------------------------
 Structure from the checkpoint file:  "JID_1889.chk"
 Charge = -1 Multiplicity = 2

                         Standard orientation:
 ---------------------------------------------------------------------
 Center     Atomic      Atomic             Coordinates (Angstroms)
 Number     Number       Type             X           Y           Z
 ---------------------------------------------------------------------
      1          6           0        2.419027    1.914505    0.010744
      2          6           0        1.099066    1.189348    0.000003
      3          6           0        1.061542   -0.227700    0.005939
      4          6           0       -0.158548   -0.900619    0.000915
      5          6           0       -1.360813   -0.181321    0.008629
      6          6           0       -1.347954    1.213396    0.007718
      7          6           0       -0.111506    1.870223   -0.001723
      8          8           0       -2.494238   -0.947483    0.006006
      9          6           0       -3.740578   -0.276465   -0.021081
     10          7           0        2.292878   -0.910138    0.093549
     11          7           0        2.199364   -2.352615   -0.117921
     12          1           0        3.055468    1.569514    0.835429
     13          1           0        2.989627    1.756382   -0.917651
     14          1           0        2.271762    2.993286    0.116307
     15          1           0       -0.206577   -1.980651   -0.050362
     16          1           0       -2.263779    1.790970    0.017740
     17          1           0       -0.096603    2.957723   -0.003157
     18          1           0       -3.880420    0.352725    0.868298
     19          1           0       -3.843536    0.347608   -0.918932
     20          1           0       -4.503430   -1.057196   -0.033977
     21          1           0        2.945680   -0.553365   -0.600590
     22          1           0        3.159493   -2.674765    0.022547
     23          1           0        1.719113   -2.691298    0.720039
 ---------------------------------------------------------------------

 SCF Done:  E(UB3LYP) =  -496.920481773     A.U. after   33 cycles
 SCF Done:  E(UB3LYP) =  -496.920481773     a.u. after    1 cycles

 The electronic state is 2-A.
 Alpha  occ. eigenvalues --  -19.05095 -14.23916 -14.22523 -10.12739 -10.12338
 Alpha  occ. eigenvalues --  -10.10439 -10.06969 -10.06902 -10.06495 -10.06038
 Alpha  occ. eigenvalues --  -10.05669  -0.96684  -0.87317  -0.75506  -0.69618
 Alpha  occ. eigenvalues --   -0.66780  -0.62608  -0.60953  -0.56352  -0.50128
 Alpha  occ. eigenvalues --   -0.48508  -0.44261  -0.40836  -0.38910  -0.36987
 Alpha  occ. eigenvalues --   -0.36519  -0.35459  -0.33933  -0.32477  -0.31450
 Alpha  occ. eigenvalues --   -0.30818  -0.29465  -0.28371  -0.26385  -0.25870
 Alpha  occ. eigenvalues --   -0.25552  -0.22940  -0.21033  -0.15813  -0.12044
 Alpha  occ. eigenvalues --   -0.09226   0.04445
 Alpha virt. eigenvalues --    0.05819   0.07125   0.08240   0.08938   0.09668
 Alpha virt. eigenvalues --    0.09842   0.10569   0.10728   0.11297   0.11943
 Alpha virt. eigenvalues --    0.12485   0.13090   0.13895   0.15100   0.15484

  Beta  occ. eigenvalues --  -19.05088 -14.23884 -14.22463 -10.12739 -10.12302
  Beta  occ. eigenvalues --  -10.10439 -10.06966 -10.06895 -10.06466 -10.06029
  Beta  occ. eigenvalues --  -10.05662  -0.96669  -0.87247  -0.75474  -0.69537
  Beta  occ. eigenvalues --   -0.66747  -0.62562  -0.60901  -0.56302  -0.50094
  Beta  occ. eigenvalues --   -0.48460  -0.44217  -0.40776  -0.38871  -0.36963
  Beta  occ. eigenvalues --   -0.36477  -0.35390  -0.33878  -0.32445  -0.31418
  Beta  occ. eigenvalues --   -0.30768  -0.29434  -0.28336  -0.26360  -0.25842
  Beta  occ. eigenvalues --   -0.25520  -0.22914  -0.21013  -0.15786  -0.12028
  Beta  occ. eigenvalues --   -0.09192
  Beta virt. eigenvalues --    0.06611   0.07239   0.07911   0.08887   0.09433
  Beta virt. eigenvalues --    0.09921   0.10351   0.11098   0.11250   0.11382
  Beta virt. eigenvalues --    0.12206   0.12891   0.13350   0.14177   0.15360

 Mulliken charges and spin densities:
               1          2
     1  C    2.640169  -3.256661
     2  C    0.267610   1.390088
     3  C   -2.446750   1.825628
     4  C   -0.584570  -0.441626
     5  C    0.989407  -1.281636
     6  C    0.334729  -0.066433
     7  C   -0.296929  -0.401501
     8  O   -0.218203   0.055579
     9  C    0.623598  -0.939553
    10  N   -0.137783   0.067380
    11  N   -0.046071  -0.302513
    12  H   -0.141985   0.321047
    13  H   -0.200006   0.362880
    14  H   -0.058188   0.197516
    15  H    0.199157  -0.010718
    16  H   -0.147989   0.312697
    17  H   -0.269518   0.394548
    18  H   -0.168187   0.319366
    19  H   -0.140715   0.293837
    20  H   -0.423086   0.590980
    21  H   -0.242328   0.514089
    22  H   -0.392735   0.672340
    23  H   -0.139627   0.382667
 Sum of Mulliken charges =  -1.00000   1.00000

 Dipole moment (field-independent basis, Debye):
    X=             -2.6120    Y=              2.2456    Z=              0.3980  Tot=              3.4675
 Quadrupole moment (field-independent basis, Debye-Ang):
   XX=           -144.2305   YY=           -107.2981   ZZ=            -92.5560
   XY=              8.4184   XZ=              1.1434   YZ=             -1.0083

 Summary of Natural Population Analysis:

                                       Natural Population
                Natural  -----------------------------------------------
    Atom  No    Charge         Core      Valence    Rydberg      Total
 -----------------------------------------------------------------------
      C    1   -0.29544      0.99964     2.28986    0.00594     3.29544
      C    2   -0.04473      0.99948     2.03454    0.01071     3.04473
      C    3    0.08896      0.99945     1.89840    0.01318     2.91104
      C    4   -0.14804      0.99948     2.13933    0.00923     3.14804
      C    5    0.16667      0.99939     1.82153    0.01242     2.83333
      C    6   -0.16353      0.99952     2.15524    0.00877     3.16353
      C    7   -0.08602      0.99953     2.07723    0.00925     3.08602
      O    8   -0.27517      0.99986     3.26530    0.01002     4.27517
      C    9   -0.10078      0.99960     2.09181    0.00936     3.10078
      N   10   -0.23441      0.99968     2.71982    0.01491     3.73441
      N   11   -0.32262      0.99978     2.81032    0.01252     3.82262
      H   12    0.10705      0.00000     0.39135    0.00160     0.39295
      H   13    0.10044      0.00000     0.39799    0.00156     0.39956
      H   14    0.10122      0.00000     0.39775    0.00103     0.39878
      H   15    0.11199      0.00000     0.38625    0.00176     0.38801
      H   16    0.10405      0.00000     0.39460    0.00135     0.39595
      H   17    0.09668      0.00000     0.40233    0.00099     0.40332
      H   18    0.08389      0.00000     0.41442    0.00169     0.41611
      H   19    0.08419      0.00000     0.41417    0.00164     0.41581
      H   20    0.09260      0.00000     0.40621    0.00119     0.40740
      H   21    0.18293      0.00000     0.31226    0.00481     0.31707
      H   22    0.17946      0.00000     0.31272    0.00782     0.32054
      H   23    0.17061      0.00000     0.32683    0.00256     0.32939
 =======================================================================
   * Total *   -0.00000     10.99541    29.86026    0.14433    41.00000

 Normal termination of Gaussian 16 at Tue Dec  8 21:47:37 2020.
