 Gaussian 16, Revision A.03,

 -----------------------------------------------------------
 # opt freq B3LYP/6-31G(d) empiricaldispersion=gd3bj scf=xqc
 -----------------------------------------------------------

 -------------------------------
 CID_139640499_JID_3042_neutraal
 -------------------------------
 Symbolic Z-matrix:
 Charge =  0 Multiplicity = 1

 SCF Done:  E(RB3LYP) =  -611.341123033     A.U. after   14 cycles
 SCF Done:  E(RB3LYP) =  -611.346426353     A.U. after   12 cycles
 SCF Done:  E(RB3LYP) =  -611.347471255     A.U. after   11 cycles
 SCF Done:  E(RB3LYP) =  -611.347950936     A.U. after   12 cycles
 SCF Done:  E(RB3LYP) =  -611.348208449     A.U. after   11 cycles
 SCF Done:  E(RB3LYP) =  -611.348489423     A.U. after   11 cycles
 SCF Done:  E(RB3LYP) =  -611.348923385     A.U. after   12 cycles
 SCF Done:  E(RB3LYP) =  -611.349014676     A.U. after   11 cycles
 SCF Done:  E(RB3LYP) =  -611.349100549     A.U. after   10 cycles
 SCF Done:  E(RB3LYP) =  -611.349128005     A.U. after   10 cycles
 SCF Done:  E(RB3LYP) =  -611.349135599     A.U. after    7 cycles
 SCF Done:  E(RB3LYP) =  -611.349135283     A.U. after    9 cycles
 SCF Done:  E(RB3LYP) =  -611.349135848     A.U. after    8 cycles
 SCF Done:  E(RB3LYP) =  -611.349135987     A.U. after    7 cycles
 SCF Done:  E(RB3LYP) =  -611.349136045     A.U. after    7 cycles
 Optimization completed.
    -- Stationary point found.
 Normal termination of Gaussian 16 at Wed Dec  9 22:25:13 2020.

 --------------------------------------------------------------------
 #N Geom=AllCheck Guess=TCheck SCRF=Check GenChk RB3LYP/6-31G(d) Freq
 --------------------------------------------------------------------

 Structure from the checkpoint file:  "JID_3042.chk"
 -------------------------------
 CID_139640499_JID_3042_neutraal
 -------------------------------
 Charge =  0 Multiplicity = 1

 SCF Done:  E(RB3LYP) =  -611.349136045     A.U. after    1 cycles

  Exact polarizability: 161.538  -4.511 118.367  -3.631  -1.502  70.544
 Approx polarizability: 226.653  -1.267 191.460 -10.452  -9.402 102.371

                      1                      2                      3
                      A                      A                      A
 Frequencies --     43.4181                74.5122                97.7361
 Red. masses --      2.6493                 3.1558                 3.4123
 Frc consts  --      0.0029                 0.0103                 0.0192
 IR Inten    --      1.1320                 1.2946                 0.7572

                      4                      5                      6
                      A                      A                      A
 Frequencies --    110.9813               135.6457               171.2275
 Red. masses --      2.8410                 2.9256                 1.2160
 Frc consts  --      0.0206                 0.0317                 0.0210
 IR Inten    --      4.0553                 3.2301                 0.6440

                      7                      8                      9
                      A                      A                      A
 Frequencies --    176.2488               204.6197               218.4916
 Red. masses --      1.1355                 1.2449                 2.1364
 Frc consts  --      0.0208                 0.0307                 0.0601
 IR Inten    --      0.1292                 0.7798                 4.7907

                     10                     11                     12
                      A                      A                      A
 Frequencies --    235.9399               276.9612               321.3876
 Red. masses --      4.0344                 4.0016                 3.1122
 Frc consts  --      0.1323                 0.1808                 0.1894
 IR Inten    --      0.6958                 0.9157                 6.8545

                     13                     14                     15
                      A                      A                      A
 Frequencies --    332.3442               356.7349               385.6900
 Red. masses --      4.5870                 4.0239                 4.1007
 Frc consts  --      0.2985                 0.3017                 0.3594
 IR Inten    --      3.9139                 8.2210                 8.1096

                     16                     17                     18
                      A                      A                      A
 Frequencies --    440.4868               479.4320               515.1247
 Red. masses --      4.5190                 5.8371                 3.6938
 Frc consts  --      0.5166                 0.7905                 0.5775
 IR Inten    --      3.1428                 1.7361                 0.8593

                     19                     20                     21
                      A                      A                      A
 Frequencies --    528.0507               636.3870               684.9726
 Red. masses --      4.8208                 2.9329                 2.9439
 Frc consts  --      0.7920                 0.6998                 0.8138
 IR Inten    --      5.7838                14.9406                45.1570

                     22                     23                     24
                      A                      A                      A
 Frequencies --    703.6651               719.2669               742.4268
 Red. masses --      4.1112                 1.3686                 4.0781
 Frc consts  --      1.1994                 0.4172                 1.3244
 IR Inten    --      7.2090                24.7481                 5.9845

                     25                     26                     27
                      A                      A                      A
 Frequencies --    756.1422               801.2329               836.2272
 Red. masses --      4.3945                 1.5938                 2.4187
 Frc consts  --      1.4804                 0.6029                 0.9965
 IR Inten    --     22.4224                48.0851               121.3253

                     28                     29                     30
                      A                      A                      A
 Frequencies --    843.8832               849.2006               892.7322
 Red. masses --      1.3434                 1.7848                 1.4185
 Frc consts  --      0.5637                 0.7583                 0.6661
 IR Inten    --      7.9394                58.0400                 6.9635

                     31                     32                     33
                      A                      A                      A
 Frequencies --   1009.5694              1045.6776              1063.3460
 Red. masses --      3.2421                 4.7366                 2.3655
 Frc consts  --      1.9470                 3.0515                 1.5758
 IR Inten    --     26.8641                40.1151                13.9556

                     34                     35                     36
                      A                      A                      A
 Frequencies --   1157.8501              1161.2221              1164.5841
 Red. masses --      1.7889                 1.5938                 2.1622
 Frc consts  --      1.4130                 1.2662                 1.7278
 IR Inten    --     93.7404                51.5673                31.6583

                     37                     38                     39
                      A                      A                      A
 Frequencies --   1166.9829              1189.6705              1190.3830
 Red. masses --      1.4292                 1.6420                 1.3244
 Frc consts  --      1.1468                 1.3692                 1.1057
 IR Inten    --      7.9224                37.3025                 2.7801

                     40                     41                     42
                      A                      A                      A
 Frequencies --   1222.2819              1225.8939              1236.4367
 Red. masses --      1.8462                 1.7004                 1.7422
 Frc consts  --      1.6250                 1.5056                 1.5693
 IR Inten    --      0.8489               137.5127                16.3231

                     43                     44                     45
                      A                      A                      A
 Frequencies --   1268.1499              1322.5902              1361.7913
 Red. masses --      1.9504                 3.9540                 2.8957
 Frc consts  --      1.8480                 4.0750                 3.1639
 IR Inten    --     50.8053                57.5737               112.4568

                     46                     47                     48
                      A                      A                      A
 Frequencies --   1383.2958              1452.9436              1471.7434
 Red. masses --      3.4273                 1.5751                 1.3228
 Frc consts  --      3.8639                 1.9590                 1.6881
 IR Inten    --     75.0502                 9.3439                 3.5323

                     49                     50                     51
                      A                      A                      A
 Frequencies --   1475.3459              1485.9585              1502.5964
 Red. masses --      1.2016                 1.2525                 1.2441
 Frc consts  --      1.5410                 1.6295                 1.6549
 IR Inten    --     17.6778                 6.6986                 8.7983

                     52                     53                     54
                      A                      A                      A
 Frequencies --   1513.5151              1515.9070              1521.5283
 Red. masses --      1.0672                 1.3445                 1.0587
 Frc consts  --      1.4404                 1.8204                 1.4441
 IR Inten    --     10.4277                58.2267                 8.3704

                     55                     56                     57
                      A                      A                      A
 Frequencies --   1536.5044              1542.6175              1545.3868
 Red. masses --      1.2982                 1.0530                 1.1383
 Frc consts  --      1.8057                 1.4764                 1.6018
 IR Inten    --      2.9133                 4.0508                12.1979

                     58                     59                     60
                      A                      A                      A
 Frequencies --   1560.5213              1567.6190              1653.0689
 Red. masses --      1.3314                 2.0946                 4.5177
 Frc consts  --      1.9103                 3.0327                 7.2737
 IR Inten    --    115.6477               147.8861                33.1760

                     61                     62                     63
                      A                      A                      A
 Frequencies --   1683.1411              3002.6224              3010.6926
 Red. masses --      6.2256                 1.0563                 1.0483
 Frc consts  --     10.3914                 5.6112                 5.5986
 IR Inten    --     36.0072                96.8408                68.3465

                     64                     65                     66
                      A                      A                      A
 Frequencies --   3031.8846              3095.3648              3103.6768
 Red. masses --      1.0351                 1.0865                 1.1010
 Frc consts  --      5.6059                 6.1334                 6.2489
 IR Inten    --     65.8822                44.5814                20.0951

                     67                     68                     69
                      A                      A                      A
 Frequencies --   3106.7588              3135.3556              3145.9960
 Red. masses --      1.0836                 1.1043                 1.1046
 Frc consts  --      6.1620                 6.3962                 6.4414
 IR Inten    --     54.2585                28.3559                32.8967

                     70                     71                     72
                      A                      A                      A
 Frequencies --   3176.1977              3193.4051              3195.4353
 Red. masses --      1.0989                 1.0903                 1.0910
 Frc consts  --      6.5314                 6.5507                 6.5633
 IR Inten    --      3.9224                15.5326                 0.2881

                     73                     74                     75
                      A                      A                      A
 Frequencies --   3502.9682              3512.4894              3538.8497
 Red. masses --      1.0730                 1.0645                 1.0745
 Frc consts  --      7.7578                 7.7376                 7.9285
 IR Inten    --     10.1774               130.9252                 2.6780

 - Thermochemistry -
 -------------------
 Temperature   298.150 Kelvin.  Pressure   1.00000 Atm.
 Atom     1 has atomic number  6 and mass  12.00000

 Molecular mass:   182.10553 amu.
 Principal axes and moments of inertia in atomic units:
                           1         2         3
     Eigenvalues --  1327.985973480.307104300.16724
           X            0.99973  -0.02191   0.00795
           Y            0.02173   0.99953   0.02183
           Z           -0.00842  -0.02165   0.99973
 This molecule is an asymmetric top.
 Rotational symmetry number  1.
 Warning -- assumption of classical behavior for rotation
           may cause significant error
 Rotational temperatures (Kelvin)      0.06522     0.02489     0.02014
 Rotational constants (GHZ):           1.35901     0.51856     0.41969
 Zero-point vibrational energy     601249.0 (Joules/Mol)
                                  143.70197 (Kcal/Mol)
 Warning -- explicit consideration of  19 degrees of freedom as
           vibrations may cause significant error
 Vibrational temperatures:     62.47   107.21   140.62   159.68   195.16
          (Kelvin)            246.36   253.58   294.40   314.36   339.46
                              398.49   462.41   478.17   513.26   554.92
                              633.76   689.80   741.15   759.75   915.62
                              985.52  1012.42  1034.86  1068.19  1087.92
                             1152.80  1203.14  1214.16  1221.81  1284.44
                             1452.55  1504.50  1529.92  1665.89  1670.74
                             1675.58  1679.03  1711.67  1712.70  1758.59
                             1763.79  1778.96  1824.58  1902.91  1959.31
                             1990.25  2090.46  2117.51  2122.69  2137.96
                             2161.90  2177.61  2181.05  2189.14  2210.69
                             2219.48  2223.47  2245.24  2255.45  2378.40
                             2421.66  4320.10  4331.72  4362.21  4453.54
                             4465.50  4469.93  4511.08  4526.39  4569.84
                             4594.60  4597.52  5039.99  5053.69  5091.62

 Zero-point correction=                           0.229004 (Hartree/Particle)
 Thermal correction to Energy=                    0.242578
 Thermal correction to Enthalpy=                  0.243522
 Thermal correction to Gibbs Free Energy=         0.188945
 Sum of electronic and zero-point Energies=           -611.120132
 Sum of electronic and thermal Energies=              -611.106558
 Sum of electronic and thermal Enthalpies=            -611.105614
 Sum of electronic and thermal Free Energies=         -611.160191

                     E (Thermal)             CV                S
                      KCal/Mol        Cal/Mol-Kelvin    Cal/Mol-Kelvin
 Total                  152.220             50.278            114.868
 Electronic               0.000              0.000              0.000
 Translational            0.889              2.981             41.505
 Rotational               0.889              2.981             31.364
 Vibrational            150.443             44.316             42.000
 Vibration     1          0.595              1.980              5.097
 Vibration     2          0.599              1.966              4.030
 Vibration     3          0.603              1.951              3.499
 Vibration     4          0.607              1.940              3.252
 Vibration     5          0.613              1.918              2.864
 Vibration     6          0.626              1.878              2.422
 Vibration     7          0.628              1.872              2.368
 Vibration     8          0.640              1.833              2.091
 Vibration     9          0.646              1.813              1.972
 Vibration    10          0.655              1.786              1.833
 Vibration    11          0.678              1.716              1.552
 Vibration    12          0.707              1.633              1.303
 Vibration    13          0.714              1.611              1.249
 Vibration    14          0.732              1.561              1.136
 Vibration    15          0.754              1.501              1.017
 Vibration    16          0.800              1.382              0.825
 Vibration    17          0.836              1.296              0.712
 Vibration    18          0.870              1.216              0.621
 Vibration    19          0.883              1.188              0.592

 Optimization completed.
    -- Stationary point found.
 Normal termination of Gaussian 16 at Wed Dec  9 22:31:57 2020.

 ----------------------------------------------------------------------
 # B3LYP/6-311++G(d,p) empiricaldispersion=gd3bj scf=xqc pop=npa geom=c
 heck
 ----------------------------------------------------------------------

 ---------------------------------------
 CID_139640499_JID_3042_Energie_neutraal
 ---------------------------------------
 Structure from the checkpoint file:  "JID_3042.chk"
 Charge =  0 Multiplicity = 1

 SCF Done:  E(RB3LYP) =  -611.533539135     A.U. after   15 cycles
 Normal termination of Gaussian 16 at Wed Dec  9 22:34:28 2020.

 ----------------------------------------------------------------------
 # B3LYP/6-311++G(d,p) empiricaldispersion=gd3bj scf=xqc pop=npa geom=c
 heck
 ----------------------------------------------------------------------

 -------------------------------------
 CID_139640499_JID_3042_Energie_kation
 -------------------------------------
 Structure from the checkpoint file:  "JID_3042.chk"
 Charge =  1 Multiplicity = 2

 SCF Done:  E(UB3LYP) =  -611.265395021     A.U. after   22 cycles
 Normal termination of Gaussian 16 at Wed Dec  9 22:39:29 2020.
 Gaussian 16:  ES64L-G16RevA.03 25-Dec-2016

 ----------------------------------------------------------------------
 # B3LYP/6-311++G(d,p) empiricaldispersion=gd3bj scf=xqc pop=npa geom=c
 heck
 ----------------------------------------------------------------------

 ------------------------------------
 CID_139640499_JID_3042_Energie_anion
 ------------------------------------
 Structure from the checkpoint file:  "JID_3042.chk"
 Charge = -1 Multiplicity = 2

                         Standard orientation:
 ---------------------------------------------------------------------
 Center     Atomic      Atomic             Coordinates (Angstroms)
 Number     Number       Type             X           Y           Z
 ---------------------------------------------------------------------
      1          6           0       -3.186705    0.977093    1.146044
      2          7           0       -2.369383    1.253999   -0.040136
      3          6           0       -1.061163    0.733851   -0.073605
      4          6           0        0.033975    1.583502   -0.283815
      5          6           0        1.329029    1.075566   -0.362295
      6          6           0        1.561453   -0.299734   -0.196867
      7          6           0        0.474532   -1.149712    0.001681
      8          6           0       -0.826061   -0.654783    0.043876
      9          8           0       -1.867563   -1.552448    0.211896
     10          6           0       -2.631818   -1.763065   -0.978439
     11          7           0        2.938465   -0.710963   -0.246570
     12          6           0        3.514240   -1.011589    1.072799
     13          8           0        2.383391    1.903010   -0.580255
     14          1           0       -2.750503    1.384516    2.071965
     15          1           0       -3.295846   -0.100740    1.266391
     16          1           0       -4.176655    1.419174    0.999033
     17          1           0       -2.351490    2.250110   -0.234235
     18          1           0       -0.115980    2.654783   -0.384909
     19          1           0        0.619649   -2.220867    0.113781
     20          1           0       -3.092342   -0.830253   -1.321711
     21          1           0       -1.997908   -2.172178   -1.776247
     22          1           0       -3.407642   -2.488610   -0.721752
     23          1           0        3.048611   -1.514629   -0.860678
     24          1           0        2.980308   -1.809145    1.611931
     25          1           0        4.562357   -1.304329    0.951649
     26          1           0        3.476995   -0.106556    1.686262
     27          1           0        3.145360    1.286214   -0.663937
 ---------------------------------------------------------------------

 SCF Done:  E(UB3LYP) =  -611.520195348     A.U. after   33 cycles
 SCF Done:  E(UB3LYP) =  -611.520195348     a.u. after    1 cycles

 The electronic state is 2-A.
 Alpha  occ. eigenvalues --  -19.04065 -19.03595 -14.21733 -14.21451 -10.12459
 Alpha  occ. eigenvalues --  -10.11431 -10.11391 -10.10641 -10.09049 -10.09026
 Alpha  occ. eigenvalues --  -10.08910 -10.06912 -10.06418  -0.95658  -0.95022
 Alpha  occ. eigenvalues --   -0.82578  -0.81535  -0.72921  -0.64630  -0.63404
 Alpha  occ. eigenvalues --   -0.58936  -0.57856  -0.55185  -0.52006  -0.48623
 Alpha  occ. eigenvalues --   -0.44519  -0.42442  -0.39686  -0.38781  -0.37738
 Alpha  occ. eigenvalues --   -0.35850  -0.34903  -0.34829  -0.33344  -0.32363
 Alpha  occ. eigenvalues --   -0.31860  -0.31654  -0.30588  -0.29598  -0.28314
 Alpha  occ. eigenvalues --   -0.28050  -0.25593  -0.24762  -0.22882  -0.18519
 Alpha  occ. eigenvalues --   -0.17419  -0.15255  -0.12637  -0.10015   0.04395
 Alpha virt. eigenvalues --    0.05958   0.07467   0.08025   0.08626   0.09004
 Alpha virt. eigenvalues --    0.09345   0.09560   0.10590   0.10741   0.11672
 Alpha virt. eigenvalues --    0.12138   0.12458   0.12937   0.13179   0.13764

  Beta  occ. eigenvalues --  -19.04058 -19.03593 -14.21725 -14.21430 -10.12459
  Beta  occ. eigenvalues --  -10.11440 -10.11370 -10.10597 -10.09019 -10.08979
  Beta  occ. eigenvalues --  -10.08872 -10.06885 -10.06397  -0.95643  -0.95018
  Beta  occ. eigenvalues --   -0.82525  -0.81470  -0.72879  -0.64580  -0.63345
  Beta  occ. eigenvalues --   -0.58875  -0.57783  -0.55113  -0.51934  -0.48591
  Beta  occ. eigenvalues --   -0.44482  -0.42386  -0.39651  -0.38729  -0.37668
  Beta  occ. eigenvalues --   -0.35826  -0.34859  -0.34783  -0.33296  -0.32315
  Beta  occ. eigenvalues --   -0.31817  -0.31608  -0.30548  -0.29552  -0.28276
  Beta  occ. eigenvalues --   -0.27995  -0.25565  -0.24726  -0.22802  -0.18449
  Beta  occ. eigenvalues --   -0.17360  -0.15224  -0.12533  -0.09919
  Beta virt. eigenvalues --    0.06641   0.07367   0.07855   0.08412   0.08935
  Beta virt. eigenvalues --    0.09579   0.09659   0.10195   0.10749   0.11180
  Beta virt. eigenvalues --    0.11945   0.12409   0.12739   0.13100   0.13272

 Mulliken charges and spin densities:
               1          2
     1  C    0.602561  -0.962579
     2  N   -0.255212   0.181600
     3  C    1.201875  -0.853949
     4  C   -0.860292   0.916808
     5  C    0.049190  -0.542002
     6  C    0.882870  -1.192873
     7  C   -0.704232   1.132170
     8  C   -0.273936  -0.497570
     9  O   -0.149089   0.008512
    10  C    0.191681  -0.489240
    11  N   -0.509050   0.261448
    12  C    0.723315  -1.091268
    13  O   -0.286335  -0.004031
    14  H   -0.148974   0.268528
    15  H    0.203118  -0.018254
    16  H   -0.478504   0.632129
    17  H   -0.023056   0.268421
    18  H   -0.080166   0.231175
    19  H   -0.239172   0.427996
    20  H   -0.005255   0.180211
    21  H   -0.115874   0.240977
    22  H   -0.006756   0.144274
    23  H   -0.303003   0.599622
    24  H   -0.091119   0.222714
    25  H   -0.599316   0.751071
    26  H   -0.013043   0.165049
    27  H    0.287774   0.019060
 Sum of Mulliken charges =  -1.00000   1.00000

 Dipole moment (field-independent basis, Debye):
    X=             -2.0961    Y=              1.2254    Z=              0.3021  Tot=              2.4467
 Quadrupole moment (field-independent basis, Debye-Ang):
   XX=           -160.8945   YY=           -118.9760   ZZ=           -105.6308
   XY=             17.9263   XZ=              3.2129   YZ=             -1.1711

 Summary of Natural Population Analysis:

                                       Natural Population
                Natural  -----------------------------------------------
    Atom  No    Charge         Core      Valence    Rydberg      Total
 -----------------------------------------------------------------------
      C    1   -0.17928      0.99963     2.17112    0.00853     3.17928
      N    2   -0.32357      0.99970     2.81109    0.01278     3.82357
      C    3    0.07901      0.99944     1.90975    0.01180     2.92099
      C    4   -0.13927      0.99950     2.13181    0.00797     3.13927
      C    5    0.15968      0.99934     1.82788    0.01310     2.84032
      C    6    0.03537      0.99943     1.95358    0.01162     2.96463
      C    7   -0.10894      0.99947     2.09943    0.01004     3.10894
      C    8    0.12223      0.99933     1.86510    0.01334     2.87777
      O    9   -0.29543      0.99987     3.28586    0.00970     4.29543
      C   10   -0.09891      0.99959     2.09145    0.00787     3.09891
      N   11   -0.35703      0.99973     2.84149    0.01581     3.85703
      C   12   -0.17402      0.99964     2.16579    0.00859     3.17402
      O   13   -0.34856      0.99988     3.34214    0.00654     4.34856
      H   14    0.08221      0.00000     0.41635    0.00143     0.41779
      H   15    0.10283      0.00000     0.39556    0.00161     0.39717
      H   16    0.09470      0.00000     0.40345    0.00185     0.40530
      H   17    0.17786      0.00000     0.31886    0.00329     0.32214
      H   18    0.10109      0.00000     0.39743    0.00148     0.39891
      H   19    0.10712      0.00000     0.39153    0.00135     0.39288
      H   20    0.09100      0.00000     0.40726    0.00174     0.40900
      H   21    0.08197      0.00000     0.41640    0.00163     0.41803
      H   22    0.08519      0.00000     0.41344    0.00137     0.41481
      H   23    0.18709      0.00000     0.30460    0.00831     0.31291
      H   24    0.08395      0.00000     0.41450    0.00154     0.41605
      H   25    0.09711      0.00000     0.40018    0.00272     0.40289
      H   26    0.09212      0.00000     0.40676    0.00112     0.40788
      H   27    0.24448      0.00000     0.25207    0.00345     0.25552
 =======================================================================
   * Total *   -0.00000     12.99457    35.83489    0.17055    49.00000

 Normal termination of Gaussian 16 at Wed Dec  9 22:46:46 2020.
