 Gaussian 16, Revision A.03,

 -----------------------------------------------------------
 # opt freq B3LYP/6-31G(d) empiricaldispersion=gd3bj scf=xqc
 -----------------------------------------------------------

 -------------------------------
 CID_128380771_JID_7315_neutraal
 -------------------------------
 Symbolic Z-matrix:
 Charge =  0 Multiplicity = 1

 SCF Done:  E(RB3LYP) =  -1136.03831634     A.U. after   15 cycles
 SCF Done:  E(RB3LYP) =  -1136.04519741     A.U. after   13 cycles
 SCF Done:  E(RB3LYP) =  -1136.04617851     A.U. after   12 cycles
 SCF Done:  E(RB3LYP) =  -1136.04637131     A.U. after   12 cycles
 SCF Done:  E(RB3LYP) =  -1136.04643125     A.U. after   12 cycles
 SCF Done:  E(RB3LYP) =  -1136.04646670     A.U. after   11 cycles
 SCF Done:  E(RB3LYP) =  -1136.04647942     A.U. after   11 cycles
 SCF Done:  E(RB3LYP) =  -1136.04648591     A.U. after    9 cycles
 SCF Done:  E(RB3LYP) =  -1136.04649313     A.U. after   10 cycles
 SCF Done:  E(RB3LYP) =  -1136.04649990     A.U. after   10 cycles
 SCF Done:  E(RB3LYP) =  -1136.04655211     A.U. after   10 cycles
 SCF Done:  E(RB3LYP) =  -1136.04655310     A.U. after    9 cycles
 SCF Done:  E(RB3LYP) =  -1136.04655415     A.U. after    8 cycles
 SCF Done:  E(RB3LYP) =  -1136.04655458     A.U. after    8 cycles
 SCF Done:  E(RB3LYP) =  -1136.04655460     A.U. after    7 cycles
 Optimization completed.
    -- Stationary point found.
 Normal termination of Gaussian 16 at Fri Dec 11 12:09:43 2020.

 --------------------------------------------------------------------
 #N Geom=AllCheck Guess=TCheck SCRF=Check GenChk RB3LYP/6-31G(d) Freq
 --------------------------------------------------------------------

 Structure from the checkpoint file:  "JID_7315.chk"
 -------------------------------
 CID_128380771_JID_7315_neutraal
 -------------------------------
 Charge =  0 Multiplicity = 1

 SCF Done:  E(RB3LYP) =  -1136.04655460     A.U. after    1 cycles

  Exact polarizability: 194.439 -19.000 174.794  -4.218  -7.283  99.595
 Approx polarizability: 281.025 -32.305 303.062  -9.786 -10.508 160.047

                      1                      2                      3
                      A                      A                      A
 Frequencies --     37.8845                46.9479                61.2286
 Red. masses --      8.2141                 4.9356                 1.1372
 Frc consts  --      0.0069                 0.0064                 0.0025
 IR Inten    --      0.9105                 0.8821                 0.6218

                      4                      5                      6
                      A                      A                      A
 Frequencies --     71.7483               114.3876               128.8780
 Red. masses --      3.1662                 5.0492                 3.6219
 Frc consts  --      0.0096                 0.0389                 0.0354
 IR Inten    --      0.9504                 6.3373                 1.3110

                      7                      8                      9
                      A                      A                      A
 Frequencies --    167.4966               195.0810               222.0198
 Red. masses --      3.5317                 3.8099                 3.8243
 Frc consts  --      0.0584                 0.0854                 0.1111
 IR Inten    --      3.6645                 4.7674                 6.2860

                     10                     11                     12
                      A                      A                      A
 Frequencies --    253.2641               296.1856               311.9776
 Red. masses --      5.8413                 5.1181                 3.8029
 Frc consts  --      0.2208                 0.2645                 0.2181
 IR Inten    --      7.3889                 0.6224                 2.3445

                     13                     14                     15
                      A                      A                      A
 Frequencies --    359.7473               374.9609               402.7013
 Red. masses --      4.1977                 3.0646                 1.7216
 Frc consts  --      0.3201                 0.2539                 0.1645
 IR Inten    --      1.7537                 8.1338                98.4153

                     16                     17                     18
                      A                      A                      A
 Frequencies --    422.8163               423.9261               442.5788
 Red. masses --      4.0700                 2.4204                 4.3068
 Frc consts  --      0.4287                 0.2563                 0.4970
 IR Inten    --      5.0157                22.8328                22.5131

                     19                     20                     21
                      A                      A                      A
 Frequencies --    461.4025               519.2918               548.4420
 Red. masses --      4.7677                 4.8205                 3.6887
 Frc consts  --      0.5980                 0.7659                 0.6537
 IR Inten    --      0.3446                 2.4656                 3.9750

                     22                     23                     24
                      A                      A                      A
 Frequencies --    594.6890               643.6712               660.7193
 Red. masses --      4.0112                 3.8375                 3.6066
 Frc consts  --      0.8358                 0.9368                 0.9277
 IR Inten    --      2.3909                10.6786                 0.7132

                     25                     26                     27
                      A                      A                      A
 Frequencies --    681.1675               695.9111               700.1083
 Red. masses --      3.1058                 5.9506                 5.1373
 Frc consts  --      0.8490                 1.6979                 1.4836
 IR Inten    --      9.1010                 3.7594                 3.3794

                     28                     29                     30
                      A                      A                      A
 Frequencies --    736.8379               741.8369               788.4004
 Red. masses --      3.9951                 7.4313                 3.2207
 Frc consts  --      1.2780                 2.4095                 1.1795
 IR Inten    --      7.2086                 2.8365                 4.9138

                     31                     32                     33
                      A                      A                      A
 Frequencies --    820.1922               831.4295               863.7302
 Red. masses --      1.7299                 3.9894                 1.8956
 Frc consts  --      0.6857                 1.6248                 0.8332
 IR Inten    --     37.0851                11.1337                 3.4323

                     34                     35                     36
                      A                      A                      A
 Frequencies --    896.6707               951.3851               975.9880
 Red. masses --      6.6903                 1.8892                 1.2725
 Frc consts  --      3.1693                 1.0075                 0.7142
 IR Inten    --      2.1255                22.5490                 0.9511

                     37                     38                     39
                      A                      A                      A
 Frequencies --    987.0926               997.2229              1009.8928
 Red. masses --      1.5002                 2.2843                 2.7100
 Frc consts  --      0.8612                 1.3384                 1.6285
 IR Inten    --      6.7576                 3.2104                 0.7283

                     40                     41                     42
                      A                      A                      A
 Frequencies --   1024.5373              1063.0018              1080.6755
 Red. masses --      1.9389                 4.4898                 1.5365
 Frc consts  --      1.1991                 2.9892                 1.0573
 IR Inten    --      3.8685                 6.4664                 2.3129

                     43                     44                     45
                      A                      A                      A
 Frequencies --   1083.1833              1084.5727              1104.4102
 Red. masses --      6.4390                 4.5700                 2.7593
 Frc consts  --      4.4512                 3.1673                 1.9829
 IR Inten    --    140.4244                 6.0200                10.1447

                     46                     47                     48
                      A                      A                      A
 Frequencies --   1148.8273              1158.7172              1186.2390
 Red. masses --      1.1677                 1.3510                 1.5319
 Frc consts  --      0.9080                 1.0687                 1.2701
 IR Inten    --      1.8408                 9.7221                 0.6225

                     49                     50                     51
                      A                      A                      A
 Frequencies --   1217.0626              1223.4277              1244.0076
 Red. masses --      2.1049                 1.8415                 1.3757
 Frc consts  --      1.8370                 1.6240                 1.2543
 IR Inten    --     37.0291                44.1800                22.5431

                     52                     53                     54
                      A                      A                      A
 Frequencies --   1300.1428              1307.0313              1335.7704
 Red. masses --      1.5318                 2.4858                 2.1270
 Frc consts  --      1.5255                 2.5020                 2.2361
 IR Inten    --     33.6249                61.4853                 7.1462

                     55                     56                     57
                      A                      A                      A
 Frequencies --   1345.5091              1366.2778              1380.2028
 Red. masses --      1.4074                 1.3116                 4.7695
 Frc consts  --      1.5012                 1.4425                 5.3532
 IR Inten    --     11.6473                 1.7417                49.5343

                     58                     59                     60
                      A                      A                      A
 Frequencies --   1387.0041              1416.6889              1419.4893
 Red. masses --      3.2504                 1.9469                 1.6182
 Frc consts  --      3.6842                 2.3023                 1.9211
 IR Inten    --      7.1044                99.0967                19.1015

                     61                     62                     63
                      A                      A                      A
 Frequencies --   1434.2811              1486.8894              1500.7328
 Red. masses --      1.7508                 1.1060                 1.5962
 Frc consts  --      2.1220                 1.4407                 2.1181
 IR Inten    --      2.8733                10.7246                81.0745

                     64                     65                     66
                      A                      A                      A
 Frequencies --   1502.0647              1507.3139              1517.5722
 Red. masses --      1.2990                 1.0444                 1.1212
 Frc consts  --      1.7268                 1.3981                 1.5213
 IR Inten    --     14.3023                 6.4233                11.5938

                     67                     68                     69
                      A                      A                      A
 Frequencies --   1526.3632              1538.8251              1564.0561
 Red. masses --      2.3125                 2.7047                 2.1481
 Frc consts  --      3.1743                 3.7736                 3.0961
 IR Inten    --     30.0914               158.0572                 1.7820

                     70                     71                     72
                      A                      A                      A
 Frequencies --   1613.3496              1687.2896              3064.8750
 Red. masses --      4.7438                 7.1881                 1.0372
 Frc consts  --      7.2750                12.0571                 5.7405
 IR Inten    --    210.6730                33.8265                19.3471

                     73                     74                     75
                      A                      A                      A
 Frequencies --   3074.3582              3094.5362              3097.2580
 Red. masses --      1.0735                 1.0807                 1.0570
 Frc consts  --      5.9781                 6.0973                 5.9745
 IR Inten    --     12.8606                37.8492                12.2061

                     76                     77                     78
                      A                      A                      A
 Frequencies --   3098.7680              3121.2360              3149.3582
 Red. masses --      1.0586                 1.1012                 1.0974
 Frc consts  --      5.9889                 6.3206                 6.4132
 IR Inten    --      6.6591                10.7595                10.9217

                     79                     80                     81
                      A                      A                      A
 Frequencies --   3161.4487              3162.8851              3163.9640
 Red. masses --      1.1093                 1.1019                 1.1098
 Frc consts  --      6.5325                 6.4944                 6.5459
 IR Inten    --      9.7142                 6.8542                 5.9374

                     82                     83                     84
                      A                      A                      A
 Frequencies --   3208.0026              3240.8845              3620.0365
 Red. masses --      1.0902                 1.0953                 1.0768
 Frc consts  --      6.6103                 6.7782                 8.3141
 IR Inten    --      3.7152                 1.9305                30.2328

 - Thermochemistry -
 -------------------
 Temperature   298.150 Kelvin.  Pressure   1.00000 Atm.
 Atom     1 has atomic number  6 and mass  12.00000

 Molecular mass:   251.08408 amu.
 Principal axes and moments of inertia in atomic units:
                           1         2         3
     Eigenvalues --  2459.072446781.603848429.64849
           X            0.99961  -0.02718  -0.00569
           Y            0.02707   0.99947  -0.01793
           Z            0.00618   0.01777   0.99982
 This molecule is an asymmetric top.
 Rotational symmetry number  1.
 Warning -- assumption of classical behavior for rotation
           may cause significant error
 Rotational temperatures (Kelvin)      0.03522     0.01277     0.01027
 Rotational constants (GHZ):           0.73391     0.26612     0.21409
 Zero-point vibrational energy     624767.9 (Joules/Mol)
                                  149.32312 (Kcal/Mol)
 Warning -- explicit consideration of  22 degrees of freedom as
           vibrations may cause significant error
 Vibrational temperatures:     54.51    67.55    88.09   103.23   164.58
          (Kelvin)            185.43   240.99   280.68   319.44   364.39
                              426.15   448.87   517.60   539.49   579.40
                              608.34   609.94   636.77   663.86   747.15
                              789.09   855.62   926.10   950.63   980.05
                             1001.26  1007.30  1060.15  1067.34  1134.33
                             1180.07  1196.24  1242.72  1290.11  1368.83
                             1404.23  1420.21  1434.78  1453.01  1474.08
                             1529.42  1554.85  1558.46  1560.46  1589.00
                             1652.91  1667.14  1706.73  1751.08  1760.24
                             1789.85  1870.62  1880.53  1921.88  1935.89
                             1965.77  1985.80  1995.59  2038.30  2042.33
                             2063.61  2139.30  2159.22  2161.14  2168.69
                             2183.45  2196.10  2214.03  2250.33  2321.25
                             2427.63  4409.67  4423.32  4452.35  4456.26
                             4458.44  4490.76  4531.22  4548.62  4550.69
                             4552.24  4615.60  4662.91  5208.43

 Zero-point correction=                           0.237962 (Hartree/Particle)
 Thermal correction to Energy=                    0.252907
 Thermal correction to Enthalpy=                  0.253851
 Thermal correction to Gibbs Free Energy=         0.194688
 Sum of electronic and zero-point Energies=          -1135.808593
 Sum of electronic and thermal Energies=             -1135.793648
 Sum of electronic and thermal Enthalpies=           -1135.792704
 Sum of electronic and thermal Free Energies=        -1135.851867

                     E (Thermal)             CV                S
                      KCal/Mol        Cal/Mol-Kelvin    Cal/Mol-Kelvin
 Total                  158.701             57.566            124.518
 Electronic               0.000              0.000              0.000
 Translational            0.889              2.981             42.462
 Rotational               0.889              2.981             33.308
 Vibrational            156.924             51.604             48.748
 Vibration     1          0.594              1.982              5.367
 Vibration     2          0.595              1.979              4.942
 Vibration     3          0.597              1.973              4.417
 Vibration     4          0.598              1.967              4.105
 Vibration     5          0.607              1.938              3.193
 Vibration     6          0.611              1.924              2.963
 Vibration     7          0.624              1.882              2.463
 Vibration     8          0.636              1.847              2.179
 Vibration     9          0.648              1.808              1.943
 Vibration    10          0.664              1.757              1.708
 Vibration    11          0.690              1.681              1.438
 Vibration    12          0.700              1.651              1.352
 Vibration    13          0.734              1.555              1.123
 Vibration    14          0.746              1.523              1.059
 Vibration    15          0.768              1.464              0.953
 Vibration    16          0.785              1.421              0.882
 Vibration    17          0.786              1.418              0.879
 Vibration    18          0.802              1.377              0.819
 Vibration    19          0.819              1.336              0.762
 Vibration    20          0.874              1.207              0.612
 Vibration    21          0.904              1.143              0.547
 Vibration    22          0.952              1.043              0.459

 Optimization completed.
    -- Stationary point found.
 Normal termination of Gaussian 16 at Fri Dec 11 12:21:36 2020.

 ----------------------------------------------------------------------
 # B3LYP/6-311++G(d,p) empiricaldispersion=gd3bj scf=xqc pop=npa geom=c
 heck
 ----------------------------------------------------------------------

 ---------------------------------------
 CID_128380771_JID_7315_Energie_neutraal
 ---------------------------------------
 Structure from the checkpoint file:  "JID_7315.chk"
 Charge =  0 Multiplicity = 1

 SCF Done:  E(RB3LYP) =  -1136.27457876     A.U. after   16 cycles
 Normal termination of Gaussian 16 at Fri Dec 11 12:27:42 2020.

 ----------------------------------------------------------------------
 # B3LYP/6-311++G(d,p) empiricaldispersion=gd3bj scf=xqc pop=npa geom=c
 heck
 ----------------------------------------------------------------------

 -------------------------------------
 CID_128380771_JID_7315_Energie_kation
 -------------------------------------
 Structure from the checkpoint file:  "JID_7315.chk"
 Charge =  1 Multiplicity = 2

 SCF Done:  E(UB3LYP) =  -1135.98360224     A.U. after   27 cycles
 Normal termination of Gaussian 16 at Fri Dec 11 12:42:27 2020.
 Gaussian 16:  ES64L-G16RevA.03 25-Dec-2016

 ----------------------------------------------------------------------
 # B3LYP/6-311++G(d,p) empiricaldispersion=gd3bj scf=xqc pop=npa geom=c
 heck
 ----------------------------------------------------------------------

 ------------------------------------
 CID_128380771_JID_7315_Energie_anion
 ------------------------------------
 Structure from the checkpoint file:  "JID_7315.chk"
 Charge = -1 Multiplicity = 2

                         Standard orientation:
 ---------------------------------------------------------------------
 Center     Atomic      Atomic             Coordinates (Angstroms)
 Number     Number       Type             X           Y           Z
 ---------------------------------------------------------------------
      1          6           0        4.175505   -2.578466    0.168780
      2          6           0        3.352271   -1.338675    0.064186
      3          7           0        2.025909   -1.357755    0.292644
      4          7           0        1.686570   -0.073119    0.096586
      5          6           0        2.801443    0.672704   -0.239291
      6          7           0        3.870119   -0.127828   -0.261941
      7          6           0        2.597338    2.051238   -0.474036
      8          6           0        1.327915    2.541190   -0.349028
      9          6           0        0.255609    1.651954    0.004919
     10          7           0        0.421698    0.356277    0.214913
     11          7           0       -1.011881    2.165675    0.174439
     12          6           0       -2.209981    1.334465    0.297553
     13          6           0       -2.212806    0.431414    1.576111
     14          6           0       -2.342195   -1.030884    1.153335
     15         16           0       -3.461061   -1.004235   -0.319112
     16          8           0       -3.201905   -2.199750   -1.205568
     17          6           0       -2.477118    0.441810   -0.930557
     18          1           0        4.669769   -2.792039   -0.784924
     19          1           0        3.544661   -3.426936    0.441470
     20          1           0        4.959380   -2.456684    0.923966
     21          1           0        3.440942    2.677187   -0.740907
     22          1           0        1.114945    3.593748   -0.505867
     23          1           0       -1.157986    3.065053   -0.261361
     24          1           0       -3.027277    2.054159    0.390241
     25          1           0       -3.055617    0.721996    2.211704
     26          1           0       -1.299375    0.582928    2.152864
     27          1           0       -2.779135   -1.675181    1.919602
     28          1           0       -1.388960   -1.445181    0.813655
     29          1           0       -1.556499    0.012129   -1.333556
     30          1           0       -3.027428    0.951338   -1.724862
 ---------------------------------------------------------------------

 SCF Done:  E(UB3LYP) =  -1136.29122630     A.U. after   33 cycles
 SCF Done:  E(UB3LYP) =  -1136.29122630     a.u. after    1 cycles

 The electronic state is 2-A.
 Alpha  occ. eigenvalues --  -88.83964 -18.97924 -14.28082 -14.21829 -14.19499
 Alpha  occ. eigenvalues --  -14.19241 -14.16167 -10.12569 -10.11787 -10.09860
 Alpha  occ. eigenvalues --  -10.09330 -10.09245 -10.09164 -10.08095 -10.06026
 Alpha  occ. eigenvalues --  -10.03880 -10.03590  -7.91700  -5.87979  -5.87822
 Alpha  occ. eigenvalues --   -5.87301  -0.96480  -0.90820  -0.85868  -0.81443
 Alpha  occ. eigenvalues --   -0.74929  -0.73059  -0.67865  -0.65945  -0.63443
 Alpha  occ. eigenvalues --   -0.61686  -0.59187  -0.52455  -0.52211  -0.49233
 Alpha  occ. eigenvalues --   -0.48387  -0.46067  -0.42961  -0.40244  -0.39215
 Alpha  occ. eigenvalues --   -0.37347  -0.36506  -0.36241  -0.34671  -0.33099
 Alpha  occ. eigenvalues --   -0.32045  -0.30954  -0.30253  -0.29816  -0.28921
 Alpha  occ. eigenvalues --   -0.28559  -0.27770  -0.27624  -0.26211  -0.25508
 Alpha  occ. eigenvalues --   -0.24762  -0.24013  -0.21394  -0.20677  -0.17707
 Alpha  occ. eigenvalues --   -0.16210  -0.16142  -0.14155  -0.12947  -0.11748
 Alpha  occ. eigenvalues --   -0.09674   0.03559
 Alpha virt. eigenvalues --    0.05658   0.07583   0.08512   0.08966   0.09454
 Alpha virt. eigenvalues --    0.10313   0.10795   0.11597   0.11755   0.12102
 Alpha virt. eigenvalues --    0.12374   0.12704   0.13111   0.13528   0.13878

  Beta  occ. eigenvalues --  -88.83963 -18.97921 -14.27753 -14.21801 -14.19491
  Beta  occ. eigenvalues --  -14.18850 -14.16076 -10.12558 -10.11811 -10.09943
  Beta  occ. eigenvalues --  -10.09324 -10.09239 -10.09163 -10.08076 -10.06029
  Beta  occ. eigenvalues --  -10.03639 -10.03163  -7.91700  -5.87979  -5.87821
  Beta  occ. eigenvalues --   -5.87301  -0.96063  -0.90811  -0.85650  -0.81227
  Beta  occ. eigenvalues --   -0.74737  -0.73008  -0.67495  -0.65439  -0.63398
  Beta  occ. eigenvalues --   -0.61605  -0.59060  -0.52284  -0.51623  -0.49199
  Beta  occ. eigenvalues --   -0.48137  -0.45975  -0.42853  -0.40143  -0.39075
  Beta  occ. eigenvalues --   -0.37166  -0.36337  -0.35495  -0.34493  -0.33066
  Beta  occ. eigenvalues --   -0.31961  -0.30706  -0.30135  -0.29761  -0.28788
  Beta  occ. eigenvalues --   -0.28382  -0.27725  -0.27550  -0.26047  -0.25311
  Beta  occ. eigenvalues --   -0.24682  -0.23698  -0.21163  -0.19333  -0.17234
  Beta  occ. eigenvalues --   -0.15986  -0.15824  -0.13944  -0.12891  -0.10390
  Beta  occ. eigenvalues --   -0.08608
  Beta virt. eigenvalues --    0.06141   0.07762   0.08496   0.08915   0.09448
  Beta virt. eigenvalues --    0.09814   0.10412   0.10799   0.11669   0.11772
  Beta virt. eigenvalues --    0.12191   0.12351   0.12772   0.13075   0.13622

 Mulliken charges and spin densities:
               1          2
     1  C   -0.528476  -0.008046
     2  C    0.148418  -0.009632
     3  N    0.009675   0.013035
     4  N    0.810797  -0.053236
     5  C   -0.145777  -0.095206
     6  N   -0.091179   0.035894
     7  C   -0.343592   0.297463
     8  C   -0.049165   0.079409
     9  C   -0.255417  -0.102200
    10  N   -0.782352   0.323895
    11  N   -0.023463   0.011754
    12  C    0.171366  -0.195650
    13  C    0.057885  -0.243600
    14  C   -0.733752  -0.022348
    15  S    0.357570  -0.017133
    16  O   -0.431379  -0.001176
    17  C   -0.609006  -0.086789
    18  H    0.139158   0.002845
    19  H    0.141670   0.000031
    20  H    0.137865   0.001340
    21  H    0.142932  -0.027107
    22  H   -0.021531   0.113590
    23  H    0.064973   0.208149
    24  H   -0.265652   0.473626
    25  H   -0.016827   0.179858
    26  H    0.177483   0.035089
    27  H    0.187721   0.004909
    28  H    0.321646   0.002154
    29  H    0.326719  -0.002711
    30  H    0.101689   0.081794
 Sum of Mulliken charges =  -1.00000   1.00000

 Dipole moment (field-independent basis, Debye):
    X=             -2.5726    Y=              1.3270    Z=              2.0394  Tot=              3.5409
 Quadrupole moment (field-independent basis, Debye-Ang):
   XX=           -163.7434   YY=           -138.2892   ZZ=           -120.7322
   XY=             -9.7413   XZ=             -3.9379   YZ=             -7.4667

 Summary of Natural Population Analysis:

                                       Natural Population
                Natural  -----------------------------------------------
    Atom  No    Charge         Core      Valence    Rydberg      Total
 -----------------------------------------------------------------------
      C    1   -0.30100      0.99963     2.29688    0.00449     3.30100
      C    2    0.16622      0.99969     1.81636    0.01773     2.83378
      N    3   -0.17388      0.99970     2.66307    0.01111     3.67388
      N    4    0.03758      0.99960     2.44912    0.01370     3.46242
      C    5    0.14972      0.99957     1.83583    0.01488     2.85028
      N    6   -0.27400      0.99968     2.76184    0.01249     3.77400
      C    7   -0.01816      0.99953     2.01027    0.00835     3.01816
      C    8   -0.09194      0.99954     2.08235    0.01004     3.09194
      C    9    0.18339      0.99957     1.80131    0.01572     2.81661
      N   10   -0.12850      0.99964     2.61626    0.01259     3.62850
      N   11   -0.31512      0.99966     2.80337    0.01209     3.81512
      C   12   -0.01648      0.99958     1.99969    0.01720     3.01648
      C   13   -0.20539      0.99961     2.19454    0.01124     3.20539
      C   14   -0.27690      0.99960     2.26586    0.01144     3.27690
      S   15    0.56702      4.99945     2.37621    0.05732     7.43298
      O   16   -0.48167      0.99993     3.47548    0.00626     4.48167
      C   17   -0.28179      0.99958     2.26959    0.01262     3.28179
      H   18    0.10138      0.00000     0.39761    0.00101     0.39862
      H   19    0.10500      0.00000     0.39418    0.00081     0.39500
      H   20    0.10064      0.00000     0.39833    0.00103     0.39936
      H   21    0.09568      0.00000     0.40295    0.00137     0.40432
      H   22    0.09314      0.00000     0.40594    0.00092     0.40686
      H   23    0.18912      0.00000     0.30856    0.00232     0.31088
      H   24    0.09841      0.00000     0.39950    0.00209     0.40159
      H   25    0.09652      0.00000     0.40205    0.00143     0.40348
      H   26    0.12189      0.00000     0.37696    0.00115     0.37811
      H   27    0.10214      0.00000     0.39674    0.00112     0.39786
      H   28    0.12827      0.00000     0.37017    0.00156     0.37173
      H   29    0.12526      0.00000     0.37326    0.00148     0.37474
      H   30    0.10345      0.00000     0.39490    0.00166     0.39655
 =======================================================================
   * Total *   -0.00000     20.99357    44.73920    0.26723    66.00000

 Normal termination of Gaussian 16 at Fri Dec 11 13:00:49 2020.
