 Gaussian 16, Revision A.03,

 -----------------------------------------------------------
 # opt freq B3LYP/6-31G(d) empiricaldispersion=gd3bj scf=xqc
 -----------------------------------------------------------

 ------------------------------
 CID_11225875_JID_7947_neutraal
 ------------------------------
 Symbolic Z-matrix:
 Charge =  0 Multiplicity = 1

 SCF Done:  E(RB3LYP) =  -727.694261210     A.U. after   14 cycles
 SCF Done:  E(RB3LYP) =  -727.700659014     A.U. after   12 cycles
 SCF Done:  E(RB3LYP) =  -727.701247981     A.U. after   12 cycles
 SCF Done:  E(RB3LYP) =  -727.702396565     A.U. after   11 cycles
 SCF Done:  E(RB3LYP) =  -727.702863502     A.U. after   12 cycles
 SCF Done:  E(RB3LYP) =  -727.703187157     A.U. after   12 cycles
 SCF Done:  E(RB3LYP) =  -727.703286327     A.U. after   11 cycles
 SCF Done:  E(RB3LYP) =  -727.703407003     A.U. after   11 cycles
 SCF Done:  E(RB3LYP) =  -727.703442481     A.U. after   10 cycles
 SCF Done:  E(RB3LYP) =  -727.703450971     A.U. after   10 cycles
 SCF Done:  E(RB3LYP) =  -727.703453632     A.U. after    9 cycles
 SCF Done:  E(RB3LYP) =  -727.703454266     A.U. after    8 cycles
 SCF Done:  E(RB3LYP) =  -727.703454533     A.U. after    8 cycles
 SCF Done:  E(RB3LYP) =  -727.703454672     A.U. after    7 cycles
 SCF Done:  E(RB3LYP) =  -727.703454679     A.U. after    7 cycles
 Optimization completed.
    -- Stationary point found.
 Normal termination of Gaussian 16 at Fri Dec 11 13:20:07 2020.

 --------------------------------------------------------------------
 #N Geom=AllCheck Guess=TCheck SCRF=Check GenChk RB3LYP/6-31G(d) Freq
 --------------------------------------------------------------------

 Structure from the checkpoint file:  "JID_7947.chk"
 ------------------------------
 CID_11225875_JID_7947_neutraal
 ------------------------------
 Charge =  0 Multiplicity = 1

 SCF Done:  E(RB3LYP) =  -727.703454679     A.U. after    1 cycles

  Exact polarizability: 207.907  26.618 153.550  16.073 -13.054 130.969
 Approx polarizability: 272.802  45.165 225.642  26.809 -35.830 219.586

                      1                      2                      3
                      A                      A                      A
 Frequencies --     14.6261                29.6843                35.9963
 Red. masses --      4.8540                 3.9552                 3.1580
 Frc consts  --      0.0006                 0.0021                 0.0024
 IR Inten    --      0.0911                 1.5533                 0.1426

                      4                      5                      6
                      A                      A                      A
 Frequencies --     81.8019                92.8217               122.2110
 Red. masses --      4.0184                 3.5437                 3.7382
 Frc consts  --      0.0158                 0.0180                 0.0329
 IR Inten    --      1.4710                 0.0674                 0.9070

                      7                      8                      9
                      A                      A                      A
 Frequencies --    156.6807               189.7543               205.2029
 Red. masses --      3.7006                 4.0799                 1.0546
 Frc consts  --      0.0535                 0.0866                 0.0262
 IR Inten    --      2.9038                 3.0597                25.2856

                     10                     11                     12
                      A                      A                      A
 Frequencies --    235.1355               244.4620               259.1884
 Red. masses --      2.3252                 1.8293                 2.2309
 Frc consts  --      0.0757                 0.0644                 0.0883
 IR Inten    --      6.3924                 0.2177                 3.9341

                     13                     14                     15
                      A                      A                      A
 Frequencies --    327.2269               341.7508               364.0758
 Red. masses --      2.6031                 3.2237                 4.1093
 Frc consts  --      0.1642                 0.2218                 0.3209
 IR Inten    --      0.7419                 5.1536                 4.1929

                     16                     17                     18
                      A                      A                      A
 Frequencies --    378.5298               395.2757               406.9954
 Red. masses --      1.9981                 2.0522                 2.6977
 Frc consts  --      0.1687                 0.1889                 0.2633
 IR Inten    --      1.7859                 1.2165                 0.3537

                     19                     20                     21
                      A                      A                      A
 Frequencies --    428.3026               455.9462               468.3312
 Red. masses --      4.0490                 2.8358                 2.8594
 Frc consts  --      0.4376                 0.3473                 0.3695
 IR Inten    --      2.2061                22.4169                 0.2542

                     22                     23                     24
                      A                      A                      A
 Frequencies --    493.7835               524.2793               554.8728
 Red. masses --      2.1013                 2.0473                 2.4121
 Frc consts  --      0.3019                 0.3316                 0.4376
 IR Inten    --     29.0389                14.6957                29.6917

                     25                     26                     27
                      A                      A                      A
 Frequencies --    602.9491               621.2699               667.2853
 Red. masses --      1.9494                 2.0526                 7.3258
 Frc consts  --      0.4175                 0.4668                 1.9219
 IR Inten    --    153.2052                 5.3855                 5.6556

                     28                     29                     30
                      A                      A                      A
 Frequencies --    706.7004               747.6859               754.6007
 Red. masses --      1.4506                 2.6561                 5.0734
 Frc consts  --      0.4268                 0.8748                 1.7021
 IR Inten    --    324.7015                 3.4289                24.8717

                     31                     32                     33
                      A                      A                      A
 Frequencies --    804.8812               812.6322               826.6106
 Red. masses --      2.1592                 2.0406                 1.7292
 Frc consts  --      0.8242                 0.7940                 0.6961
 IR Inten    --      5.2845                10.7697                43.8239

                     34                     35                     36
                      A                      A                      A
 Frequencies --    832.2932               855.9802               874.3250
 Red. masses --      1.4888                 2.5681                 2.6919
 Frc consts  --      0.6076                 1.1086                 1.2124
 IR Inten    --      0.6219                 1.2043                 4.2972

                     37                     38                     39
                      A                      A                      A
 Frequencies --    879.9103               884.7007               913.6162
 Red. masses --      1.5860                 3.5158                 1.4104
 Frc consts  --      0.7235                 1.6213                 0.6936
 IR Inten    --      4.3136                 3.0975                 9.8825

                     40                     41                     42
                      A                      A                      A
 Frequencies --    916.1030               939.7470               985.9019
 Red. masses --      2.2951                 1.3050                 1.4521
 Frc consts  --      1.1349                 0.6790                 0.8316
 IR Inten    --      0.4882                 1.4033                 2.1655

                     43                     44                     45
                      A                      A                      A
 Frequencies --    993.1254              1014.3711              1035.9603
 Red. masses --      1.6286                 2.0804                 2.7315
 Frc consts  --      0.9464                 1.2612                 1.7272
 IR Inten    --      2.4984                17.9104                11.0248

                     46                     47                     48
                      A                      A                      A
 Frequencies --   1051.9412              1060.7582              1083.9686
 Red. masses --      1.8974                 2.2150                 1.5915
 Frc consts  --      1.2371                 1.4684                 1.1017
 IR Inten    --     13.4656                 3.9324                 1.3125

                     49                     50                     51
                      A                      A                      A
 Frequencies --   1109.7247              1118.5091              1131.2400
 Red. masses --      2.2215                 1.6524                 2.3817
 Frc consts  --      1.6119                 1.2180                 1.7958
 IR Inten    --      1.8683                 2.3947                 7.9756

                     52                     53                     54
                      A                      A                      A
 Frequencies --   1150.1933              1167.4502              1179.5978
 Red. masses --      2.1944                 1.9290                 1.1939
 Frc consts  --      1.7105                 1.5491                 0.9788
 IR Inten    --     32.4480                 8.9400                11.2311

                     55                     56                     57
                      A                      A                      A
 Frequencies --   1186.8201              1210.6059              1230.9969
 Red. masses --      1.2043                 2.2336                 1.4770
 Frc consts  --      0.9994                 1.9287                 1.3187
 IR Inten    --      5.7838                30.6568                15.4966

                     58                     59                     60
                      A                      A                      A
 Frequencies --   1251.5662              1292.0491              1303.4404
 Red. masses --      1.3312                 2.0736                 1.2447
 Frc consts  --      1.2286                 2.0395                 1.2459
 IR Inten    --     25.0541                31.9660                 6.2236

                     61                     62                     63
                      A                      A                      A
 Frequencies --   1311.9236              1316.2290              1323.7551
 Red. masses --      1.2595                 2.1001                 1.4597
 Frc consts  --      1.2772                 2.1436                 1.5070
 IR Inten    --     11.6508                81.3953                43.3666

                     64                     65                     66
                      A                      A                      A
 Frequencies --   1350.7206              1359.0570              1364.6324
 Red. masses --      1.7402                 1.5130                 2.9729
 Frc consts  --      1.8706                 1.6465                 3.2618
 IR Inten    --     26.5986                 7.1309                40.7615

                     67                     68                     69
                      A                      A                      A
 Frequencies --   1369.0576              1373.7551              1399.6515
 Red. masses --      1.3858                 1.3302                 1.4244
 Frc consts  --      1.5303                 1.4790                 1.6441
 IR Inten    --      7.3555                 0.1900                 1.5526

                     70                     71                     72
                      A                      A                      A
 Frequencies --   1401.4972              1403.9641              1406.4491
 Red. masses --      1.4007                 1.4230                 1.4204
 Frc consts  --      1.6210                 1.6526                 1.6554
 IR Inten    --     15.9389                 3.8993                38.8187

                     73                     74                     75
                      A                      A                      A
 Frequencies --   1422.8660              1431.5357              1447.0789
 Red. masses --      1.4123                 1.3833                 1.3860
 Frc consts  --      1.6846                 1.6702                 1.7100
 IR Inten    --      2.9408                29.0252                 8.6379

                     76                     77                     78
                      A                      A                      A
 Frequencies --   1469.3627              1499.4812              1502.9515
 Red. masses --      2.4310                 1.3177                 1.3935
 Frc consts  --      3.0924                 1.7456                 1.8546
 IR Inten    --     69.9130                29.9176                11.3818

                     79                     80                     81
                      A                      A                      A
 Frequencies --   1505.4622              1513.3171              1514.8192
 Red. masses --      1.1187                 1.0917                 1.1560
 Frc consts  --      1.4938                 1.4730                 1.5629
 IR Inten    --      0.2966                 4.9339                29.9576

                     82                     83                     84
                      A                      A                      A
 Frequencies --   1520.5296              1524.1701              1537.7384
 Red. masses --      1.1012                 1.1104                 1.1083
 Frc consts  --      1.5001                 1.5198                 1.5442
 IR Inten    --     11.1763                 4.9531                 1.2421

                     85                     86                     87
                      A                      A                      A
 Frequencies --   1551.9137              1569.6298              1635.5319
 Red. masses --      1.1031                 2.5347                 5.0580
 Frc consts  --      1.5654                 3.6794                 7.9717
 IR Inten    --     55.2809               380.6692                28.7646

                     88                     89                     90
                      A                      A                      A
 Frequencies --   1678.1648              1695.6069              2895.7668
 Red. masses --      2.8935                 1.4207                 1.0731
 Frc consts  --      4.8012                 2.4066                 5.3019
 IR Inten    --     69.4764                21.7806                67.5248

                     91                     92                     93
                      A                      A                      A
 Frequencies --   2939.5491              2962.8850              3013.4762
 Red. masses --      1.0722                 1.0752                 1.0690
 Frc consts  --      5.4588                 5.5612                 5.7198
 IR Inten    --    111.9276                79.6128                23.9610

                     94                     95                     96
                      A                      A                      A
 Frequencies --   3020.3079              3028.1462              3041.4902
 Red. masses --      1.0674                 1.0710                 1.0619
 Frc consts  --      5.7369                 5.7862                 5.7879
 IR Inten    --     29.2716                89.0085                23.3934

                     97                     98                     99
                      A                      A                      A
 Frequencies --   3043.6539              3063.9554              3074.4002
 Red. masses --      1.0609                 1.0854                 1.0916
 Frc consts  --      5.7904                 6.0035                 6.0793
 IR Inten    --     25.0145                57.3446                12.2502

                    100                    101                    102
                      A                      A                      A
 Frequencies --   3075.5486              3084.6524              3090.1620
 Red. masses --      1.0930                 1.1050                 1.1049
 Frc consts  --      6.0911                 6.1949                 6.2165
 IR Inten    --     64.8129                25.3170                74.7955

                    103                    104                    105
                      A                      A                      A
 Frequencies --   3099.4060              3102.6685              3107.3374
 Red. masses --      1.0926                 1.0868                 1.0899
 Frc consts  --      6.1837                 6.1640                 6.2004
 IR Inten    --     16.3955                13.6582                81.0796

                    106                    107                    108
                      A                      A                      A
 Frequencies --   3140.6380              3178.4880              3224.0555
 Red. masses --      1.0895                 1.0895                 1.0918
 Frc consts  --      6.3314                 6.4851                 6.6866
 IR Inten    --     50.6245                21.7950                16.2891

                    109                    110                    111
                      A                      A                      A
 Frequencies --   3525.7148              3571.0741              3620.8959
 Red. masses --      1.0484                 1.0749                 1.0965
 Frc consts  --      7.6781                 8.0765                 8.4703
 IR Inten    --      4.4698                14.8717                 5.1395

 - Thermochemistry -
 -------------------
 Temperature   298.150 Kelvin.  Pressure   1.00000 Atm.
 Atom     1 has atomic number  6 and mass  12.00000

 Molecular mass:   234.18445 amu.
 Principal axes and moments of inertia in atomic units:
                           1         2         3
     Eigenvalues --  2133.820548185.340889390.42296
           X            1.00000  -0.00022   0.00101
           Y            0.00022   1.00000   0.00065
           Z           -0.00101  -0.00065   1.00000
 This molecule is an asymmetric top.
 Rotational symmetry number  1.
 Warning -- assumption of classical behavior for rotation
           may cause significant error
 Rotational temperatures (Kelvin)      0.04059     0.01058     0.00922
 Rotational constants (GHZ):           0.84578     0.22048     0.19219
 Zero-point vibrational energy     917006.8 (Joules/Mol)
                                  219.16989 (Kcal/Mol)
 Warning -- explicit consideration of  25 degrees of freedom as
           vibrations may cause significant error
 Vibrational temperatures:     21.04    42.71    51.79   117.69   133.55
          (Kelvin)            175.83   225.43   273.01   295.24   338.31
                              351.73   372.91   470.81   491.70   523.82
                              544.62   568.71   585.58   616.23   656.00
                              673.82   710.44   754.32   798.34   867.51
                              893.87   960.07  1016.78  1075.75  1085.70
                             1158.04  1169.20  1189.31  1197.48  1231.56
                             1257.96  1265.99  1272.89  1314.49  1318.07
                             1352.09  1418.49  1428.89  1459.45  1490.52
                             1513.51  1526.19  1559.59  1596.65  1609.29
                             1627.60  1654.87  1679.70  1697.18  1707.57
                             1741.79  1771.13  1800.72  1858.97  1875.36
                             1887.57  1893.76  1904.59  1943.39  1955.38
                             1963.40  1969.77  1976.53  2013.79  2016.44
                             2019.99  2023.57  2047.19  2059.66  2082.02
                             2114.09  2157.42  2162.41  2166.02  2177.33
                             2179.49  2187.70  2192.94  2212.46  2232.86
                             2258.35  2353.17  2414.50  2439.60  4166.36
                             4229.36  4262.93  4335.72  4345.55  4356.83
                             4376.03  4379.14  4408.35  4423.38  4425.03
                             4438.13  4446.05  4459.35  4464.05  4470.77
                             4518.68  4573.14  4638.70  5072.72  5137.98
                             5209.66

 Zero-point correction=                           0.349269 (Hartree/Particle)
 Thermal correction to Energy=                    0.365701
 Thermal correction to Enthalpy=                  0.366645
 Thermal correction to Gibbs Free Energy=         0.303433
 Sum of electronic and zero-point Energies=           -727.354185
 Sum of electronic and thermal Energies=              -727.337754
 Sum of electronic and thermal Enthalpies=            -727.336810
 Sum of electronic and thermal Free Energies=         -727.400022

                     E (Thermal)             CV                S
                      KCal/Mol        Cal/Mol-Kelvin    Cal/Mol-Kelvin
 Total                  229.481             64.330            133.041
 Electronic               0.000              0.000              0.000
 Translational            0.889              2.981             42.254
 Rotational               0.889              2.981             33.461
 Vibrational            227.703             58.368             57.325
 Vibration     1          0.593              1.986              7.256
 Vibration     2          0.593              1.984              5.850
 Vibration     3          0.594              1.982              5.468
 Vibration     4          0.600              1.962              3.847
 Vibration     5          0.602              1.954              3.600
 Vibration     6          0.610              1.931              3.065
 Vibration     7          0.620              1.895              2.589
 Vibration     8          0.633              1.854              2.230
 Vibration     9          0.640              1.832              2.086
 Vibration    10          0.655              1.787              1.839
 Vibration    11          0.660              1.772              1.770
 Vibration    12          0.668              1.747              1.667
 Vibration    13          0.711              1.621              1.274
 Vibration    14          0.721              1.592              1.204
 Vibration    15          0.738              1.546              1.105
 Vibration    16          0.749              1.516              1.045
 Vibration    17          0.762              1.480              0.980
 Vibration    18          0.772              1.455              0.937
 Vibration    19          0.790              1.409              0.864
 Vibration    20          0.814              1.348              0.778
 Vibration    21          0.826              1.320              0.742
 Vibration    22          0.849              1.264              0.674
 Vibration    23          0.879              1.196              0.600
 Vibration    24          0.910              1.129              0.534
 Vibration    25          0.961              1.026              0.445

 Optimization completed.
    -- Stationary point found.
 Normal termination of Gaussian 16 at Fri Dec 11 13:36:07 2020.

 ----------------------------------------------------------------------
 # B3LYP/6-311++G(d,p) empiricaldispersion=gd3bj scf=xqc pop=npa geom=c
 heck
 ----------------------------------------------------------------------

 --------------------------------------
 CID_11225875_JID_7947_Energie_neutraal
 --------------------------------------
 Structure from the checkpoint file:  "JID_7947.chk"
 Charge =  0 Multiplicity = 1

 SCF Done:  E(RB3LYP) =  -727.908097970     A.U. after   14 cycles
 Normal termination of Gaussian 16 at Fri Dec 11 13:43:55 2020.

 ----------------------------------------------------------------------
 # B3LYP/6-311++G(d,p) empiricaldispersion=gd3bj scf=xqc pop=npa geom=c
 heck
 ----------------------------------------------------------------------

 ------------------------------------
 CID_11225875_JID_7947_Energie_kation
 ------------------------------------
 Structure from the checkpoint file:  "JID_7947.chk"
 Charge =  1 Multiplicity = 2

 SCF Done:  E(UB3LYP) =  -727.660513916     A.U. after   23 cycles
 Normal termination of Gaussian 16 at Fri Dec 11 14:02:09 2020.
 Gaussian 16:  ES64L-G16RevA.03 25-Dec-2016

 ----------------------------------------------------------------------
 # B3LYP/6-311++G(d,p) empiricaldispersion=gd3bj scf=xqc pop=npa geom=c
 heck
 ----------------------------------------------------------------------

 -----------------------------------
 CID_11225875_JID_7947_Energie_anion
 -----------------------------------
 Structure from the checkpoint file:  "JID_7947.chk"
 Charge = -1 Multiplicity = 2

                         Standard orientation:
 ---------------------------------------------------------------------
 Center     Atomic      Atomic             Coordinates (Angstroms)
 Number     Number       Type             X           Y           Z
 ---------------------------------------------------------------------
      1          6           0       -3.362834    2.335686   -0.210986
      2          6           0       -2.454460    2.031863    0.986504
      3          6           0       -1.725218    0.701928    0.778254
      4          7           0       -2.692927   -0.368819    0.557812
      5          6           0       -3.538299   -0.149261   -0.605523
      6          6           0       -4.316896    1.162851   -0.465893
      7          6           0       -2.227448   -1.736337    0.738477
      8          6           0       -1.508059   -2.426169   -0.440178
      9          6           0       -0.248314   -1.717881   -0.939076
     10          7           0        0.692679   -1.510081    0.144678
     11          6           0        1.845658   -0.751353    0.003024
     12          7           0        2.805476   -0.990841    0.910553
     13          6           0        3.919406   -0.258922    0.873893
     14          6           0        4.170094    0.756141   -0.057739
     15          6           0        3.168109    0.985883   -1.009816
     16          6           0        2.002495    0.232226   -0.991731
     17          7           0        5.338180    1.539381   -0.000799
     18          1           0       -3.925576    3.263011   -0.049052
     19          1           0       -2.739501    2.494813   -1.103715
     20          1           0       -1.720674    2.834594    1.130349
     21          1           0       -3.058927    1.965439    1.900102
     22          1           0       -1.016899    0.823690   -0.063545
     23          1           0       -1.122764    0.447175    1.654957
     24          1           0       -4.234565   -0.992840   -0.690398
     25          1           0       -2.955673   -0.119417   -1.550242
     26          1           0       -5.012327    1.066941    0.377584
     27          1           0       -4.914370    1.335811   -1.369826
     28          1           0       -1.571223   -1.742272    1.614611
     29          1           0       -3.100266   -2.356198    0.991486
     30          1           0       -1.254134   -3.449997   -0.126641
     31          1           0       -2.195526   -2.532984   -1.288068
     32          1           0        0.196308   -2.288114   -1.774129
     33          1           0       -0.532111   -0.742586   -1.344064
     34          1           0        0.850408   -2.309793    0.747243
     35          1           0        4.667962   -0.491961    1.632547
     36          1           0        3.303304    1.756894   -1.765126
     37          1           0        1.233233    0.406711   -1.734662
     38          1           0        6.103954    1.078587    0.478689
     39          1           0        5.650113    1.865082   -0.909074
 ---------------------------------------------------------------------

 SCF Done:  E(UB3LYP) =  -727.896600760     A.U. after   33 cycles
 SCF Done:  E(UB3LYP) =  -727.896600761     a.u. after    1 cycles

 The electronic state is 2-A.
 Alpha  occ. eigenvalues --  -14.22547 -14.21742 -14.21069 -14.20752 -10.13961
 Alpha  occ. eigenvalues --  -10.11320 -10.11270 -10.10484 -10.10386 -10.10191
 Alpha  occ. eigenvalues --  -10.09866 -10.08608 -10.08329 -10.08031 -10.07923
 Alpha  occ. eigenvalues --  -10.07746 -10.07651  -0.87285  -0.83840  -0.82375
 Alpha  occ. eigenvalues --   -0.79841  -0.71577  -0.69514  -0.68072  -0.66518
 Alpha  occ. eigenvalues --   -0.63368  -0.59858  -0.55305  -0.53981  -0.53602
 Alpha  occ. eigenvalues --   -0.51574  -0.49554  -0.46194  -0.44484  -0.42891
 Alpha  occ. eigenvalues --   -0.40931  -0.40276  -0.38842  -0.38124  -0.37613
 Alpha  occ. eigenvalues --   -0.36241  -0.35510  -0.34360  -0.33944  -0.33475
 Alpha  occ. eigenvalues --   -0.32205  -0.31556  -0.31335  -0.30604  -0.29478
 Alpha  occ. eigenvalues --   -0.28951  -0.28227  -0.26821  -0.26116  -0.25187
 Alpha  occ. eigenvalues --   -0.24649  -0.24201  -0.22912  -0.22817  -0.18749
 Alpha  occ. eigenvalues --   -0.17566  -0.16714  -0.11958  -0.09503   0.03893
 Alpha virt. eigenvalues --    0.05099   0.06255   0.06440   0.06755   0.07261
 Alpha virt. eigenvalues --    0.07711   0.08436   0.08760   0.09099   0.09646
 Alpha virt. eigenvalues --    0.09924   0.10305   0.10981   0.11223   0.11596

  Beta  occ. eigenvalues --  -14.22543 -14.21680 -14.21068 -14.20749 -10.13961
  Beta  occ. eigenvalues --  -10.11310 -10.11268 -10.10478 -10.10375 -10.10172
  Beta  occ. eigenvalues --  -10.09861 -10.08584 -10.08313 -10.08021 -10.07913
  Beta  occ. eigenvalues --  -10.07734 -10.07648  -0.87276  -0.83829  -0.82328
  Beta  occ. eigenvalues --   -0.79797  -0.71558  -0.69478  -0.68048  -0.66498
  Beta  occ. eigenvalues --   -0.63329  -0.59829  -0.55270  -0.53945  -0.53573
  Beta  occ. eigenvalues --   -0.51539  -0.49522  -0.46160  -0.44452  -0.42855
  Beta  occ. eigenvalues --   -0.40861  -0.40237  -0.38814  -0.38102  -0.37572
  Beta  occ. eigenvalues --   -0.36219  -0.35480  -0.34334  -0.33924  -0.33456
  Beta  occ. eigenvalues --   -0.32179  -0.31526  -0.31313  -0.30570  -0.29451
  Beta  occ. eigenvalues --   -0.28924  -0.28204  -0.26800  -0.26091  -0.25167
  Beta  occ. eigenvalues --   -0.24620  -0.24179  -0.22892  -0.22795  -0.18727
  Beta  occ. eigenvalues --   -0.17536  -0.16694  -0.11941  -0.09469
  Beta virt. eigenvalues --    0.05725   0.06494   0.06567   0.06643   0.07097
  Beta virt. eigenvalues --    0.07616   0.08313   0.08761   0.08937   0.09264
  Beta virt. eigenvalues --    0.09947   0.10132   0.10429   0.11255   0.11343

 Mulliken charges and spin densities:
               1          2
     1  C   -0.198045  -0.065158
     2  C   -0.226091  -0.216114
     3  C   -0.412416   0.206946
     4  N    0.096851   0.055514
     5  C   -0.167177  -0.057970
     6  C    0.523261  -1.049118
     7  C   -0.152570  -0.126911
     8  C    0.447779  -0.705639
     9  C    0.157636  -0.163904
    10  N   -0.088910  -0.055079
    11  C   -0.733703  -0.229045
    12  N   -0.021305   0.013716
    13  C   -0.862468   0.833601
    14  C    2.433393  -2.668683
    15  C   -3.400173   3.010318
    16  C    2.855116  -2.219665
    17  N   -0.277688  -0.049108
    18  H    0.008020   0.159357
    19  H   -0.051197   0.174386
    20  H    0.094925   0.060692
    21  H    0.062706   0.062726
    22  H    0.491317  -0.498450
    23  H    0.130125   0.045550
    24  H   -0.295837   0.456341
    25  H    0.016105   0.103070
    26  H    0.148305  -0.017037
    27  H   -0.223527   0.378829
    28  H    0.110986   0.019355
    29  H   -0.022441   0.194719
    30  H   -0.159786   0.324710
    31  H   -0.062966   0.226264
    32  H   -0.116026   0.298435
    33  H    0.003149   0.097379
    34  H    0.320307  -0.045123
    35  H   -0.218197   0.401872
    36  H   -0.729817   0.937298
    37  H   -0.031998   0.176221
    38  H   -0.144894   0.379971
    39  H   -0.302751   0.549735
 Sum of Mulliken charges =  -1.00000   1.00000

 Dipole moment (field-independent basis, Debye):
    X=             -5.9361    Y=             -2.0841    Z=              3.0712  Tot=              7.0009
 Quadrupole moment (field-independent basis, Debye-Ang):
   XX=           -228.8939   YY=           -149.0239   ZZ=           -141.3438
   XY=            -19.2099   XZ=             -0.7485   YZ=              2.8691

 Summary of Natural Population Analysis:

                                       Natural Population
                Natural  -----------------------------------------------
    Atom  No    Charge         Core      Valence    Rydberg      Total
 -----------------------------------------------------------------------
      C    1   -0.19182      0.99963     2.18390    0.00830     3.19182
      C    2   -0.19215      0.99963     2.18502    0.00751     3.19215
      C    3   -0.08081      0.99961     2.07221    0.00898     3.08081
      N    4   -0.28658      0.99971     2.77446    0.01241     3.78658
      C    5   -0.08551      0.99961     2.07308    0.01281     3.08551
      C    6   -0.19282      0.99963     2.18395    0.00924     3.19282
      C    7   -0.07857      0.99961     2.06659    0.01237     3.07857
      C    8   -0.20220      0.99962     2.19368    0.00889     3.20220
      C    9   -0.08860      0.99962     2.07886    0.01013     3.08860
      N   10   -0.32056      0.99967     2.81067    0.01022     3.82056
      C   11    0.18808      0.99953     1.79757    0.01481     2.81192
      N   12   -0.25154      0.99968     2.74214    0.00973     3.75154
      C   13    0.01360      0.99954     1.97234    0.01451     2.98640
      C   14    0.04642      0.99948     1.94262    0.01148     2.95358
      C   15   -0.09202      0.99953     2.08209    0.01040     3.09202
      C   16   -0.13753      0.99953     2.12977    0.00823     3.13753
      N   17   -0.39916      0.99973     2.88840    0.01104     3.89916
      H   18    0.09696      0.00000     0.40215    0.00089     0.40304
      H   19    0.09466      0.00000     0.40403    0.00131     0.40534
      H   20    0.09848      0.00000     0.40066    0.00086     0.40152
      H   21    0.09394      0.00000     0.40462    0.00144     0.40606
      H   22    0.07909      0.00000     0.41847    0.00244     0.42091
      H   23    0.10007      0.00000     0.39876    0.00116     0.39993
      H   24    0.09733      0.00000     0.40136    0.00131     0.40267
      H   25    0.07877      0.00000     0.41932    0.00191     0.42123
      H   26    0.09415      0.00000     0.40448    0.00138     0.40585
      H   27    0.09857      0.00000     0.40046    0.00097     0.40143
      H   28    0.09607      0.00000     0.40262    0.00131     0.40393
      H   29    0.09239      0.00000     0.40666    0.00095     0.40761
      H   30    0.09526      0.00000     0.40351    0.00123     0.40474
      H   31    0.10204      0.00000     0.39662    0.00134     0.39796
      H   32    0.08733      0.00000     0.41148    0.00119     0.41267
      H   33    0.09368      0.00000     0.40337    0.00295     0.40632
      H   34    0.18585      0.00000     0.31118    0.00297     0.31415
      H   35    0.08715      0.00000     0.41146    0.00139     0.41285
      H   36    0.10338      0.00000     0.39528    0.00134     0.39662
      H   37    0.10490      0.00000     0.39361    0.00150     0.39510
      H   38    0.18410      0.00000     0.31254    0.00336     0.31590
      H   39    0.18762      0.00000     0.30536    0.00702     0.31238
 =======================================================================
   * Total *   -0.00000     16.99335    46.78537    0.22128    64.00000

 Normal termination of Gaussian 16 at Fri Dec 11 14:28:34 2020.
