 Gaussian 16, Revision A.03,

 -----------------------------------------------------------
 # opt freq B3LYP/6-31G(d) empiricaldispersion=gd3bj scf=xqc
 -----------------------------------------------------------

 -----------------------------
 CID_20217716_JID_763_neutraal
 -----------------------------
 Symbolic Z-matrix:
 Charge =  0 Multiplicity = 1

 SCF Done:  E(RB3LYP) =  -438.860078003     A.U. after   14 cycles
 SCF Done:  E(RB3LYP) =  -438.864030300     A.U. after   11 cycles
 SCF Done:  E(RB3LYP) =  -438.865028754     A.U. after   11 cycles
 SCF Done:  E(RB3LYP) =  -438.865441431     A.U. after   11 cycles
 SCF Done:  E(RB3LYP) =  -438.865732745     A.U. after   11 cycles
 SCF Done:  E(RB3LYP) =  -438.865967412     A.U. after   11 cycles
 SCF Done:  E(RB3LYP) =  -438.866116801     A.U. after   11 cycles
 SCF Done:  E(RB3LYP) =  -438.866174952     A.U. after   10 cycles
 SCF Done:  E(RB3LYP) =  -438.866182602     A.U. after    9 cycles
 SCF Done:  E(RB3LYP) =  -438.866184095     A.U. after    8 cycles
 SCF Done:  E(RB3LYP) =  -438.866184229     A.U. after    7 cycles
 Optimization completed.
    -- Stationary point found.

 1\1\GINC-NODE122\FOpt\RB3LYP\6-31G(d)\C7H13N3\VSC10255\08-Dec-2020\0\\
 # opt freq B3LYP/6-31G(d) empiricaldispersion=gd3bj scf=xqc\\CID_20217
 716_JID_763_neutraal\\0,1\C,0.992204944,-0.0330182436,-0.0244607788\C,
 0.2517291759,-1.3483429143,-0.2857445539\C,0.6245586346,-2.4162837127,
 0.7479547758\C,-1.2736248297,-1.1479985797,-0.2961562468\N,-1.73367109
 21,-0.2157711513,-1.3107092958\C,-1.9126675204,-0.4806473403,-2.664575
 6445\C,-2.3971167604,0.6792932412,-3.2053958151\N,-2.5016673085,1.6644
 384922,-2.2405938622\C,-2.0953794686,1.0933739211,-1.1239226495\N,-2.0

 Normal termination of Gaussian 16 at Tue Dec  8 12:43:05 2020.

 --------------------------------------------------------------------
 #N Geom=AllCheck Guess=TCheck SCRF=Check GenChk RB3LYP/6-31G(d) Freq
 --------------------------------------------------------------------

 Structure from the checkpoint file:  "JID_763.chk"
 -----------------------------
 CID_20217716_JID_763_neutraal
 -----------------------------
 Charge =  0 Multiplicity = 1

 SCF Done:  E(RB3LYP) =  -438.866184229     A.U. after    1 cycles

  Exact polarizability: 106.281  -0.852  94.026   7.441  -2.695  63.560
 Approx polarizability: 145.390   2.259 145.718  14.989  -6.951  93.497

                      1                      2                      3
                      A                      A                      A
 Frequencies --     57.4343                86.2660                91.9906
 Red. masses --      2.9658                 3.2563                 4.2790
 Frc consts  --      0.0058                 0.0143                 0.0213
 IR Inten    --      0.1438                 0.5987                 1.0483

                      4                      5                      6
                      A                      A                      A
 Frequencies --    225.0572               233.8538               249.4249
 Red. masses --      1.4457                 1.1007                 2.0131
 Frc consts  --      0.0431                 0.0355                 0.0738
 IR Inten    --     20.9904                 8.2987                20.6731

                      7                      8                      9
                      A                      A                      A
 Frequencies --    262.7888               287.7362               323.8088
 Red. masses --      1.5146                 1.7105                 3.1267
 Frc consts  --      0.0616                 0.0834                 0.1932
 IR Inten    --      0.4754                10.1834                 3.9290

                     10                     11                     12
                      A                      A                      A
 Frequencies --    327.1108               418.2385               433.1715
 Red. masses --      2.1928                 2.4178                 1.8581
 Frc consts  --      0.1382                 0.2492                 0.2054
 IR Inten    --      3.4888                 2.4292                 1.9376

                     13                     14                     15
                      A                      A                      A
 Frequencies --    476.9066               629.3209               670.1854
 Red. masses --      3.2071                 4.8005                 1.7595
 Frc consts  --      0.4298                 1.1202                 0.4656
 IR Inten    --      7.6940                 7.7022                28.0874

                     16                     17                     18
                      A                      A                      A
 Frequencies --    703.6439               712.2108               796.2470
 Red. masses --      4.0909                 2.4195                 4.1693
 Frc consts  --      1.1934                 0.7231                 1.5574
 IR Inten    --     16.6328                 9.2343                 0.6104

                     19                     20                     21
                      A                      A                      A
 Frequencies --    828.3058               832.1618               861.3391
 Red. masses --      1.9050                 1.5924                 1.4727
 Frc consts  --      0.7701                 0.6497                 0.6437
 IR Inten    --      0.9747                 4.3406               183.0064

                     22                     23                     24
                      A                      A                      A
 Frequencies --    911.7735               941.7794               946.8641
 Red. masses --      1.4911                 3.2070                 1.3135
 Frc consts  --      0.7304                 1.6759                 0.6938
 IR Inten    --      9.6078                 3.6480                 3.3940

                     25                     26                     27
                      A                      A                      A
 Frequencies --    967.9712               981.3835              1093.5465
 Red. masses --      1.9595                 1.4841                 1.6967
 Frc consts  --      1.0817                 0.8422                 1.1954
 IR Inten    --      4.2550                 0.1191                 4.6994

                     28                     29                     30
                      A                      A                      A
 Frequencies --   1116.8716              1142.7890              1159.1037
 Red. masses --      1.5110                 1.5946                 2.1082
 Frc consts  --      1.1105                 1.2270                 1.6688
 IR Inten    --     21.9271                16.8994                 0.6466

                     31                     32                     33
                      A                      A                      A
 Frequencies --   1209.4998              1214.8395              1235.3415
 Red. masses --      1.9247                 2.2501                 2.1163
 Frc consts  --      1.6589                 1.9566                 1.9028
 IR Inten    --      5.6072                 5.6119                 1.0870

                     34                     35                     36
                      A                      A                      A
 Frequencies --   1303.4232              1323.3286              1346.4900
 Red. masses --      2.6905                 1.6457                 1.2952
 Frc consts  --      2.6932                 1.6980                 1.3835
 IR Inten    --     18.1068                26.4674                 9.1009

                     37                     38                     39
                      A                      A                      A
 Frequencies --   1389.4554              1405.5034              1423.3409
 Red. masses --      1.5008                 1.9805                 1.6207
 Frc consts  --      1.7071                 2.3051                 1.9345
 IR Inten    --      2.3771                13.1231                 1.0577

                     40                     41                     42
                      A                      A                      A
 Frequencies --   1430.0520              1449.9969              1508.2229
 Red. masses --      1.3057                 1.2408                 1.3537
 Frc consts  --      1.5732                 1.5370                 1.8143
 IR Inten    --      3.7576                 8.8379                32.0799

                     43                     44                     45
                      A                      A                      A
 Frequencies --   1521.1159              1525.1530              1531.7129
 Red. masses --      1.0995                 1.1677                 1.5364
 Frc consts  --      1.4989                 1.6003                 2.1238
 IR Inten    --     10.1545                 6.2588                56.0088

                     46                     47                     48
                      A                      A                      A
 Frequencies --   1537.1327              1544.4187              1555.4243
 Red. masses --      1.1935                 1.1422                 3.1934
 Frc consts  --      1.6615                 1.6052                 4.5520
 IR Inten    --     23.0056                11.9905                32.2218

                     49                     50                     51
                      A                      A                      A
 Frequencies --   1587.4985              1686.5482              3027.4743
 Red. masses --      4.2479                 1.2146                 1.0794
 Frc consts  --      6.3075                 2.0356                 5.8289
 IR Inten    --     68.5707                64.8836                 5.8268

                     52                     53                     54
                      A                      A                      A
 Frequencies --   3036.0998              3042.8664              3060.5095
 Red. masses --      1.0435                 1.0380                 1.0599
 Frc consts  --      5.6674                 5.6626                 5.8493
 IR Inten    --     27.3792                22.2316                39.4897

                     55                     56                     57
                      A                      A                      A
 Frequencies --   3102.7187              3104.8597              3113.3743
 Red. masses --      1.0980                 1.1008                 1.1033
 Frc consts  --      6.2277                 6.2525                 6.3007
 IR Inten    --     12.3582                19.1087                39.7114

                     58                     59                     60
                      A                      A                      A
 Frequencies --   3118.9367              3124.4456              3257.2544
 Red. masses --      1.1020                 1.1023                 1.0912
 Frc consts  --      6.3159                 6.3402                 6.8210
 IR Inten    --     29.2819                34.7859                 8.6060

                     61                     62                     63
                      A                      A                      A
 Frequencies --   3286.2733              3495.9740              3595.9480
 Red. masses --      1.1039                 1.0514                 1.0912
 Frc consts  --      7.0238                 7.5714                 8.3138
 IR Inten    --      5.1795                 2.6868                21.4069

 - Thermochemistry -
 -------------------
 Temperature   298.150 Kelvin.  Pressure   1.00000 Atm.
 Atom     1 has atomic number  6 and mass  12.00000

 Molecular mass:   139.11095 amu.
 Principal axes and moments of inertia in atomic units:
                           1         2         3
     Eigenvalues --   725.924022038.575792373.70423
           X            1.00000  -0.00176   0.00073
           Y            0.00175   0.99974   0.02261
           Z           -0.00077  -0.02261   0.99974
 This molecule is an asymmetric top.
 Rotational symmetry number  1.
 Warning -- assumption of classical behavior for rotation
           may cause significant error
 Rotational temperatures (Kelvin)      0.11932     0.04249     0.03649
 Rotational constants (GHZ):           2.48613     0.88530     0.76031
 Zero-point vibrational energy     531527.9 (Joules/Mol)
                                  127.03821 (Kcal/Mol)
 Warning -- explicit consideration of  13 degrees of freedom as
           vibrations may cause significant error
 Vibrational temperatures:     82.64   124.12   132.35   323.81   336.46
          (Kelvin)            358.87   378.09   413.99   465.89   470.64
                              601.75   623.24   686.16   905.45   964.25
                             1012.39  1024.71  1145.62  1191.75  1197.30
                             1239.27  1311.84  1355.01  1362.33  1392.69
                             1411.99  1573.37  1606.93  1644.22  1667.69
                             1740.20  1747.88  1777.38  1875.34  1903.97
                             1937.30  1999.12  2022.21  2047.87  2057.53
                             2086.22  2170.00  2188.55  2194.36  2203.79
                             2211.59  2222.07  2237.91  2284.06  2426.57
                             4355.86  4368.27  4378.01  4403.39  4464.12
                             4467.20  4479.45  4487.45  4495.38  4686.46
                             4728.21  5029.93  5173.77

 Zero-point correction=                           0.202448 (Hartree/Particle)
 Thermal correction to Energy=                    0.212858
 Thermal correction to Enthalpy=                  0.213802
 Thermal correction to Gibbs Free Energy=         0.166695
 Sum of electronic and zero-point Energies=           -438.663736
 Sum of electronic and thermal Energies=              -438.653326
 Sum of electronic and thermal Enthalpies=            -438.652382
 Sum of electronic and thermal Free Energies=         -438.699489

                     E (Thermal)             CV                S
                      KCal/Mol        Cal/Mol-Kelvin    Cal/Mol-Kelvin
 Total                  133.571             39.182             99.145
 Electronic               0.000              0.000              0.000
 Translational            0.889              2.981             40.702
 Rotational               0.889              2.981             29.642
 Vibrational            131.793             33.220             28.801
 Vibration     1          0.596              1.975              4.543
 Vibration     2          0.601              1.959              3.743
 Vibration     3          0.602              1.955              3.617
 Vibration     4          0.650              1.803              1.918
 Vibration     5          0.654              1.789              1.849
 Vibration     6          0.662              1.764              1.735
 Vibration     7          0.670              1.741              1.643
 Vibration     8          0.685              1.697              1.487
 Vibration     9          0.708              1.628              1.291
 Vibration    10          0.711              1.621              1.274
 Vibration    11          0.781              1.431              0.898
 Vibration    12          0.794              1.398              0.848
 Vibration    13          0.833              1.301              0.718

                           ! Non-Optimized Parameters !

 1\1\GINC-NODE122\Freq\RB3LYP\6-31G(d)\C7H13N3\VSC10255\08-Dec-2020\0\\
 #N Geom=AllCheck Guess=TCheck SCRF=Check GenChk RB3LYP/6-31G(d) Freq\\
 CID_20217716_JID_763_neutraal\\0,1\C,0.992204944,-0.0330182436,-0.0244
 607788\C,0.2517291759,-1.3483429143,-0.2857445539\C,0.6245586346,-2.41
 62837127,0.7479547758\C,-1.2736248297,-1.1479985797,-0.2961562468\N,-1
 .7336710921,-0.2157711513,-1.3107092958\C,-1.9126675204,-0.4806473403,
 -2.6645756445\C,-2.3971167604,0.6792932412,-3.2053958151\N,-2.50166730
 85,1.6644384922,-2.2405938622\C,-2.0953794686,1.0933739211,-1.12392264

 Normal termination of Gaussian 16 at Tue Dec  8 13:04:02 2020.

 ----------------------------------------------------------------------
 # B3LYP/6-311++G(d,p) empiricaldispersion=gd3bj scf=xqc pop=npa geom=c
 heck
 ----------------------------------------------------------------------

 -------------------------------------
 CID_20217716_JID_763_Energie_neutraal
 -------------------------------------
 Structure from the checkpoint file:  "JID_763.chk"
 Charge =  0 Multiplicity = 1

 SCF Done:  E(RB3LYP) =  -438.995421104     A.U. after   14 cycles
 Normal termination of Gaussian 16 at Tue Dec  8 13:08:24 2020.

 ----------------------------------------------------------------------
 # B3LYP/6-311++G(d,p) empiricaldispersion=gd3bj scf=xqc pop=npa geom=c
 heck
 ----------------------------------------------------------------------

 -----------------------------------
 CID_20217716_JID_763_Energie_kation
 -----------------------------------
 Structure from the checkpoint file:  "JID_763.chk"
 Charge =  1 Multiplicity = 2

 SCF Done:  E(UB3LYP) =  -438.708367767     A.U. after   20 cycles
 Normal termination of Gaussian 16 at Tue Dec  8 13:17:15 2020.
 Gaussian 16:  ES64L-G16RevA.03 25-Dec-2016

 ----------------------------------
 CID_20217716_JID_763_Energie_anion
 ----------------------------------
 Structure from the checkpoint file:  "JID_763.chk"
 Charge = -1 Multiplicity = 2

                         Standard orientation:
 ---------------------------------------------------------------------
 Center     Atomic      Atomic             Coordinates (Angstroms)
 Number     Number       Type             X           Y           Z
 ---------------------------------------------------------------------
      1          6           0       -1.740353    0.789433    1.250123
      2          6           0       -1.894894   -0.369232    0.260040
      3          6           0       -3.290550   -0.383629   -0.372392
      4          6           0       -0.826059   -0.316993   -0.845317
      5          7           0        0.535783   -0.390411   -0.345311
      6          6           0        1.217371   -1.537609    0.047788
      7          6           0        2.472268   -1.118329    0.397183
      8          7           0        2.587573    0.252838    0.259734
      9          6           0        1.411802    0.651722   -0.183653
     10          7           0        1.066116    1.960611   -0.547804
     11          1           0       -1.895814    1.753246    0.746103
     12          1           0       -0.746737    0.791692    1.710545
     13          1           0       -2.480184    0.718478    2.054625
     14          1           0       -1.750599   -1.309903    0.810397
     15          1           0       -3.471370    0.538023   -0.940208
     16          1           0       -3.412200   -1.229242   -1.059354
     17          1           0       -4.068201   -0.458863    0.395150
     18          1           0       -0.976474   -1.144883   -1.547413
     19          1           0       -0.909426    0.616188   -1.412936
     20          1           0        0.741451   -2.506596    0.034636
     21          1           0        3.302477   -1.716570    0.747064
     22          1           0        1.898336    2.539083   -0.478859
     23          1           0        0.344915    2.355902    0.051294
 ---------------------------------------------------------------------

 SCF Done:  E(UB3LYP) =  -438.981725971     A.U. after   30 cycles

 The electronic state is 2-A.
 Alpha  occ. eigenvalues --  -14.26025 -14.21846 -14.18415 -10.14990 -10.10598
 Alpha  occ. eigenvalues --  -10.08984 -10.08048 -10.07498 -10.05299 -10.05164
 Alpha  occ. eigenvalues --   -0.92057  -0.80368  -0.78204  -0.69924  -0.62813
 Alpha  occ. eigenvalues --   -0.59436  -0.58089  -0.50597  -0.47821  -0.45993
 Alpha  occ. eigenvalues --   -0.42873  -0.40051  -0.36982  -0.35536  -0.35163
 Alpha  occ. eigenvalues --   -0.33086  -0.32425  -0.30672  -0.29297  -0.28199
 Alpha  occ. eigenvalues --   -0.27515  -0.24762  -0.23620  -0.22859  -0.20423
 Alpha  occ. eigenvalues --   -0.17395  -0.16452  -0.10916   0.04667
 Alpha virt. eigenvalues --    0.06959   0.07947   0.08443   0.09572   0.09868
 Alpha virt. eigenvalues --    0.10578   0.11175   0.11763   0.12459   0.12970
 Alpha virt. eigenvalues --    0.13396   0.14131   0.15129   0.15306   0.16455

  Beta  occ. eigenvalues --  -14.26024 -14.21802 -14.18410 -10.14984 -10.10573
  Beta  occ. eigenvalues --  -10.08972 -10.08046 -10.07484 -10.05247 -10.05111
  Beta  occ. eigenvalues --   -0.92044  -0.80314  -0.78184  -0.69883  -0.62778
  Beta  occ. eigenvalues --   -0.59380  -0.57989  -0.50580  -0.47737  -0.45918
  Beta  occ. eigenvalues --   -0.42822  -0.40001  -0.36930  -0.35488  -0.35123
  Beta  occ. eigenvalues --   -0.33049  -0.32393  -0.30635  -0.29243  -0.28151
  Beta  occ. eigenvalues --   -0.27465  -0.24709  -0.23563  -0.22788  -0.20383
  Beta  occ. eigenvalues --   -0.17376  -0.16441  -0.10887
  Beta virt. eigenvalues --    0.07277   0.08007   0.08494   0.09381   0.09985
  Beta virt. eigenvalues --    0.10531   0.11360   0.11857   0.12230   0.12844
  Beta virt. eigenvalues --    0.13398   0.13907   0.14418   0.15232   0.15665

 Mulliken charges and spin densities:
               1          2
     1  C    2.080941  -2.705312
     2  C   -3.458815   4.169803
     3  C    1.619847  -2.300221
     4  C    1.622476  -2.572469
     5  N    0.060003   0.142956
     6  C    0.183527  -0.281721
     7  C    0.016809  -0.181161
     8  N   -0.195223   0.023200
     9  C    0.108229  -0.240448
    10  N   -0.347424   0.002248
    11  H   -0.401890   0.558091
    12  H   -0.054736   0.213530
    13  H   -0.341903   0.497636
    14  H   -0.090665   0.247057
    15  H   -0.199123   0.333692
    16  H   -0.665907   0.804409
    17  H   -0.481391   0.631068
    18  H   -0.019235   0.204300
    19  H   -0.016918   0.234785
    20  H   -0.345763   0.478162
    21  H    0.085628   0.047453
    22  H   -0.051270   0.325468
    23  H   -0.107196   0.367473
 Sum of Mulliken charges =  -1.00000   1.00000

 Dipole moment (field-independent basis, Debye):
    X=              5.2435    Y=             -1.2883    Z=             -0.2045  Tot=              5.4033
 Quadrupole moment (field-independent basis, Debye-Ang):
   XX=           -127.2484   YY=           -101.5586   ZZ=            -94.9485
   XY=             -5.4028   XZ=              0.3073   YZ=             -4.0795

 Summary of Natural Population Analysis:

                                       Natural Population
                Natural  -----------------------------------------------
    Atom  No    Charge         Core      Valence    Rydberg      Total
 -----------------------------------------------------------------------
      C    1   -0.28865      0.99965     2.28261    0.00639     3.28865
      C    2   -0.11677      0.99961     2.10783    0.00933     3.11677
      C    3   -0.28508      0.99965     2.27933    0.00610     3.28508
      C    4   -0.08334      0.99958     2.07227    0.01149     3.08334
      N    5   -0.21626      0.99962     2.70589    0.01075     3.71626
      C    6   -0.04213      0.99955     2.03111    0.01147     3.04213
      C    7   -0.03537      0.99958     2.02291    0.01288     3.03537
      N    8   -0.28400      0.99969     2.77388    0.01043     3.78400
      C    9    0.27819      0.99960     1.70347    0.01875     2.72181
      N   10   -0.41284      0.99972     2.90358    0.00953     3.91284
      H   11    0.09700      0.00000     0.40102    0.00198     0.40300
      H   12    0.09988      0.00000     0.39839    0.00173     0.40012
      H   13    0.10492      0.00000     0.39373    0.00135     0.39508
      H   14    0.09397      0.00000     0.40391    0.00212     0.40603
      H   15    0.09786      0.00000     0.40049    0.00165     0.40214
      H   16    0.10186      0.00000     0.39569    0.00244     0.39814
      H   17    0.10357      0.00000     0.39474    0.00169     0.39643
      H   18    0.10234      0.00000     0.39597    0.00169     0.39766
      H   19    0.10763      0.00000     0.39031    0.00206     0.39237
      H   20    0.10362      0.00000     0.39530    0.00107     0.39638
      H   21    0.09319      0.00000     0.40592    0.00088     0.40681
      H   22    0.18983      0.00000     0.30799    0.00218     0.31017
      H   23    0.19057      0.00000     0.30629    0.00314     0.30943
 =======================================================================
   * Total *   -0.00000      9.99625    27.87263    0.13112    38.00000

 Normal termination of Gaussian 16 at Tue Dec  8 13:30:35 2020.
