 Gaussian 16, Revision A.03,

 -----------------------------------------------------------
 # opt freq B3LYP/6-31G(d) empiricaldispersion=gd3bj scf=xqc
 -----------------------------------------------------------

 ------------------------------
 CID_58182485_JID_4213_neutraal
 ------------------------------
 Symbolic Z-matrix:
 Charge =  0 Multiplicity = 1

 SCF Done:  E(RB3LYP) =  -559.203894841     A.U. after   14 cycles
 SCF Done:  E(RB3LYP) =  -559.207081676     A.U. after   12 cycles
 SCF Done:  E(RB3LYP) =  -559.207365106     A.U. after   11 cycles
 SCF Done:  E(RB3LYP) =  -559.207428425     A.U. after   11 cycles
 SCF Done:  E(RB3LYP) =  -559.207445923     A.U. after   10 cycles
 SCF Done:  E(RB3LYP) =  -559.207462775     A.U. after   10 cycles
 SCF Done:  E(RB3LYP) =  -559.207468124     A.U. after    9 cycles
 SCF Done:  E(RB3LYP) =  -559.207468976     A.U. after    8 cycles
 SCF Done:  E(RB3LYP) =  -559.207470084     A.U. after    8 cycles
 SCF Done:  E(RB3LYP) =  -559.207473211     A.U. after    9 cycles
 SCF Done:  E(RB3LYP) =  -559.209795768     A.U. after   11 cycles
 SCF Done:  E(RB3LYP) =  -559.209898107     A.U. after   11 cycles
 SCF Done:  E(RB3LYP) =  -559.209901111     A.U. after   10 cycles
 SCF Done:  E(RB3LYP) =  -559.209906147     A.U. after    9 cycles
 SCF Done:  E(RB3LYP) =  -559.209906438     A.U. after    7 cycles
 Optimization completed.
    -- Stationary point found.
 Normal termination of Gaussian 16 at Thu Dec 10 09:30:35 2020.

 --------------------------------------------------------------------
 #N Geom=AllCheck Guess=TCheck SCRF=Check GenChk RB3LYP/6-31G(d) Freq
 --------------------------------------------------------------------

 Structure from the checkpoint file:  "JID_4213.chk"
 ------------------------------
 CID_58182485_JID_4213_neutraal
 ------------------------------
 Charge =  0 Multiplicity = 1

 SCF Done:  E(RB3LYP) =  -559.209906438     A.U. after    1 cycles

  Exact polarizability: 176.438 -11.269 162.273   0.289   8.347  78.065
 Approx polarizability: 262.105 -24.671 269.508   1.094  19.216 114.979

                      1                      2                      3
                      A                      A                      A
 Frequencies --     40.3359                63.8741                75.7535
 Red. masses --      3.1845                 2.4504                 3.8202
 Frc consts  --      0.0031                 0.0059                 0.0129
 IR Inten    --      0.1618                 0.0959                 0.2603

                      4                      5                      6
                      A                      A                      A
 Frequencies --     79.5335               120.5903               193.5359
 Red. masses --      3.1478                 2.5942                 2.9109
 Frc consts  --      0.0117                 0.0222                 0.0642
 IR Inten    --      0.6664                 0.1724                 0.1765

                      7                      8                      9
                      A                      A                      A
 Frequencies --    201.3549               229.8684               238.1209
 Red. masses --      1.3355                 3.9035                 3.1497
 Frc consts  --      0.0319                 0.1215                 0.1052
 IR Inten    --      0.3604                 1.5540                 0.6336

                     10                     11                     12
                      A                      A                      A
 Frequencies --    288.3173               331.9529               392.6898
 Red. masses --      1.7289                 3.3977                 2.2902
 Frc consts  --      0.0847                 0.2206                 0.2081
 IR Inten    --      0.3532                 1.5881                 0.8812

                     13                     14                     15
                      A                      A                      A
 Frequencies --    428.8412               437.8541               531.9057
 Red. masses --      3.7339                 3.0478                 2.8086
 Frc consts  --      0.4046                 0.3443                 0.4682
 IR Inten    --      0.9771                 4.4638                 0.1284

                     16                     17                     18
                      A                      A                      A
 Frequencies --    538.5749               562.5680               588.6991
 Red. masses --      3.6617                 3.2606                 3.7672
 Frc consts  --      0.6258                 0.6080                 0.7692
 IR Inten    --      0.5894                 4.4362                 0.4504

                     19                     20                     21
                      A                      A                      A
 Frequencies --    604.3529               621.5065               712.3709
 Red. masses --      3.2294                 2.7469                 2.5405
 Frc consts  --      0.6949                 0.6252                 0.7596
 IR Inten    --      5.0904                 3.3231                 7.9685

                     22                     23                     24
                      A                      A                      A
 Frequencies --    753.3547               777.0599               779.9853
 Red. masses --      1.2899                 4.1833                 3.0257
 Frc consts  --      0.4313                 1.4883                 1.0845
 IR Inten    --     62.8370                 0.7394                 3.7071

                     25                     26                     27
                      A                      A                      A
 Frequencies --    784.8546               804.6118               819.4926
 Red. masses --      1.6591                 1.8230                 1.8133
 Frc consts  --      0.6022                 0.6953                 0.7175
 IR Inten    --      5.4159                 6.2680                 1.3208

                     28                     29                     30
                      A                      A                      A
 Frequencies --    858.0322               920.5466               923.4995
 Red. masses --      1.5386                 1.4495                 1.3843
 Frc consts  --      0.6674                 0.7237                 0.6956
 IR Inten    --      0.1831                 5.6572                 7.7192

                     31                     32                     33
                      A                      A                      A
 Frequencies --    933.7118               954.0911               954.7489
 Red. masses --      1.3678                 2.3226                 2.3046
 Frc consts  --      0.7026                 1.2457                 1.2377
 IR Inten    --     37.8801                 5.4835                 0.4335

                     34                     35                     36
                      A                      A                      A
 Frequencies --    965.5884              1036.6787              1047.7363
 Red. masses --      1.2284                 1.1067                 2.1760
 Frc consts  --      0.6748                 0.7007                 1.4074
 IR Inten    --      0.1321                14.3132                 7.8422

                     37                     38                     39
                      A                      A                      A
 Frequencies --   1051.6823              1100.5029              1119.4990
 Red. masses --      3.7538                 2.4626                 1.7646
 Frc consts  --      2.4462                 1.7572                 1.3030
 IR Inten    --      1.1845                18.5809                 3.2410

                     40                     41                     42
                      A                      A                      A
 Frequencies --   1130.4789              1159.6505              1172.2188
 Red. masses --      1.6510                 1.6145                 1.6633
 Frc consts  --      1.2432                 1.2792                 1.3466
 IR Inten    --      2.1833                 2.5843                 8.4729

                     43                     44                     45
                      A                      A                      A
 Frequencies --   1196.2538              1217.2421              1255.3307
 Red. masses --      1.3890                 1.4140                 1.5541
 Frc consts  --      1.1711                 1.2344                 1.4429
 IR Inten    --     19.5050                12.4264                 5.3950

                     46                     47                     48
                      A                      A                      A
 Frequencies --   1273.8382              1315.8312              1325.9437
 Red. masses --      1.6762                 1.4061                 1.3044
 Frc consts  --      1.6025                 1.4344                 1.3512
 IR Inten    --     23.9861                 1.3250                10.8064

                     49                     50                     51
                      A                      A                      A
 Frequencies --   1347.8093              1385.8249              1394.4590
 Red. masses --      1.3827                 2.4318                 4.1707
 Frc consts  --      1.4800                 2.7517                 4.7782
 IR Inten    --     15.8904                41.6710                 7.5780

                     52                     53                     54
                      A                      A                      A
 Frequencies --   1405.8454              1416.9057              1436.7069
 Red. masses --      1.5065                 2.5159                 2.6562
 Frc consts  --      1.7543                 2.9760                 3.2303
 IR Inten    --     53.9193                19.8518                 7.6740

                     55                     56                     57
                      A                      A                      A
 Frequencies --   1439.3121              1472.2757              1500.3491
 Red. masses --      1.3056                 1.1987                 1.1678
 Frc consts  --      1.5935                 1.5308                 1.5488
 IR Inten    --     14.6727                 1.1711                 8.9749

                     58                     59                     60
                      A                      A                      A
 Frequencies --   1506.7680              1518.4094              1521.1450
 Red. masses --      1.9468                 1.1599                 1.1564
 Frc consts  --      2.6041                 1.5756                 1.5765
 IR Inten    --     49.4439                 5.9660                14.9941

                     61                     62                     63
                      A                      A                      A
 Frequencies --   1532.8739              1538.5714              1611.1402
 Red. masses --      1.8691                 1.2932                 5.7217
 Frc consts  --      2.5875                 1.8037                 8.7506
 IR Inten    --      2.6548                 6.1943                17.9526

                     64                     65                     66
                      A                      A                      A
 Frequencies --   1630.6298              1673.7800              1730.5351
 Red. masses --      6.2993                 6.4328                 4.4892
 Frc consts  --      9.8685                10.6181                 7.9209
 IR Inten    --      0.3499                 8.2252                 8.6885

                     67                     68                     69
                      A                      A                      A
 Frequencies --   3018.2605              3053.9164              3057.9289
 Red. masses --      1.0591                 1.1023                 1.0355
 Frc consts  --      5.6845                 6.0573                 5.7049
 IR Inten    --     40.2951                18.0640                22.9862

                     70                     71                     72
                      A                      A                      A
 Frequencies --   3061.9172              3102.9252              3128.9886
 Red. masses --      1.0612                 1.1039                 1.1023
 Frc consts  --      5.8619                 6.2622                 6.3588
 IR Inten    --     39.8430                 7.0980                38.9692

                     73                     74                     75
                      A                      A                      A
 Frequencies --   3140.3700              3149.2827              3158.0978
 Red. masses --      1.1040                 1.0664                 1.0841
 Frc consts  --      6.4149                 6.2313                 6.3703
 IR Inten    --     25.5075                19.5082                 5.5914

                     76                     77                     78
                      A                      A                      A
 Frequencies --   3181.8489              3192.7320              3204.9065
 Red. masses --      1.0850                 1.0891                 1.0942
 Frc consts  --      6.4721                 6.5407                 6.6215
 IR Inten    --      0.2270                18.8636                33.0469

                     79                     80                     81
                      A                      A                      A
 Frequencies --   3215.2133              3234.6075              3250.4670
 Red. masses --      1.0949                 1.1152                 1.0961
 Frc consts  --      6.6686                 6.8746                 6.8231
 IR Inten    --     17.2443                21.9185                 2.6334

 - Thermochemistry -
 -------------------
 Temperature   298.150 Kelvin.  Pressure   1.00000 Atm.
 Atom     1 has atomic number  6 and mass  12.00000

 Molecular mass:   185.12045 amu.
 Principal axes and moments of inertia in atomic units:
                           1         2         3
     Eigenvalues --  1876.730903309.348614769.76871
           X            0.99972  -0.02288   0.00651
           Y            0.02290   0.99974  -0.00208
           Z           -0.00646   0.00222   0.99998
 This molecule is an asymmetric top.
 Rotational symmetry number  1.
 Warning -- assumption of classical behavior for rotation
           may cause significant error
 Rotational temperatures (Kelvin)      0.04615     0.02617     0.01816
 Rotational constants (GHZ):           0.96164     0.54535     0.37837
 Zero-point vibrational energy     652741.6 (Joules/Mol)
                                  156.00898 (Kcal/Mol)
 Warning -- explicit consideration of  19 degrees of freedom as
           vibrations may cause significant error
 Vibrational temperatures:     58.03    91.90   108.99   114.43   173.50
          (Kelvin)            278.45   289.70   330.73   342.60   414.82
                              477.61   564.99   617.01   629.97   765.29
                              774.89   809.41   847.01   869.53   894.21
                             1024.94  1083.91  1118.02  1122.22  1129.23
                             1157.66  1179.07  1234.52  1324.46  1328.71
                             1343.40  1372.72  1373.67  1389.27  1491.55
                             1507.46  1513.14  1583.38  1610.71  1626.51
                             1668.48  1686.56  1721.14  1751.34  1806.14
                             1832.77  1893.19  1907.74  1939.20  1993.89
                             2006.32  2022.70  2038.61  2067.10  2070.85
                             2118.28  2158.67  2167.90  2184.65  2188.59
                             2205.46  2213.66  2318.07  2346.11  2408.20
                             2489.85  4342.60  4393.90  4399.68  4405.42
                             4464.42  4501.92  4518.29  4531.12  4543.80
                             4577.97  4593.63  4611.15  4625.97  4653.88
                             4676.70

 Zero-point correction=                           0.248616 (Hartree/Particle)
 Thermal correction to Energy=                    0.261572
 Thermal correction to Enthalpy=                  0.262516
 Thermal correction to Gibbs Free Energy=         0.208486
 Sum of electronic and zero-point Energies=           -558.961290
 Sum of electronic and thermal Energies=              -558.948335
 Sum of electronic and thermal Enthalpies=            -558.947390
 Sum of electronic and thermal Free Energies=         -559.001421

                     E (Thermal)             CV                S
                      KCal/Mol        Cal/Mol-Kelvin    Cal/Mol-Kelvin
 Total                  164.139             49.894            113.716
 Electronic               0.000              0.000              0.000
 Translational            0.889              2.981             41.554
 Rotational               0.889              2.981             31.760
 Vibrational            162.361             43.933             40.402
 Vibration     1          0.594              1.981              5.243
 Vibration     2          0.597              1.972              4.334
 Vibration     3          0.599              1.965              3.998
 Vibration     4          0.600              1.963              3.902
 Vibration     5          0.609              1.932              3.091
 Vibration     6          0.635              1.849              2.194
 Vibration     7          0.638              1.838              2.121
 Vibration     8          0.652              1.795              1.880
 Vibration     9          0.656              1.782              1.817
 Vibration    10          0.685              1.695              1.484
 Vibration    11          0.714              1.612              1.251
 Vibration    12          0.760              1.486              0.990
 Vibration    13          0.790              1.407              0.862
 Vibration    14          0.798              1.388              0.833
 Vibration    15          0.887              1.179              0.583
 Vibration    16          0.894              1.165              0.568
 Vibration    17          0.918              1.112              0.519
 Vibration    18          0.946              1.056              0.470
 Vibration    19          0.963              1.023              0.442

                           ! Non-Optimized Parameters !
 Normal termination of Gaussian 16 at Thu Dec 10 09:38:17 2020.

 ----------------------------------------------------------------------
 # B3LYP/6-311++G(d,p) empiricaldispersion=gd3bj scf=xqc pop=npa geom=c
 heck
 ----------------------------------------------------------------------

 --------------------------------------
 CID_58182485_JID_4213_Energie_neutraal
 --------------------------------------
 Structure from the checkpoint file:  "JID_4213.chk"
 Charge =  0 Multiplicity = 1

 SCF Done:  E(RB3LYP) =  -559.354775294     A.U. after   16 cycles
 Normal termination of Gaussian 16 at Thu Dec 10 09:42:27 2020.

 ----------------------------------------------------------------------
 # B3LYP/6-311++G(d,p) empiricaldispersion=gd3bj scf=xqc pop=npa geom=c
 heck
 ----------------------------------------------------------------------

 ------------------------------------
 CID_58182485_JID_4213_Energie_kation
 ------------------------------------
 Structure from the checkpoint file:  "JID_4213.chk"
 Charge =  1 Multiplicity = 2

 SCF Done:  E(UB3LYP) =  -559.089711507     A.U. after   24 cycles
 Normal termination of Gaussian 16 at Thu Dec 10 09:50:49 2020.
 Gaussian 16:  ES64L-G16RevA.03 25-Dec-2016

 ----------------------------------------------------------------------
 # B3LYP/6-311++G(d,p) empiricaldispersion=gd3bj scf=xqc pop=npa geom=c
 heck
 ----------------------------------------------------------------------

 -----------------------------------
 CID_58182485_JID_4213_Energie_anion
 -----------------------------------
 Structure from the checkpoint file:  "JID_4213.chk"
 Charge = -1 Multiplicity = 2

                         Standard orientation:
 ---------------------------------------------------------------------
 Center     Atomic      Atomic             Coordinates (Angstroms)
 Number     Number       Type             X           Y           Z
 ---------------------------------------------------------------------
      1          6           0        3.252343   -1.510576    1.149772
      2          6           0        2.783945   -1.369034   -0.300626
      3          7           0        1.423567   -0.873194   -0.408561
      4          6           0        0.284643   -1.653277   -0.535878
      5          6           0       -0.844674   -0.876465   -0.474015
      6          6           0       -0.392034    0.478511   -0.274286
      7          6           0       -1.045702    1.713551   -0.134128
      8          6           0       -0.284416    2.861981    0.043999
      9          6           0        1.123209    2.803632    0.085717
     10          6           0        1.799445    1.596056   -0.049015
     11          6           0        1.030559    0.441954   -0.232925
     12          6           0       -2.268785   -1.342053   -0.595169
     13          6           0       -3.087790   -1.045538    0.637711
     14          6           0       -4.225704   -0.352041    0.647198
     15          1           0        3.207520   -0.546732    1.666024
     16          1           0        4.284661   -1.876059    1.186729
     17          1           0        2.614110   -2.215530    1.692254
     18          1           0        3.441452   -0.687383   -0.852182
     19          1           0        2.824546   -2.334663   -0.814850
     20          1           0        0.377597   -2.722271   -0.677646
     21          1           0       -2.129867    1.761798   -0.149713
     22          1           0       -0.779104    3.822449    0.157795
     23          1           0        1.691368    3.718333    0.229581
     24          1           0        2.884220    1.556190   -0.012763
     25          1           0       -2.754108   -0.877999   -1.465058
     26          1           0       -2.269073   -2.425983   -0.780038
     27          1           0       -2.681072   -1.429909    1.573387
     28          1           0       -4.776156   -0.164263    1.564881
     29          1           0       -4.651296    0.054165   -0.268595
 ---------------------------------------------------------------------

 SCF Done:  E(UB3LYP) =  -559.340534088     A.U. after   33 cycles
 SCF Done:  E(UB3LYP) =  -559.340534088     a.u. after    1 cycles

 The electronic state is 2-A.
 Alpha  occ. eigenvalues --  -14.25270 -10.10708 -10.10007 -10.09474 -10.08779
 Alpha  occ. eigenvalues --  -10.08402 -10.07538 -10.07265 -10.07069 -10.07059
 Alpha  occ. eigenvalues --  -10.06832 -10.06783 -10.06543 -10.06068  -0.88370
 Alpha  occ. eigenvalues --   -0.74785  -0.72132  -0.69278  -0.65589  -0.62973
 Alpha  occ. eigenvalues --   -0.62647  -0.58629  -0.53753  -0.51241  -0.48542
 Alpha  occ. eigenvalues --   -0.46944  -0.45811  -0.41062  -0.39334  -0.37851
 Alpha  occ. eigenvalues --   -0.36897  -0.35458  -0.35017  -0.34295  -0.32707
 Alpha  occ. eigenvalues --   -0.32431  -0.31584  -0.29245  -0.28746  -0.27871
 Alpha  occ. eigenvalues --   -0.27243  -0.26273  -0.26015  -0.24685  -0.23843
 Alpha  occ. eigenvalues --   -0.22806  -0.18106  -0.16837  -0.12530  -0.10365
 Alpha  occ. eigenvalues --    0.04567
 Alpha virt. eigenvalues --    0.06630   0.06838   0.07142   0.08027   0.08185
 Alpha virt. eigenvalues --    0.08689   0.08960   0.09157   0.10331   0.10618
 Alpha virt. eigenvalues --    0.10984   0.11388   0.11624   0.12577   0.13038

  Beta  occ. eigenvalues --  -14.25271 -10.10667 -10.10007 -10.09417 -10.08763
  Beta  occ. eigenvalues --  -10.08391 -10.07525 -10.07242 -10.07053 -10.07041
  Beta  occ. eigenvalues --  -10.06834 -10.06775 -10.06542 -10.06029  -0.88348
  Beta  occ. eigenvalues --   -0.74757  -0.72096  -0.69236  -0.65548  -0.62938
  Beta  occ. eigenvalues --   -0.62601  -0.58578  -0.53687  -0.51159  -0.48510
  Beta  occ. eigenvalues --   -0.46891  -0.45772  -0.41007  -0.39298  -0.37799
  Beta  occ. eigenvalues --   -0.36868  -0.35407  -0.34978  -0.34263  -0.32665
  Beta  occ. eigenvalues --   -0.32401  -0.31542  -0.29212  -0.28698  -0.27812
  Beta  occ. eigenvalues --   -0.27206  -0.26244  -0.25984  -0.24649  -0.23818
  Beta  occ. eigenvalues --   -0.22726  -0.18037  -0.16765  -0.12447  -0.10281
  Beta virt. eigenvalues --    0.06525   0.07138   0.07336   0.07625   0.08511
  Beta virt. eigenvalues --    0.08607   0.08908   0.09386   0.09753   0.10768
  Beta virt. eigenvalues --    0.10894   0.11376   0.11699   0.11799   0.12861

 Mulliken charges and spin densities:
               1          2
     1  C    1.491035  -1.962375
     2  C   -0.496174   0.360963
     3  N    0.202119   0.063282
     4  C    1.095621  -1.398216
     5  C    0.419455  -0.330542
     6  C    0.156383   1.307014
     7  C   -0.303594  -0.746349
     8  C   -0.579294   0.016158
     9  C    0.996731  -1.296736
    10  C    0.666759  -1.149273
    11  C   -1.319097   1.332071
    12  C   -0.006956  -0.382095
    13  C   -0.296244   0.465471
    14  C   -0.030880  -0.488421
    15  H   -0.085057   0.224497
    16  H   -0.620141   0.766135
    17  H   -0.038881   0.189265
    18  H   -0.359532   0.512020
    19  H   -0.783220   0.950778
    20  H   -0.916740   1.116881
    21  H    0.145049  -0.041951
    22  H    0.039950   0.104477
    23  H   -0.060415   0.211489
    24  H   -0.265828   0.426460
    25  H   -0.070596   0.213773
    26  H   -0.083555   0.248575
    27  H    0.008941   0.157343
    28  H    0.082994   0.027738
    29  H    0.011168   0.101570
 Sum of Mulliken charges =  -1.00000   1.00000

 Dipole moment (field-independent basis, Debye):
    X=             -7.1613    Y=              5.3753    Z=              1.2876  Tot=              9.0463
 Quadrupole moment (field-independent basis, Debye-Ang):
   XX=           -158.6718   YY=           -140.2180   ZZ=           -113.1778
   XY=             10.5500   XZ=             -0.9748   YZ=             -4.9806

 Summary of Natural Population Analysis:

                                       Natural Population
                Natural  -----------------------------------------------
    Atom  No    Charge         Core      Valence    Rydberg      Total
 -----------------------------------------------------------------------
      C    1   -0.28827      0.99966     2.28345    0.00516     3.28827
      C    2   -0.08240      0.99962     2.07107    0.01170     3.08240
      N    3   -0.20990      0.99962     2.69805    0.01223     3.70990
      C    4    0.02227      0.99948     1.96633    0.01192     2.97773
      C    5   -0.06704      0.99951     2.05429    0.01323     3.06704
      C    6   -0.00874      0.99947     2.00290    0.00637     3.00874
      C    7   -0.10504      0.99957     2.09421    0.01125     3.10504
      C    8   -0.12210      0.99958     2.11210    0.01042     3.12210
      C    9   -0.10697      0.99958     2.09747    0.00992     3.10697
      C   10   -0.11794      0.99952     2.10836    0.01006     3.11794
      C   11    0.07893      0.99950     1.90894    0.01262     2.92107
      C   12   -0.21481      0.99958     2.20391    0.01131     3.21481
      C   13   -0.06742      0.99956     2.05849    0.00936     3.06742
      C   14   -0.20369      0.99956     2.19722    0.00691     3.20369
      H   15    0.09870      0.00000     0.40003    0.00127     0.40130
      H   16    0.10451      0.00000     0.39303    0.00246     0.39549
      H   17    0.09902      0.00000     0.39977    0.00120     0.40098
      H   18    0.09921      0.00000     0.39853    0.00226     0.40079
      H   19    0.10439      0.00000     0.39130    0.00431     0.39561
      H   20    0.10380      0.00000     0.39402    0.00218     0.39620
      H   21    0.10140      0.00000     0.39691    0.00169     0.39860
      H   22    0.09607      0.00000     0.40317    0.00076     0.40393
      H   23    0.09764      0.00000     0.40153    0.00083     0.40236
      H   24    0.10587      0.00000     0.39288    0.00125     0.39413
      H   25    0.09974      0.00000     0.39839    0.00187     0.40026
      H   26    0.10972      0.00000     0.38878    0.00150     0.39028
      H   27    0.09301      0.00000     0.40585    0.00113     0.40699
      H   28    0.09172      0.00000     0.40727    0.00100     0.40828
      H   29    0.08837      0.00000     0.41030    0.00133     0.41163
 =======================================================================
   * Total *    0.00006     13.99383    35.83858    0.16754    49.99994

 Normal termination of Gaussian 16 at Thu Dec 10 10:02:18 2020.
