 Gaussian 16, Revision A.03,

 -----------------------------------------------------------
 # opt freq B3LYP/6-31G(d) empiricaldispersion=gd3bj scf=xqc
 -----------------------------------------------------------

 -----------------------------
 CID_21299748_JID_735_neutraal
 -----------------------------
 Symbolic Z-matrix:
 Charge =  0 Multiplicity = 1

 SCF Done:  E(RB3LYP) =  -607.305429087     A.U. after   15 cycles
 SCF Done:  E(RB3LYP) =  -607.311348105     A.U. after   14 cycles
 SCF Done:  E(RB3LYP) =  -607.313084283     A.U. after   13 cycles
 SCF Done:  E(RB3LYP) =  -607.313698954     A.U. after   13 cycles
 SCF Done:  E(RB3LYP) =  -607.313263911     A.U. after   14 cycles
 SCF Done:  E(RB3LYP) =  -607.314381454     A.U. after   13 cycles
 SCF Done:  E(RB3LYP) =  -607.314992546     A.U. after   12 cycles
 SCF Done:  E(RB3LYP) =  -607.315017736     A.U. after   12 cycles
 SCF Done:  E(RB3LYP) =  -607.315113180     A.U. after   12 cycles
 SCF Done:  E(RB3LYP) =  -607.315133713     A.U. after   11 cycles
 SCF Done:  E(RB3LYP) =  -607.315143575     A.U. after   11 cycles
 SCF Done:  E(RB3LYP) =  -607.315145802     A.U. after    9 cycles
 SCF Done:  E(RB3LYP) =  -607.315146495     A.U. after    9 cycles
 Optimization completed.
    -- Stationary point found.
 Normal termination of Gaussian 16 at Tue Dec  8 12:28:30 2020.

 --------------------------------------------------------------------
 #N Geom=AllCheck Guess=TCheck SCRF=Check GenChk RB3LYP/6-31G(d) Freq
 --------------------------------------------------------------------

 Structure from the checkpoint file:  "JID_735.chk"
 -----------------------------
 CID_21299748_JID_735_neutraal
 -----------------------------
 Charge =  0 Multiplicity = 1

 SCF Done:  E(RB3LYP) =  -607.315146495     A.U. after    1 cycles

  Exact polarizability:  71.355  -6.075  53.032  -4.796   0.250  55.657
 Approx polarizability: 102.855 -11.185  76.785 -10.385  -5.646  88.765

                      1                      2                      3
                      A                      A                      A
 Frequencies --     44.9616                66.2078                81.6811
 Red. masses --     12.4310                 7.7914                 9.1148
 Frc consts  --      0.0148                 0.0201                 0.0358
 IR Inten    --      1.4531                 2.5906                 2.7590

                      4                      5                      6
                      A                      A                      A
 Frequencies --    138.6627               181.1578               198.7478
 Red. masses --      5.5760                 7.9735                 6.1710
 Frc consts  --      0.0632                 0.1542                 0.1436
 IR Inten    --      1.2730                 1.8741                 1.8865

                      7                      8                      9
                      A                      A                      A
 Frequencies --    291.1042               327.7777               380.0101
 Red. masses --      2.4674                 2.1458                 1.6348
 Frc consts  --      0.1232                 0.1358                 0.1391
 IR Inten    --     48.5373                42.6030                56.7889

                     10                     11                     12
                      A                      A                      A
 Frequencies --    389.1548               400.3888               467.3883
 Red. masses --      2.8922                 1.9502                 4.2404
 Frc consts  --      0.2581                 0.1842                 0.5458
 IR Inten    --     27.8476                27.2739                 6.7108

                     13                     14                     15
                      A                      A                      A
 Frequencies --    517.3488               546.2651               609.6654
 Red. masses --      2.1490                 4.1722                 3.2637
 Frc consts  --      0.3389                 0.7335                 0.7147
 IR Inten    --     17.6294                84.2390                27.2068

                     16                     17                     18
                      A                      A                      A
 Frequencies --    650.8377               699.1145               801.2458
 Red. masses --      2.1272                 2.8456                 4.1737
 Frc consts  --      0.5309                 0.8195                 1.5787
 IR Inten    --     81.8907                21.6309                21.8814

                     19                     20                     21
                      A                      A                      A
 Frequencies --    878.8450               927.8614               944.9680
 Red. masses --      5.6969                12.1815                 2.5626
 Frc consts  --      2.5924                 6.1790                 1.3482
 IR Inten    --      6.1482                18.8548                 5.9134

                     22                     23                     24
                      A                      A                      A
 Frequencies --    952.3093              1047.6499              1135.3213
 Red. masses --      5.0101                 2.4622                 2.7172
 Frc consts  --      2.6770                 1.5922                 2.0635
 IR Inten    --      8.2464                 2.8903               120.2767

                     25                     26                     27
                      A                      A                      A
 Frequencies --   1182.2801              1250.4830              1268.4521
 Red. masses --      2.4488                 2.2736                 1.6248
 Frc consts  --      2.0167                 2.0947                 1.5403
 IR Inten    --    214.9954                98.2140                88.5608

                     28                     29                     30
                      A                      A                      A
 Frequencies --   1276.5467              1354.8787              1362.1111
 Red. masses --      1.2430                 1.6616                 1.6457
 Frc consts  --      1.1934                 1.7971                 1.7990
 IR Inten    --     19.5763                15.4879                31.4302

                     31                     32                     33
                      A                      A                      A
 Frequencies --   1409.5347              1452.6976              1487.5980
 Red. masses --      1.8632                 1.5303                 1.0883
 Frc consts  --      2.1811                 1.9027                 1.4189
 IR Inten    --     34.5040                71.6893                 9.8736

                     34                     35                     36
                      A                      A                      A
 Frequencies --   1527.9800              1804.3518              1868.8905
 Red. masses --      1.1682                 9.7615                 9.9495
 Frc consts  --      1.6070                18.7244                20.4748
 IR Inten    --    121.9086               170.0852               311.7526

                     37                     38                     39
                      A                      A                      A
 Frequencies --   2990.1742              3086.1511              3156.7875
 Red. masses --      1.0820                 1.0659                 1.0986
 Frc consts  --      5.6999                 5.9813                 6.4503
 IR Inten    --     30.8580                 1.7649                 3.0109

                     40                     41                     42
                      A                      A                      A
 Frequencies --   3467.1442              3676.7323              3691.4796
 Red. masses --      1.0661                 1.0653                 1.0642
 Frc consts  --      7.5509                 8.4851                 8.5443
 IR Inten    --     51.9281                67.3213                61.3047

 - Thermochemistry -
 -------------------
 Temperature   298.150 Kelvin.  Pressure   1.00000 Atm.
 Atom     1 has atomic number  6 and mass  12.00000

 Molecular mass:   150.01644 amu.
 Principal axes and moments of inertia in atomic units:
                           1         2         3
     Eigenvalues --   841.029901934.548282246.16448
           X            0.99996   0.00046  -0.00870
           Y           -0.00013   0.99928   0.03806
           Z            0.00871  -0.03805   0.99924
 This molecule is an asymmetric top.
 Rotational symmetry number  1.
 Warning -- assumption of classical behavior for rotation
           may cause significant error
 Rotational temperatures (Kelvin)      0.10299     0.04477     0.03856
 Rotational constants (GHZ):           2.14587     0.93290     0.80348
 Zero-point vibrational energy     299024.2 (Joules/Mol)
                                   71.46851 (Kcal/Mol)
 Warning -- explicit consideration of  15 degrees of freedom as
           vibrations may cause significant error
 Vibrational temperatures:     64.69    95.26   117.52   199.50   260.65
          (Kelvin)            285.95   418.83   471.60   546.75   559.91
                              576.07   672.47   744.35   785.95   877.17
                              936.41  1005.87  1152.81  1264.46  1334.99
                             1359.60  1370.16  1507.33  1633.47  1701.04
                             1799.17  1825.02  1836.67  1949.37  1959.77
                             2028.01  2090.11  2140.32  2198.42  2596.06
                             2688.92  4302.19  4440.28  4541.91  4988.45
                             5290.00  5311.22

 Zero-point correction=                           0.113892 (Hartree/Particle)
 Thermal correction to Energy=                    0.124217
 Thermal correction to Enthalpy=                  0.125161
 Thermal correction to Gibbs Free Energy=         0.077227
 Sum of electronic and zero-point Energies=           -607.201254
 Sum of electronic and thermal Energies=              -607.190930
 Sum of electronic and thermal Enthalpies=            -607.189986
 Sum of electronic and thermal Free Energies=         -607.237919

                     E (Thermal)             CV                S
                      KCal/Mol        Cal/Mol-Kelvin    Cal/Mol-Kelvin
 Total                   77.947             36.165            100.884
 Electronic               0.000              0.000              0.000
 Translational            0.889              2.981             40.927
 Rotational               0.889              2.981             29.681
 Vibrational             76.170             30.204             30.276
 Vibration     1          0.595              1.979              5.028
 Vibration     2          0.598              1.970              4.263
 Vibration     3          0.600              1.962              3.850
 Vibration     4          0.614              1.915              2.822
 Vibration     5          0.630              1.865              2.316
 Vibration     6          0.637              1.842              2.145
 Vibration     7          0.687              1.690              1.468
 Vibration     8          0.711              1.620              1.271
 Vibration     9          0.750              1.513              1.039
 Vibration    10          0.757              1.493              1.003
 Vibration    11          0.766              1.469              0.961
 Vibration    12          0.825              1.322              0.745
 Vibration    13          0.872              1.212              0.616
 Vibration    14          0.901              1.148              0.552
 Vibration    15          0.969              1.011              0.433

 Optimization completed.
    -- Stationary point found.
 Normal termination of Gaussian 16 at Tue Dec  8 12:32:29 2020.

 ----------------------------------------------------------------------
 # B3LYP/6-311++G(d,p) empiricaldispersion=gd3bj scf=xqc pop=npa geom=c
 heck
 ----------------------------------------------------------------------

 -------------------------------------
 CID_21299748_JID_735_Energie_neutraal
 -------------------------------------
 Structure from the checkpoint file:  "JID_735.chk"
 Charge =  0 Multiplicity = 1

 SCF Done:  E(RB3LYP) =  -607.526504542     A.U. after   14 cycles
 Normal termination of Gaussian 16 at Tue Dec  8 12:40:05 2020.

 ----------------------------------------------------------------------
 # B3LYP/6-311++G(d,p) empiricaldispersion=gd3bj scf=xqc pop=npa geom=c
 heck
 ----------------------------------------------------------------------

 -----------------------------------
 CID_21299748_JID_735_Energie_kation
 -----------------------------------
 Structure from the checkpoint file:  "JID_735.chk"
 Charge =  1 Multiplicity = 2

 SCF Done:  E(UB3LYP) =  -607.148574837     A.U. after   24 cycles
 Normal termination of Gaussian 16 at Tue Dec  8 12:43:31 2020.
 Gaussian 16:  ES64L-G16RevA.03 25-Dec-2016

 ----------------------------------------------------------------------
 # B3LYP/6-311++G(d,p) empiricaldispersion=gd3bj scf=xqc pop=npa geom=c
 heck
 ----------------------------------------------------------------------

 ----------------------------------
 CID_21299748_JID_735_Energie_anion
 ----------------------------------
 Structure from the checkpoint file:  "JID_735.chk"
 Charge = -1 Multiplicity = 2

                         Standard orientation:
 ---------------------------------------------------------------------
 Center     Atomic      Atomic             Coordinates (Angstroms)
 Number     Number       Type             X           Y           Z
 ---------------------------------------------------------------------
      1          6           0       -1.147460    0.154151    1.100186
      2          6           0       -0.043476    1.096037    0.606711
      3          6           0        1.154113    0.379394   -0.008295
      4          8           0        1.683089    0.716689   -1.051253
      5          8           0        1.615479   -0.615530    0.761228
      6          8           0        2.796288   -1.222981    0.189166
      7          8           0       -0.578534    1.991201   -0.336977
      8          6           0       -1.847502   -0.591018   -0.018019
      9          8           0       -3.038244   -0.768616   -0.101845
     10          8           0       -0.962348   -1.083494   -0.920963
     11          1           0       -1.906431    0.736595    1.625193
     12          1           0       -0.728440   -0.575491    1.802754
     13          1           0        0.351261    1.641080    1.480784
     14          1           0        2.873834   -0.701404   -0.647997
     15          1           0        0.075766    2.071964   -1.054803
     16          1           0       -1.485886   -1.542282   -1.604276
 ---------------------------------------------------------------------

 SCF Done:  E(UB3LYP) =  -607.519113779     A.U. after   31 cycles

 The electronic state is 2-A.
 Alpha  occ. eigenvalues --  -19.10299 -19.06772 -19.06282 -19.02293 -19.01919
 Alpha  occ. eigenvalues --  -19.01323 -10.20538 -10.19579 -10.14397 -10.08852
 Alpha  occ. eigenvalues --   -1.05907  -1.00589  -0.95529  -0.92345  -0.91886
 Alpha  occ. eigenvalues --   -0.82991  -0.69011  -0.58759  -0.51904  -0.49574
 Alpha  occ. eigenvalues --   -0.45597  -0.41363  -0.40053  -0.38342  -0.36934
 Alpha  occ. eigenvalues --   -0.36110  -0.34565  -0.33088  -0.31356  -0.29645
 Alpha  occ. eigenvalues --   -0.29191  -0.28436  -0.25852  -0.25134  -0.22346
 Alpha  occ. eigenvalues --   -0.20346  -0.18938  -0.17858  -0.16805   0.04849
 Alpha virt. eigenvalues --    0.07414   0.07826   0.09043   0.10300   0.10711
 Alpha virt. eigenvalues --    0.11216   0.11540   0.12576   0.14994   0.16444
 Alpha virt. eigenvalues --    0.16824   0.17764   0.18410   0.18996   0.19413

  Beta  occ. eigenvalues --  -19.10091 -19.06551 -19.06223 -19.02265 -19.01834
  Beta  occ. eigenvalues --  -19.01308 -10.20538 -10.19462 -10.14389 -10.08824
  Beta  occ. eigenvalues --   -1.05425  -1.00524  -0.95318  -0.92227  -0.91826
  Beta  occ. eigenvalues --   -0.82563  -0.68923  -0.58588  -0.51685  -0.49361
  Beta  occ. eigenvalues --   -0.45505  -0.41164  -0.39860  -0.38120  -0.36819
  Beta  occ. eigenvalues --   -0.35988  -0.34432  -0.32716  -0.31290  -0.29573
  Beta  occ. eigenvalues --   -0.29080  -0.28266  -0.25607  -0.24882  -0.22293
  Beta  occ. eigenvalues --   -0.20254  -0.18852  -0.17735  -0.16540
  Beta virt. eigenvalues --    0.07829   0.08622   0.09333   0.09425   0.10784
  Beta virt. eigenvalues --    0.11251   0.11887   0.12018   0.13457   0.15162
  Beta virt. eigenvalues --    0.16560   0.16825   0.17898   0.18713   0.19168

 Mulliken charges and spin densities:
               1          2
     1  C    0.465575  -0.764365
     2  C    1.889194  -2.144425
     3  C   -0.648124   0.525360
     4  O   -0.372862   0.067145
     5  O   -0.036987   0.115974
     6  O   -0.149376   0.028223
     7  O   -0.255081   0.061825
     8  C   -0.127059   0.254373
     9  O   -0.325476   0.031809
    10  O   -0.160330  -0.009763
    11  H   -0.168685   0.401120
    12  H    0.089222   0.110181
    13  H   -0.739652   0.993217
    14  H   -0.270284   0.552656
    15  H    0.156662   0.100859
    16  H   -0.346736   0.675810
 Sum of Mulliken charges =  -1.00000   1.00000

 Dipole moment (field-independent basis, Debye):
    X=             -0.8406    Y=              0.2062    Z=              0.4939  Tot=              0.9966
 Quadrupole moment (field-independent basis, Debye-Ang):
   XX=           -104.0590   YY=            -86.8902   ZZ=            -81.9388
   XY=              2.9535   XZ=             -0.3579   YZ=             -7.0767

 Summary of Natural Population Analysis:

                                       Natural Population
                Natural  -----------------------------------------------
    Atom  No    Charge         Core      Valence    Rydberg      Total
 -----------------------------------------------------------------------
      C    1   -0.24402      0.99956     2.23503    0.00943     3.24402
      C    2    0.02735      0.99955     1.95615    0.01696     2.97265
      C    3    0.40918      0.99969     1.56712    0.02401     2.59082
      O    4   -0.32196      0.99986     3.31401    0.00809     4.32196
      O    5   -0.12737      0.99984     3.11754    0.00999     4.12737
      O    6   -0.19913      0.99991     3.19279    0.00643     4.19913
      O    7   -0.36964      0.99989     3.36245    0.00729     4.36964
      C    8    0.41337      0.99972     1.56201    0.02489     2.58663
      O    9   -0.30551      0.99987     3.29911    0.00654     4.30551
      O   10   -0.34424      0.99987     3.33609    0.00828     4.34424
      H   11    0.11646      0.00000     0.38198    0.00156     0.38354
      H   12    0.12100      0.00000     0.37718    0.00182     0.37900
      H   13    0.10130      0.00000     0.39222    0.00648     0.39870
      H   14    0.23580      0.00000     0.25678    0.00742     0.26420
      H   15    0.24219      0.00000     0.25405    0.00376     0.25781
      H   16    0.24522      0.00000     0.24289    0.01188     0.25478
 =======================================================================
   * Total *    0.00000      9.99776    28.84740    0.15484    39.00000

 Normal termination of Gaussian 16 at Tue Dec  8 12:50:17 2020.
