 Gaussian 16, Revision A.03,

 -----------------------------------------------------------
 # opt freq B3LYP/6-31G(d) empiricaldispersion=gd3bj scf=xqc
 -----------------------------------------------------------

 ------------------------------
 CID_89017297_JID_7309_neutraal
 ------------------------------
 Symbolic Z-matrix:
 Charge =  0 Multiplicity = 1

 SCF Done:  E(RB3LYP) =  -1058.31656455     A.U. after   14 cycles
 SCF Done:  E(RB3LYP) =  -1058.31886995     A.U. after   12 cycles
 SCF Done:  E(RB3LYP) =  -1058.31679800     A.U. after   14 cycles
 SCF Done:  E(RB3LYP) =  -1058.31885912     A.U. after   12 cycles
 SCF Done:  E(RB3LYP) =  -1058.31912019     A.U. after    9 cycles
 SCF Done:  E(RB3LYP) =  -1058.31904864     A.U. after   12 cycles
 SCF Done:  E(RB3LYP) =  -1058.31921384     A.U. after   11 cycles
 SCF Done:  E(RB3LYP) =  -1058.31934544     A.U. after   10 cycles
 SCF Done:  E(RB3LYP) =  -1058.31942795     A.U. after   11 cycles
 SCF Done:  E(RB3LYP) =  -1058.31937653     A.U. after   13 cycles
 SCF Done:  E(RB3LYP) =  -1058.31971533     A.U. after   10 cycles
 SCF Done:  E(RB3LYP) =  -1058.31971535     A.U. after    9 cycles
 SCF Done:  E(RB3LYP) =  -1058.31971568     A.U. after    8 cycles
 SCF Done:  E(RB3LYP) =  -1058.31971575     A.U. after    7 cycles
 SCF Done:  E(RB3LYP) =  -1058.31971576     A.U. after    6 cycles
 Optimization completed.
    -- Stationary point found.
 Normal termination of Gaussian 16 at Mon Dec 14 16:51:14 2020.

 --------------------------------------------------------------------
 #N Geom=AllCheck Guess=TCheck SCRF=Check GenChk RB3LYP/6-31G(d) Freq
 --------------------------------------------------------------------

 Structure from the checkpoint file:  "JID_7309.chk"
 ------------------------------
 CID_89017297_JID_7309_neutraal
 ------------------------------
 Charge =  0 Multiplicity = 1

 SCF Done:  E(RB3LYP) =  -1058.31971576     A.U. after    1 cycles

  Exact polarizability: 215.257 -12.295 198.955  -6.673   2.823 118.181
 Approx polarizability: 289.856 -25.162 307.434 -18.724  12.504 191.667

                      1                      2                      3
                      A                      A                      A
 Frequencies --     17.1235                28.2573                37.9286
 Red. masses --      4.2761                 3.5930                 3.5186
 Frc consts  --      0.0007                 0.0017                 0.0030
 IR Inten    --      0.2498                 0.2812                 0.0681

                      4                      5                      6
                      A                      A                      A
 Frequencies --     48.0372                59.4313                66.4168
 Red. masses --      4.7455                 3.3231                 2.7715
 Frc consts  --      0.0065                 0.0069                 0.0072
 IR Inten    --      0.0736                 0.1299                 0.4304

                      7                      8                      9
                      A                      A                      A
 Frequencies --    128.8552               137.1389               141.0988
 Red. masses --      1.0941                 3.2468                 1.1803
 Frc consts  --      0.0107                 0.0360                 0.0138
 IR Inten    --      0.1295                 0.5706                 0.4598

                     10                     11                     12
                      A                      A                      A
 Frequencies --    145.3722               182.2347               201.4662
 Red. masses --      2.1464                 2.3343                 3.3875
 Frc consts  --      0.0267                 0.0457                 0.0810
 IR Inten    --      0.0227                 0.1136                 1.1051

                     13                     14                     15
                      A                      A                      A
 Frequencies --    208.1206               228.9387               255.5348
 Red. masses --      2.9216                 2.7733                 2.1978
 Frc consts  --      0.0746                 0.0856                 0.0846
 IR Inten    --      1.6947                 1.3234                 0.0451

                     16                     17                     18
                      A                      A                      A
 Frequencies --    265.2396               301.6859               317.2509
 Red. masses --      6.0873                 2.7594                 3.7270
 Frc consts  --      0.2523                 0.1480                 0.2210
 IR Inten    --      1.3176                 1.3760                 5.1130

                     19                     20                     21
                      A                      A                      A
 Frequencies --    326.6468               359.8300               366.3924
 Red. masses --      2.2118                 2.9760                 3.2192
 Frc consts  --      0.1390                 0.2270                 0.2546
 IR Inten    --      0.9597                 1.1084                 1.7266

                     22                     23                     24
                      A                      A                      A
 Frequencies --    375.0278               409.4520               450.3913
 Red. masses --      1.1785                 3.1144                 2.9336
 Frc consts  --      0.0977                 0.3076                 0.3506
 IR Inten    --    113.6151                 1.5044                 2.1568

                     25                     26                     27
                      A                      A                      A
 Frequencies --    499.8641               521.4051               534.6889
 Red. masses --      1.9675                 4.1081                 3.1241
 Frc consts  --      0.2897                 0.6580                 0.5262
 IR Inten    --      2.3753                 3.7979                 0.6928

                     28                     29                     30
                      A                      A                      A
 Frequencies --    564.7070               585.1265               611.8164
 Red. masses --      3.7120                 4.7259                 3.6206
 Frc consts  --      0.6974                 0.9533                 0.7985
 IR Inten    --      4.1711                 1.7793                 0.5908

                     31                     32                     33
                      A                      A                      A
 Frequencies --    649.9623               662.4884               681.0414
 Red. masses --      6.4248                 2.6897                 1.7822
 Frc consts  --      1.5991                 0.6955                 0.4870
 IR Inten    --      3.8076                 2.3942                 8.7889

                     34                     35                     36
                      A                      A                      A
 Frequencies --    726.5260               752.7515               817.7449
 Red. masses --      3.6809                 1.3350                 1.9971
 Frc consts  --      1.1447                 0.4457                 0.7868
 IR Inten    --      0.3844                11.4732                 2.5892

                     37                     38                     39
                      A                      A                      A
 Frequencies --    828.6456               849.2682               870.1564
 Red. masses --      1.4011                 1.6487                 1.3939
 Frc consts  --      0.5668                 0.7006                 0.6219
 IR Inten    --     15.7181                 8.8092                14.8007

                     40                     41                     42
                      A                      A                      A
 Frequencies --    881.2432               934.7802               938.4049
 Red. masses --      2.0129                 1.7101                 1.3814
 Frc consts  --      0.9210                 0.8804                 0.7167
 IR Inten    --      1.4107                 4.4311                45.9249

                     43                     44                     45
                      A                      A                      A
 Frequencies --    960.8683               971.8093              1000.4788
 Red. masses --      1.6590                 3.4311                 2.3850
 Frc consts  --      0.9025                 1.9092                 1.4066
 IR Inten    --      0.1513                 3.5602                 3.8839

                     46                     47                     48
                      A                      A                      A
 Frequencies --   1018.7938              1036.1087              1054.9929
 Red. masses --      1.6259                 1.1198                 2.0135
 Frc consts  --      0.9943                 0.7083                 1.3204
 IR Inten    --      2.5158                14.2696                12.1977

                     49                     50                     51
                      A                      A                      A
 Frequencies --   1062.1024              1066.0563              1068.0435
 Red. masses --      1.6754                 1.6000                 1.8233
 Frc consts  --      1.1135                 1.0714                 1.2254
 IR Inten    --      1.1876                 5.5363                 3.6840

                     52                     53                     54
                      A                      A                      A
 Frequencies --   1071.9584              1082.5618              1090.2647
 Red. masses --      1.5077                 6.0074                 1.8578
 Frc consts  --      1.0208                 4.1480                 1.3011
 IR Inten    --      1.2986                10.0721                 1.2959

                     55                     56                     57
                      A                      A                      A
 Frequencies --   1096.8197              1130.7208              1184.0959
 Red. masses --      2.2983                 1.3323                 1.2781
 Frc consts  --      1.6290                 1.0036                 1.0558
 IR Inten    --      0.9709                 3.0528                 0.8696

                     58                     59                     60
                      A                      A                      A
 Frequencies --   1194.2834              1204.5008              1227.3216
 Red. masses --      1.4696                 1.5478                 1.3174
 Frc consts  --      1.2350                 1.3231                 1.1692
 IR Inten    --      0.6821               125.0903                67.3063

                     61                     62                     63
                      A                      A                      A
 Frequencies --   1265.0133              1272.9488              1304.6242
 Red. masses --      1.3580                 1.6941                 1.3129
 Frc consts  --      1.2804                 1.6174                 1.3166
 IR Inten    --      3.2382                33.4003                 2.3555

                     64                     65                     66
                      A                      A                      A
 Frequencies --   1325.0906              1332.0256              1344.8147
 Red. masses --      1.2559                 1.2212                 1.2381
 Frc consts  --      1.2992                 1.2767                 1.3192
 IR Inten    --     19.2637                 3.1897                 4.1469

                     67                     68                     69
                      A                      A                      A
 Frequencies --   1351.7144              1366.0906              1370.2095
 Red. masses --      4.5236                 5.6411                 1.1943
 Frc consts  --      4.8697                 6.2026                 1.3211
 IR Inten    --     33.7003                92.9370                 4.7623

                     70                     71                     72
                      A                      A                      A
 Frequencies --   1375.5915              1403.5044              1426.3155
 Red. masses --      1.2951                 1.4241                 1.4948
 Frc consts  --      1.4439                 1.6528                 1.7918
 IR Inten    --      3.6577                10.9381                 1.3185

                     73                     74                     75
                      A                      A                      A
 Frequencies --   1440.6789              1446.4814              1467.3600
 Red. masses --      1.2404                 1.2566                 2.3869
 Frc consts  --      1.5169                 1.5491                 3.0280
 IR Inten    --      3.7702                 0.6925                14.0617

                     76                     77                     78
                      A                      A                      A
 Frequencies --   1476.3664              1496.0546              1506.0063
 Red. masses --      1.1848                 1.6969                 1.0581
 Frc consts  --      1.5215                 2.2377                 1.4139
 IR Inten    --      1.5902                26.3298                 9.9125

                     79                     80                     81
                      A                      A                      A
 Frequencies --   1509.6451              1512.4859              1514.1359
 Red. masses --      1.0523                 1.0927                 1.0906
 Frc consts  --      1.4130                 1.4728                 1.4731
 IR Inten    --      4.8269                 0.2818                 4.4196

                     82                     83                     84
                      A                      A                      A
 Frequencies --   1516.2401              1520.4482              1525.1986
 Red. masses --      1.1084                 1.1003                 1.3236
 Frc consts  --      1.5013                 1.4986                 1.8141
 IR Inten    --      8.6615                 2.0102                23.1631

                     85                     86                     87
                      A                      A                      A
 Frequencies --   1528.7076              1533.8904              1640.6837
 Red. masses --      1.0953                 1.3891                 6.6977
 Frc consts  --      1.5081                 1.9257                10.6225
 IR Inten    --      9.4590                37.2793                66.5086

                     88                     89                     90
                      A                      A                      A
 Frequencies --   1662.9246              1731.9172              3016.7217
 Red. masses --      5.4906                 4.4544                 1.0656
 Frc consts  --      8.9458                 7.8722                 5.7136
 IR Inten    --    105.8015                 6.3012                28.9424

                     91                     92                     93
                      A                      A                      A
 Frequencies --   3027.9346              3031.8644              3040.0998
 Red. masses --      1.0625                 1.0644                 1.0692
 Frc consts  --      5.7393                 5.7649                 5.8220
 IR Inten    --      6.2313                43.8991                33.5362

                     94                     95                     96
                      A                      A                      A
 Frequencies --   3057.7659              3065.9269              3066.8935
 Red. masses --      1.0365                 1.0380                 1.0840
 Frc consts  --      5.7097                 5.7490                 6.0073
 IR Inten    --     21.2524                21.2056                16.5889

                     97                     98                     99
                      A                      A                      A
 Frequencies --   3069.3478              3073.7820              3079.1294
 Red. masses --      1.0908                 1.0832                 1.0885
 Frc consts  --      6.0545                 6.0299                 6.0802
 IR Inten    --     43.4480                 8.0778                52.4896

                    100                    101                    102
                      A                      A                      A
 Frequencies --   3100.0646              3116.0676              3123.9854
 Red. masses --      1.0989                 1.0998                 1.1049
 Frc consts  --      6.2221                 6.2916                 6.3534
 IR Inten    --     61.8969                19.1630                22.1257

                    103                    104                    105
                      A                      A                      A
 Frequencies --   3126.8318              3132.1645              3136.7586
 Red. masses --      1.0995                 1.1029                 1.1029
 Frc consts  --      6.3336                 6.3748                 6.3937
 IR Inten    --     10.2634                18.0017                16.9571

                    106                    107                    108
                      A                      A                      A
 Frequencies --   3151.0082              3160.0725              3161.8031
 Red. masses --      1.0614                 1.0883                 1.0900
 Frc consts  --      6.2090                 6.4029                 6.4200
 IR Inten    --     19.9368                 7.1387                30.8149

                    109                    110                    111
                      A                      A                      A
 Frequencies --   3209.0978              3234.1130              3749.1868
 Red. masses --      1.0908                 1.1153                 1.0659
 Frc consts  --      6.6184                 6.8733                 8.8272
 IR Inten    --      8.1962                20.0152                47.2386

 - Thermochemistry -
 -------------------
 Temperature   298.150 Kelvin.  Pressure   1.00000 Atm.
 Atom     1 has atomic number  6 and mass  12.00000

 Molecular mass:   250.13914 amu.
 Principal axes and moments of inertia in atomic units:
                           1         2         3
     Eigenvalues --  2874.167967801.557929922.07622
           X            0.99985   0.01675   0.00317
           Y           -0.01670   0.99975  -0.01488
           Z           -0.00342   0.01482   0.99988
 This molecule is an asymmetric top.
 Rotational symmetry number  1.
 Warning -- assumption of classical behavior for rotation
           may cause significant error
 Rotational temperatures (Kelvin)      0.03014     0.01110     0.00873
 Rotational constants (GHZ):           0.62792     0.23133     0.18189
 Zero-point vibrational energy     888754.0 (Joules/Mol)
                                  212.41730 (Kcal/Mol)
 Warning -- explicit consideration of  30 degrees of freedom as
           vibrations may cause significant error
 Vibrational temperatures:     24.64    40.66    54.57    69.11    85.51
          (Kelvin)             95.56   185.39   197.31   203.01   209.16
                              262.20   289.86   299.44   329.39   367.66
                              381.62   434.06   456.45   469.97   517.72
                              527.16   539.58   589.11   648.01   719.19
                              750.19   769.30   812.49   841.87   880.27
                              935.15   953.17   979.87  1045.31  1083.04
                             1176.55  1192.24  1221.91  1251.96  1267.91
                             1344.94  1350.16  1382.48  1398.22  1439.47
                             1465.82  1490.73  1517.90  1528.13  1533.82
                             1536.68  1542.31  1557.57  1568.65  1578.08
                             1626.86  1703.65  1718.31  1733.01  1765.84
                             1820.07  1831.49  1877.06  1906.51  1916.49
                             1934.89  1944.82  1965.50  1971.43  1979.17
                             2019.33  2052.15  2072.82  2081.16  2111.20
                             2124.16  2152.49  2166.81  2172.04  2176.13
                             2178.50  2181.53  2187.59  2194.42  2199.47
                             2206.93  2360.58  2392.58  2491.84  4340.39
                             4356.52  4362.18  4374.03  4399.44  4411.19
                             4412.58  4416.11  4422.49  4430.18  4460.30
                             4483.33  4494.72  4498.81  4506.49  4513.10
                             4533.60  4546.64  4549.13  4617.18  4653.17
                             5394.24

 Zero-point correction=                           0.338509 (Hartree/Particle)
 Thermal correction to Energy=                    0.357878
 Thermal correction to Enthalpy=                  0.358822
 Thermal correction to Gibbs Free Energy=         0.288609
 Sum of electronic and zero-point Energies=          -1057.981207
 Sum of electronic and thermal Energies=             -1057.961838
 Sum of electronic and thermal Enthalpies=           -1057.960894
 Sum of electronic and thermal Free Energies=        -1058.031107

                     E (Thermal)             CV                S
                      KCal/Mol        Cal/Mol-Kelvin    Cal/Mol-Kelvin
 Total                  224.572             71.583            147.776
 Electronic               0.000              0.000              0.000
 Translational            0.889              2.981             42.451
 Rotational               0.889              2.981             33.764
 Vibrational            222.794             65.621             71.562
 Vibration     1          0.593              1.986              6.943
 Vibration     2          0.593              1.984              5.948
 Vibration     3          0.594              1.982              5.364
 Vibration     4          0.595              1.978              4.897
 Vibration     5          0.597              1.974              4.476
 Vibration     6          0.598              1.970              4.257
 Vibration     7          0.611              1.924              2.963
 Vibration     8          0.614              1.916              2.843
 Vibration     9          0.615              1.912              2.789
 Vibration    10          0.617              1.908              2.732
 Vibration    11          0.630              1.864              2.305
 Vibration    12          0.638              1.838              2.120
 Vibration    13          0.641              1.828              2.060
 Vibration    14          0.652              1.797              1.887
 Vibration    15          0.666              1.753              1.692
 Vibration    16          0.671              1.737              1.627
 Vibration    17          0.694              1.671              1.408
 Vibration    18          0.704              1.641              1.324
 Vibration    19          0.710              1.622              1.277
 Vibration    20          0.734              1.555              1.123
 Vibration    21          0.739              1.541              1.095
 Vibration    22          0.746              1.523              1.059
 Vibration    23          0.774              1.450              0.929
 Vibration    24          0.809              1.360              0.795
 Vibration    25          0.855              1.250              0.658
 Vibration    26          0.876              1.203              0.607
 Vibration    27          0.890              1.173              0.577
 Vibration    28          0.921              1.108              0.515
 Vibration    29          0.942              1.064              0.476
 Vibration    30          0.971              1.007              0.430

                           ! Non-Optimized Parameters !
 Normal termination of Gaussian 16 at Mon Dec 14 17:08:06 2020.

 ----------------------------------------------------------------------
 # B3LYP/6-311++G(d,p) empiricaldispersion=gd3bj scf=xqc pop=npa geom=c
 heck
 ----------------------------------------------------------------------

 --------------------------------------
 CID_89017297_JID_7309_Energie_neutraal
 --------------------------------------
 Structure from the checkpoint file:  "JID_7309.chk"
 Charge =  0 Multiplicity = 1

 SCF Done:  E(RB3LYP) =  -1058.53272840     A.U. after   15 cycles
 Normal termination of Gaussian 16 at Mon Dec 14 17:16:39 2020.

 ----------------------------------------------------------------------
 # B3LYP/6-311++G(d,p) empiricaldispersion=gd3bj scf=xqc pop=npa geom=c
 heck
 ----------------------------------------------------------------------

 ------------------------------------
 CID_89017297_JID_7309_Energie_kation
 ------------------------------------
 Structure from the checkpoint file:  "JID_7309.chk"
 Charge =  1 Multiplicity = 2

 SCF Done:  E(UB3LYP) =  -1058.24564818     A.U. after   29 cycles
 Normal termination of Gaussian 16 at Mon Dec 14 17:40:17 2020.
 Gaussian 16:  ES64L-G16RevA.03 25-Dec-2016

 ----------------------------------------------------------------------
 # B3LYP/6-311++G(d,p) empiricaldispersion=gd3bj scf=xqc pop=npa geom=c
 heck
 ----------------------------------------------------------------------

 -----------------------------------
 CID_89017297_JID_7309_Energie_anion
 -----------------------------------
 Structure from the checkpoint file:  "JID_7309.chk"
 Charge = -1 Multiplicity = 2

                         Standard orientation:
 ---------------------------------------------------------------------
 Center     Atomic      Atomic             Coordinates (Angstroms)
 Number     Number       Type             X           Y           Z
 ---------------------------------------------------------------------
      1          6           0        0.067890    1.710371   -0.542631
      2          6           0       -1.262762    1.052376   -0.274563
      3          6           0       -2.339635    1.841188    0.130509
      4          6           0       -3.584034    1.265615    0.386443
      5          6           0       -3.761691   -0.110033    0.237965
      6          6           0       -2.701921   -0.926233   -0.165850
      7          6           0       -1.445309   -0.341306   -0.418960
      8         16           0       -0.074438   -1.364417   -0.956092
      9          6           0        0.635349   -1.853136    0.680668
     10          6           0        2.045055   -2.427362    0.509848
     11          6           0        3.093728   -1.413892    0.029215
     12          6           0        3.419191   -0.328711    1.061501
     13          6           0        4.424734    0.727204    0.559379
     14          6           0        3.884622    1.579315   -0.556502
     15          6           0        3.648121    2.888574   -0.465111
     16          6           0       -2.934135   -2.409807   -0.316537
     17          8           0       -4.594482    2.097603    0.778996
     18          1           0        0.409371    1.521163   -1.565023
     19          1           0        0.003920    2.791995   -0.392589
     20          1           0        0.853878    1.326899    0.114942
     21          1           0       -2.225902    2.913855    0.249939
     22          1           0       -4.735417   -0.554500    0.437218
     23          1           0        0.639554   -0.966633    1.320549
     24          1           0       -0.024243   -2.594489    1.142531
     25          1           0        2.357049   -2.846507    1.476985
     26          1           0        2.002264   -3.271014   -0.191103
     27          1           0        4.018336   -1.951732   -0.220776
     28          1           0        2.739299   -0.953904   -0.899697
     29          1           0        2.503129    0.189916    1.370345
     30          1           0        3.825663   -0.805865    1.964263
     31          1           0        4.717710    1.373539    1.395929
     32          1           0        5.336951    0.211836    0.222436
     33          1           0        3.659908    1.069466   -1.493136
     34          1           0        3.240959    3.457562   -1.296447
     35          1           0        3.855950    3.442499    0.448523
     36          1           0       -3.976490   -2.663835   -0.101158
     37          1           0       -2.695374   -2.748918   -1.329228
     38          1           0       -2.297923   -2.986763    0.363724
     39          1           0       -5.396948    1.570322    0.915034
 ---------------------------------------------------------------------

 SCF Done:  E(UB3LYP) =  -1058.52155028     A.U. after   33 cycles
 SCF Done:  E(UB3LYP) =  -1058.52155028     a.u. after    1 cycles

 The electronic state is 2-A.
 Alpha  occ. eigenvalues --  -88.74450 -19.05895 -10.14506 -10.10730 -10.10127
 Alpha  occ. eigenvalues --  -10.10023 -10.10004 -10.09388 -10.08830 -10.08707
 Alpha  occ. eigenvalues --  -10.08271 -10.08207 -10.07863 -10.07691 -10.07670
 Alpha  occ. eigenvalues --  -10.07639 -10.07574  -7.83104  -5.79501  -5.79146
 Alpha  occ. eigenvalues --   -5.78454  -0.96983  -0.77671  -0.73662  -0.71478
 Alpha  occ. eigenvalues --   -0.69760  -0.68451  -0.65733  -0.62828  -0.60023
 Alpha  occ. eigenvalues --   -0.59729  -0.56760  -0.53167  -0.50893  -0.49262
 Alpha  occ. eigenvalues --   -0.48238  -0.46263  -0.43915  -0.40554  -0.39807
 Alpha  occ. eigenvalues --   -0.38952  -0.37522  -0.36559  -0.35378  -0.34356
 Alpha  occ. eigenvalues --   -0.33327  -0.32811  -0.32458  -0.31983  -0.31664
 Alpha  occ. eigenvalues --   -0.31252  -0.30945  -0.30066  -0.30049  -0.28608
 Alpha  occ. eigenvalues --   -0.28368  -0.27631  -0.25976  -0.25321  -0.25222
 Alpha  occ. eigenvalues --   -0.24189  -0.23810  -0.23227  -0.21607  -0.18150
 Alpha  occ. eigenvalues --   -0.15606  -0.13645  -0.13295   0.03936
 Alpha virt. eigenvalues --    0.05052   0.06328   0.06909   0.06971   0.07339
 Alpha virt. eigenvalues --    0.07653   0.07742   0.08144   0.08857   0.09250
 Alpha virt. eigenvalues --    0.09459   0.09718   0.10093   0.11020   0.11314

  Beta  occ. eigenvalues --  -88.74449 -19.05841 -10.14506 -10.10720 -10.10123
  Beta  occ. eigenvalues --  -10.10023 -10.10002 -10.09374 -10.08817 -10.08691
  Beta  occ. eigenvalues --  -10.08249 -10.08189 -10.07853 -10.07687 -10.07639
  Beta  occ. eigenvalues --  -10.07632 -10.07556  -7.83103  -5.79500  -5.79144
  Beta  occ. eigenvalues --   -5.78453  -0.96879  -0.77656  -0.73632  -0.71448
  Beta  occ. eigenvalues --   -0.69745  -0.68422  -0.65700  -0.62804  -0.59990
  Beta  occ. eigenvalues --   -0.59699  -0.56723  -0.53115  -0.50827  -0.49230
  Beta  occ. eigenvalues --   -0.48199  -0.46211  -0.43850  -0.40527  -0.39783
  Beta  occ. eigenvalues --   -0.38922  -0.37490  -0.36520  -0.35345  -0.34341
  Beta  occ. eigenvalues --   -0.33296  -0.32784  -0.32443  -0.31953  -0.31636
  Beta  occ. eigenvalues --   -0.31207  -0.30913  -0.30049  -0.30016  -0.28585
  Beta  occ. eigenvalues --   -0.28342  -0.27605  -0.25953  -0.25288  -0.25187
  Beta  occ. eigenvalues --   -0.24166  -0.23783  -0.23201  -0.21585  -0.18045
  Beta  occ. eigenvalues --   -0.15592  -0.13641  -0.13274
  Beta virt. eigenvalues --    0.05808   0.06523   0.06763   0.07081   0.07259
  Beta virt. eigenvalues --    0.07672   0.07763   0.08022   0.08386   0.09047
  Beta virt. eigenvalues --    0.09287   0.09580   0.09991   0.10362   0.11106

 Mulliken charges and spin densities:
               1          2
     1  C   -0.462353  -0.006571
     2  C    0.439089   0.345725
     3  C    0.000296  -0.488445
     4  C    1.499724  -2.245583
     5  C   -0.799590   0.609554
     6  C   -0.883547   1.347922
     7  C    0.059166   0.261847
     8  S    0.317489  -0.724209
     9  C   -0.892653   0.448086
    10  C    0.585709  -1.093258
    11  C   -0.260383   0.238204
    12  C    0.411052  -0.472357
    13  C    0.155124  -0.977877
    14  C   -0.218699   0.685367
    15  C   -0.196849  -0.351460
    16  C    0.694463  -1.163100
    17  O   -0.274389   0.047426
    18  H    0.104077   0.067555
    19  H    0.211740  -0.051331
    20  H    0.154419  -0.069198
    21  H    0.067876   0.099841
    22  H   -1.060226   1.205610
    23  H   -0.026181   0.185808
    24  H    0.190880   0.032590
    25  H   -0.228178   0.378991
    26  H    0.035244   0.129649
    27  H   -0.071273   0.256644
    28  H    0.049466  -0.006863
    29  H    0.107180  -0.002164
    30  H   -0.230462   0.408526
    31  H   -0.066142   0.227485
    32  H   -0.133256   0.262908
    33  H    0.083533   0.081073
    34  H    0.079540   0.023009
    35  H    0.019295   0.106789
    36  H   -0.254755   0.420788
    37  H    0.103656   0.050712
    38  H    0.033030   0.095712
    39  H   -0.343112   0.634596
 Sum of Mulliken charges =  -1.00000   1.00000

 Dipole moment (field-independent basis, Debye):
    X=              5.6729    Y=              1.0779    Z=             -3.1999  Tot=              6.6017
 Quadrupole moment (field-independent basis, Debye-Ang):
   XX=           -251.6212   YY=           -154.1541   ZZ=           -142.9413
   XY=              8.1980   XZ=              2.3832   YZ=              1.3452

 Summary of Natural Population Analysis:

                                       Natural Population
                Natural  -----------------------------------------------
    Atom  No    Charge         Core      Valence    Rydberg      Total
 -----------------------------------------------------------------------
      C    1   -0.29318      0.99963     2.28806    0.00549     3.29318
      C    2   -0.00306      0.99946     1.99407    0.00953     3.00306
      C    3   -0.13139      0.99946     2.12239    0.00954     3.13139
      C    4    0.17216      0.99938     1.81528    0.01318     2.82784
      C    5   -0.13980      0.99946     2.12939    0.01095     3.13980
      C    6   -0.00042      0.99946     1.99101    0.00995     3.00042
      C    7   -0.11018      0.99931     2.09793    0.01294     3.11018
      S    8    0.09115      4.99957     2.89274    0.01654     7.90885
      C    9   -0.24186      0.99959     2.23270    0.00958     3.24186
      C   10   -0.19460      0.99962     2.18539    0.00959     3.19460
      C   11   -0.19580      0.99962     2.18675    0.00943     3.19580
      C   12   -0.18688      0.99962     2.17847    0.00879     3.18688
      C   13   -0.20717      0.99961     2.19715    0.01042     3.20717
      C   14   -0.07940      0.99957     2.06978    0.01005     3.07940
      C   15   -0.19296      0.99956     2.18682    0.00658     3.19296
      C   16   -0.29441      0.99963     2.28862    0.00616     3.29441
      O   17   -0.33864      0.99988     3.33176    0.00700     4.33864
      H   18    0.10830      0.00000     0.39080    0.00090     0.39170
      H   19    0.09852      0.00000     0.40070    0.00078     0.40148
      H   20    0.10857      0.00000     0.39031    0.00112     0.39143
      H   21    0.10302      0.00000     0.39568    0.00129     0.39698
      H   22    0.10546      0.00000     0.39135    0.00319     0.39454
      H   23    0.10062      0.00000     0.39789    0.00149     0.39938
      H   24    0.10039      0.00000     0.39836    0.00124     0.39961
      H   25    0.10178      0.00000     0.39696    0.00126     0.39822
      H   26    0.09883      0.00000     0.40019    0.00098     0.40117
      H   27    0.09685      0.00000     0.40199    0.00116     0.40315
      H   28    0.10004      0.00000     0.39830    0.00166     0.39996
      H   29    0.09331      0.00000     0.40515    0.00154     0.40669
      H   30    0.09886      0.00000     0.39946    0.00168     0.40114
      H   31    0.09926      0.00000     0.39965    0.00109     0.40074
      H   32    0.10113      0.00000     0.39753    0.00134     0.39887
      H   33    0.09181      0.00000     0.40699    0.00120     0.40819
      H   34    0.09216      0.00000     0.40689    0.00095     0.40784
      H   35    0.08890      0.00000     0.40994    0.00116     0.41110
      H   36    0.10247      0.00000     0.39658    0.00095     0.39753
      H   37    0.10868      0.00000     0.39027    0.00106     0.39132
      H   38    0.10587      0.00000     0.39310    0.00103     0.39413
      H   39    0.24162      0.00000     0.24467    0.01371     0.25838
 =======================================================================
   * Total *   -0.00000     20.99241    46.80106    0.20653    68.00000

 Normal termination of Gaussian 16 at Mon Dec 14 18:06:48 2020.
