 Gaussian 16, Revision A.03,

 -----------------------------------------------------------
 # opt freq B3LYP/6-31G(d) empiricaldispersion=gd3bj scf=xqc
 -----------------------------------------------------------

 ------------------------------
 CID_63854800_JID_6200_neutraal
 ------------------------------
 Symbolic Z-matrix:
 Charge =  0 Multiplicity = 1

 SCF Done:  E(RB3LYP) =  -697.011176005     A.U. after   13 cycles
 SCF Done:  E(RB3LYP) =  -697.015704836     A.U. after   11 cycles
 SCF Done:  E(RB3LYP) =  -697.016035248     A.U. after   11 cycles
 SCF Done:  E(RB3LYP) =  -697.016857938     A.U. after   10 cycles
 SCF Done:  E(RB3LYP) =  -697.017049513     A.U. after   10 cycles
 SCF Done:  E(RB3LYP) =  -697.017039908     A.U. after   10 cycles
 SCF Done:  E(RB3LYP) =  -697.017109051     A.U. after   10 cycles
 SCF Done:  E(RB3LYP) =  -697.017147914     A.U. after    9 cycles
 SCF Done:  E(RB3LYP) =  -697.017153317     A.U. after    8 cycles
 SCF Done:  E(RB3LYP) =  -697.017154246     A.U. after    7 cycles
 SCF Done:  E(RB3LYP) =  -697.017154485     A.U. after    6 cycles
 SCF Done:  E(RB3LYP) =  -697.017154581     A.U. after    6 cycles
 SCF Done:  E(RB3LYP) =  -697.017154607     A.U. after    6 cycles
 Optimization completed.
    -- Stationary point found.
 Normal termination of Gaussian 16 at Thu Dec 10 21:20:00 2020.

 --------------------------------------------------------------------
 #N Geom=AllCheck Guess=TCheck SCRF=Check GenChk RB3LYP/6-31G(d) Freq
 --------------------------------------------------------------------

 Structure from the checkpoint file:  "JID_6200.chk"
 ------------------------------
 CID_63854800_JID_6200_neutraal
 ------------------------------
 Charge =  0 Multiplicity = 1

 SCF Done:  E(RB3LYP) =  -697.017154607     A.U. after    1 cycles

  Exact polarizability: 176.068  -3.421 147.863  -3.109   0.408 134.098
 Approx polarizability: 213.916  -1.035 210.561  -1.124  -0.510 203.185

                      1                      2                      3
                      A                      A                      A
 Frequencies --     28.6874                34.9219                44.1802
 Red. masses --      3.3661                 3.6712                 3.7190
 Frc consts  --      0.0016                 0.0026                 0.0043
 IR Inten    --      0.3746                 0.1199                 0.1563

                      4                      5                      6
                      A                      A                      A
 Frequencies --     56.8567                74.7322               110.8765
 Red. masses --      3.7130                 3.5370                 3.4796
 Frc consts  --      0.0071                 0.0116                 0.0252
 IR Inten    --      1.4908                 0.2670                 2.2533

                      7                      8                      9
                      A                      A                      A
 Frequencies --    115.4389               145.9827               158.0069
 Red. masses --      2.2452                 2.6518                 2.8111
 Frc consts  --      0.0176                 0.0333                 0.0413
 IR Inten    --      0.9267                 0.3131                 1.1773

                     10                     11                     12
                      A                      A                      A
 Frequencies --    203.8587               222.9754               238.6936
 Red. masses --      2.5271                 1.9426                 1.6507
 Frc consts  --      0.0619                 0.0569                 0.0554
 IR Inten    --      6.4519                 0.4142                 4.1367

                     13                     14                     15
                      A                      A                      A
 Frequencies --    253.1091               266.2854               279.4398
 Red. masses --      1.5592                 2.1652                 1.4171
 Frc consts  --      0.0589                 0.0905                 0.0652
 IR Inten    --      9.3284                 9.2022                 1.6496

                     16                     17                     18
                      A                      A                      A
 Frequencies --    305.3282               319.6688               322.2035
 Red. masses --      2.3836                 1.3837                 1.5883
 Frc consts  --      0.1309                 0.0833                 0.0971
 IR Inten    --      5.0674                81.8699                13.4170

                     19                     20                     21
                      A                      A                      A
 Frequencies --    337.8542               379.4195               389.3365
 Red. masses --      2.1069                 2.8401                 2.0005
 Frc consts  --      0.1417                 0.2409                 0.1787
 IR Inten    --      0.1534                 0.4550                 1.5950

                     22                     23                     24
                      A                      A                      A
 Frequencies --    400.2016               426.9404               465.2155
 Red. masses --      2.0277                 1.9573                 2.7584
 Frc consts  --      0.1913                 0.2102                 0.3517
 IR Inten    --      6.3079                 4.6086                 1.5443

                     25                     26                     27
                      A                      A                      A
 Frequencies --    490.0178               529.3133               564.7431
 Red. masses --      2.0677                 2.3253                 2.8332
 Frc consts  --      0.2925                 0.3838                 0.5324
 IR Inten    --      9.7229                 2.1766                 0.6440

                     28                     29                     30
                      A                      A                      A
 Frequencies --    596.6556               680.2827               708.9338
 Red. masses --      2.5274                 1.9180                 1.9670
 Frc consts  --      0.5301                 0.5230                 0.5825
 IR Inten    --      1.3015                57.0227                 2.5456

                     31                     32                     33
                      A                      A                      A
 Frequencies --    743.3379               762.4087               784.9618
 Red. masses --      1.6998                 2.1294                 2.5289
 Frc consts  --      0.5534                 0.7293                 0.9181
 IR Inten    --     30.4382                21.1261                 2.9896

                     34                     35                     36
                      A                      A                      A
 Frequencies --    808.4684               861.0518               868.5723
 Red. masses --      2.1235                 2.0978                 2.0285
 Frc consts  --      0.8178                 0.9164                 0.9016
 IR Inten    --     37.9169                 5.3774                 9.6606

                     37                     38                     39
                      A                      A                      A
 Frequencies --    881.9524               890.7926               912.5963
 Red. masses --      1.9270                 1.7663                 1.8566
 Frc consts  --      0.8831                 0.8258                 0.9110
 IR Inten    --      0.4184                 2.9903                 1.1394

                     40                     41                     42
                      A                      A                      A
 Frequencies --    939.6122               958.8246               986.5014
 Red. masses --      1.9077                 2.1108                 1.8769
 Frc consts  --      0.9923                 1.1433                 1.0762
 IR Inten    --      6.2703                 3.3029                36.3243

                     43                     44                     45
                      A                      A                      A
 Frequencies --   1000.2220              1012.6557              1028.4365
 Red. masses --      1.8607                 1.6278                 1.6580
 Frc consts  --      1.0968                 0.9835                 1.0332
 IR Inten    --     10.7734                13.1633                 5.9123

                     46                     47                     48
                      A                      A                      A
 Frequencies --   1047.7282              1056.7198              1084.3504
 Red. masses --      1.8033                 1.5913                 2.0140
 Frc consts  --      1.1663                 1.0470                 1.3953
 IR Inten    --      5.8333                 1.9519                 1.5131

                     49                     50                     51
                      A                      A                      A
 Frequencies --   1093.4298              1095.3964              1112.5146
 Red. masses --      1.7525                 2.6674                 1.7871
 Frc consts  --      1.2345                 1.8857                 1.3032
 IR Inten    --      9.8460                65.3268                25.8805

                     52                     53                     54
                      A                      A                      A
 Frequencies --   1119.9336              1139.1539              1144.8568
 Red. masses --      2.5443                 2.3365                 1.5366
 Frc consts  --      1.8802                 1.7864                 1.1866
 IR Inten    --      4.6564                49.0665                16.8188

                     55                     56                     57
                      A                      A                      A
 Frequencies --   1157.5235              1163.9046              1177.5600
 Red. masses --      1.7705                 2.2424                 1.7346
 Frc consts  --      1.3977                 1.7897                 1.4172
 IR Inten    --      1.1250                26.1369                26.6351

                     58                     59                     60
                      A                      A                      A
 Frequencies --   1187.1302              1200.5583              1210.6777
 Red. masses --      1.6030                 1.4995                 1.2730
 Frc consts  --      1.3310                 1.2734                 1.0994
 IR Inten    --      6.6336                19.4971                16.9681

                     61                     62                     63
                      A                      A                      A
 Frequencies --   1233.2132              1242.9486              1256.3003
 Red. masses --      1.3868                 1.5444                 1.8833
 Frc consts  --      1.2426                 1.4058                 1.7513
 IR Inten    --     14.5730                17.9297                 2.2212

                     64                     65                     66
                      A                      A                      A
 Frequencies --   1292.9543              1312.0860              1335.8128
 Red. masses --      1.3642                 1.1278                 1.3101
 Frc consts  --      1.3437                 1.1439                 1.3773
 IR Inten    --      5.9888                 6.9967                 2.1491

                     67                     68                     69
                      A                      A                      A
 Frequencies --   1340.1393              1348.3321              1365.9188
 Red. masses --      1.4112                 1.2254                 1.4609
 Frc consts  --      1.4932                 1.3125                 1.6059
 IR Inten    --      4.1595                 1.5798                 6.2323

                     70                     71                     72
                      A                      A                      A
 Frequencies --   1370.9197              1383.1869              1386.8326
 Red. masses --      1.4221                 1.3411                 1.3785
 Frc consts  --      1.5747                 1.5117                 1.5621
 IR Inten    --     13.4726                 0.7249                34.1380

                     73                     74                     75
                      A                      A                      A
 Frequencies --   1391.1710              1399.5213              1402.0650
 Red. masses --      1.4214                 1.3228                 1.4824
 Frc consts  --      1.6208                 1.5265                 1.7170
 IR Inten    --      7.8192                 2.9773                 6.6741

                     76                     77                     78
                      A                      A                      A
 Frequencies --   1409.4777              1415.2882              1421.2098
 Red. masses --      1.2030                 1.4138                 1.3326
 Frc consts  --      1.4081                 1.6685                 1.5858
 IR Inten    --     32.3935                 5.2865                 0.2042

                     79                     80                     81
                      A                      A                      A
 Frequencies --   1423.0821              1430.0763              1441.7106
 Red. masses --      1.3285                 1.3884                 1.3544
 Frc consts  --      1.5851                 1.6729                 1.6587
 IR Inten    --      7.9584                 3.6318                15.5652

                     82                     83                     84
                      A                      A                      A
 Frequencies --   1443.0683              1449.9408              1480.1934
 Red. masses --      1.3066                 1.3459                 1.1549
 Frc consts  --      1.6031                 1.6671                 1.4909
 IR Inten    --     48.5341                 0.8344                 1.1668

                     85                     86                     87
                      A                      A                      A
 Frequencies --   1500.8570              1503.4814              1511.8569
 Red. masses --      1.0940                 1.1611                 1.0826
 Frc consts  --      1.4519                 1.5464                 1.4580
 IR Inten    --      3.1729                10.9182                 1.8899

                     88                     89                     90
                      A                      A                      A
 Frequencies --   1514.5676              1516.3389              1519.0570
 Red. masses --      1.0869                 1.0837                 1.0834
 Frc consts  --      1.4690                 1.4681                 1.4729
 IR Inten    --      1.9047                 6.8592                 4.7098

                     91                     92                     93
                      A                      A                      A
 Frequencies --   1521.2602              1522.3483              1526.2231
 Red. masses --      1.0770                 1.0697                 1.1066
 Frc consts  --      1.4685                 1.4606                 1.5188
 IR Inten    --     10.0790                 5.2922                16.7778

                     94                     95                     96
                      A                      A                      A
 Frequencies --   1535.7419              1540.1322              1541.2317
 Red. masses --      1.0890                 1.1076                 1.0872
 Frc consts  --      1.5132                 1.5479                 1.5216
 IR Inten    --      3.1146                 9.3771                 2.9127

                     97                     98                     99
                      A                      A                      A
 Frequencies --   1545.0587              1554.0580              2906.0304
 Red. masses --      1.0580                 1.0563                 1.0730
 Frc consts  --      1.4881                 1.5030                 5.3390
 IR Inten    --      2.5379                 8.6602                59.8928

                    100                    101                    102
                      A                      A                      A
 Frequencies --   2931.6677              2965.0252              2995.2174
 Red. masses --      1.0715                 1.0597                 1.0836
 Frc consts  --      5.4257                 5.4891                 5.7278
 IR Inten    --     98.7287                69.1268                23.9574

                    103                    104                    105
                      A                      A                      A
 Frequencies --   2998.4112              3013.4380              3021.6856
 Red. masses --      1.0722                 1.0679                 1.0682
 Frc consts  --      5.6795                 5.7137                 5.7462
 IR Inten    --     52.6960                 2.4015                14.4012

                    106                    107                    108
                      A                      A                      A
 Frequencies --   3026.4004              3034.6186              3040.9144
 Red. masses --      1.0685                 1.0708                 1.0791
 Frc consts  --      5.7663                 5.8099                 5.8794
 IR Inten    --     82.0659                48.4075                67.7563

                    109                    110                    111
                      A                      A                      A
 Frequencies --   3050.1127              3051.6579              3055.0303
 Red. masses --      1.0618                 1.0521                 1.0603
 Frc consts  --      5.8200                 5.7726                 5.8307
 IR Inten    --      7.5474                16.4643                34.3783

                    112                    113                    114
                      A                      A                      A
 Frequencies --   3061.5250              3063.5371              3063.9369
 Red. masses --      1.0907                 1.0907                 1.0934
 Frc consts  --      6.0231                 6.0309                 6.0479
 IR Inten    --     25.4035                11.4499                59.5732

                    115                    116                    117
                      A                      A                      A
 Frequencies --   3067.6297              3070.9523              3082.4133
 Red. masses --      1.0741                 1.0860                 1.0957
 Frc consts  --      5.9555                 6.0343                 6.1337
 IR Inten    --     49.6283                28.9598                58.2043

                    118                    119                    120
                      A                      A                      A
 Frequencies --   3091.5871              3093.6276              3102.7678
 Red. masses --      1.0941                 1.0984                 1.0940
 Frc consts  --      6.1614                 6.1937                 6.2054
 IR Inten    --     73.0680                63.5761                39.6228

                    121                    122                    123
                      A                      A                      A
 Frequencies --   3110.8583              3111.8482              3120.9375
 Red. masses --      1.1029                 1.0962                 1.0963
 Frc consts  --      6.2883                 6.2541                 6.2913
 IR Inten    --     36.9026                74.4133                13.7567

                    124                    125                    126
                      A                      A                      A
 Frequencies --   3163.0051              3497.1657              3753.1575
 Red. masses --      1.1013                 1.0735                 1.0660
 Frc consts  --      6.4915                 7.7353                 8.8468
 IR Inten    --      8.7485                 1.6138                 6.4853

 - Thermochemistry -
 -------------------
 Temperature   298.150 Kelvin.  Pressure   1.00000 Atm.
 Atom     1 has atomic number  6 and mass  12.00000

 Molecular mass:   228.22016 amu.
 Principal axes and moments of inertia in atomic units:
                           1         2         3
     Eigenvalues --  1951.789918029.982488795.86239
           X            0.99998  -0.00557  -0.00290
           Y            0.00560   0.99993   0.01020
           Z            0.00285  -0.01022   0.99994
 This molecule is an asymmetric top.
 Rotational symmetry number  1.
 Warning -- assumption of classical behavior for rotation
           may cause significant error
 Rotational temperatures (Kelvin)      0.04438     0.01079     0.00985
 Rotational constants (GHZ):           0.92466     0.22475     0.20518
 Zero-point vibrational energy    1079359.5 (Joules/Mol)
                                  257.97311 (Kcal/Mol)
 Warning -- explicit consideration of  28 degrees of freedom as
           vibrations may cause significant error
 Vibrational temperatures:     41.27    50.24    63.57    81.80   107.52
          (Kelvin)            159.53   166.09   210.04   227.34   293.31
                              320.81   343.43   364.17   383.13   402.05
                              439.30   459.93   463.58   486.10   545.90
                              560.17   575.80   614.27   669.34   705.03
                              761.56   812.54   858.45   978.78  1020.00
                             1069.50  1096.94  1129.38  1163.21  1238.86
                             1249.68  1268.93  1281.65  1313.02  1351.89
                             1379.53  1419.36  1439.10  1456.99  1479.69
                             1507.45  1520.38  1560.14  1573.20  1576.03
                             1600.66  1611.33  1638.99  1647.19  1665.42
                             1674.60  1694.25  1708.02  1727.34  1741.90
                             1774.32  1788.33  1807.54  1860.27  1887.80
                             1921.94  1928.16  1939.95  1965.25  1972.45
                             1990.10  1995.34  2001.58  2013.60  2017.26
                             2027.92  2036.28  2044.80  2047.50  2057.56
                             2074.30  2076.25  2086.14  2129.67  2159.40
                             2163.17  2175.22  2179.12  2181.67  2185.58
                             2188.75  2190.32  2195.89  2209.59  2215.91
                             2217.49  2222.99  2235.94  4181.13  4218.02
                             4266.01  4309.45  4314.05  4335.67  4347.53
                             4354.32  4366.14  4375.20  4388.43  4390.66
                             4395.51  4404.85  4407.75  4408.32  4413.63
                             4418.42  4434.91  4448.10  4451.04  4464.19
                             4475.83  4477.26  4490.33  4550.86  5031.64
                             5399.96

 Zero-point correction=                           0.411106 (Hartree/Particle)
 Thermal correction to Energy=                    0.429362
 Thermal correction to Enthalpy=                  0.430306
 Thermal correction to Gibbs Free Energy=         0.364044
 Sum of electronic and zero-point Energies=           -696.606048
 Sum of electronic and thermal Energies=              -696.587793
 Sum of electronic and thermal Enthalpies=            -696.586849
 Sum of electronic and thermal Free Energies=         -696.653111

                     E (Thermal)             CV                S
                      KCal/Mol        Cal/Mol-Kelvin    Cal/Mol-Kelvin
 Total                  269.429             69.571            139.460
 Electronic               0.000              0.000              0.000
 Translational            0.889              2.981             42.178
 Rotational               0.889              2.981             33.288
 Vibrational            267.651             63.609             63.994
 Vibration     1          0.593              1.984              5.918
 Vibration     2          0.594              1.983              5.528
 Vibration     3          0.595              1.980              5.062
 Vibration     4          0.596              1.975              4.563
 Vibration     5          0.599              1.966              4.025
 Vibration     6          0.607              1.940              3.254
 Vibration     7          0.608              1.937              3.175
 Vibration     8          0.617              1.907              2.724
 Vibration     9          0.621              1.894              2.574
 Vibration    10          0.640              1.834              2.098
 Vibration    11          0.649              1.806              1.935
 Vibration    12          0.657              1.781              1.813
 Vibration    13          0.664              1.758              1.709
 Vibration    14          0.672              1.735              1.620
 Vibration    15          0.680              1.712              1.537
 Vibration    16          0.696              1.664              1.388
 Vibration    17          0.706              1.636              1.312
 Vibration    18          0.707              1.631              1.299
 Vibration    19          0.718              1.600              1.222
 Vibration    20          0.749              1.514              1.041
 Vibration    21          0.757              1.493              1.003
 Vibration    22          0.766              1.470              0.962
 Vibration    23          0.789              1.412              0.869
 Vibration    24          0.823              1.327              0.751
 Vibration    25          0.846              1.272              0.684
 Vibration    26          0.884              1.185              0.589
 Vibration    27          0.921              1.108              0.514
 Vibration    28          0.954              1.039              0.455

 Optimization completed.
    -- Stationary point found.
 Normal termination of Gaussian 16 at Thu Dec 10 21:36:33 2020.

 ----------------------------------------------------------------------
 # B3LYP/6-311++G(d,p) empiricaldispersion=gd3bj scf=xqc pop=npa geom=c
 heck
 ----------------------------------------------------------------------

 --------------------------------------
 CID_63854800_JID_6200_Energie_neutraal
 --------------------------------------
 Structure from the checkpoint file:  "JID_6200.chk"
 Charge =  0 Multiplicity = 1

 SCF Done:  E(RB3LYP) =  -697.225171183     A.U. after   14 cycles
 Normal termination of Gaussian 16 at Thu Dec 10 21:45:48 2020.

 ----------------------------------------------------------------------
 # B3LYP/6-311++G(d,p) empiricaldispersion=gd3bj scf=xqc pop=npa geom=c
 heck
 ----------------------------------------------------------------------

 ------------------------------------
 CID_63854800_JID_6200_Energie_kation
 ------------------------------------
 Structure from the checkpoint file:  "JID_6200.chk"
 Charge =  1 Multiplicity = 2

 SCF Done:  E(UB3LYP) =  -696.953061929     A.U. after   22 cycles
 Normal termination of Gaussian 16 at Thu Dec 10 22:05:50 2020.
 Gaussian 16:  ES64L-G16RevA.03 25-Dec-2016

 ----------------------------------------------------------------------
 # B3LYP/6-311++G(d,p) empiricaldispersion=gd3bj scf=xqc pop=npa geom=c
 heck
 ----------------------------------------------------------------------

 -----------------------------------
 CID_63854800_JID_6200_Energie_anion
 -----------------------------------
 Structure from the checkpoint file:  "JID_6200.chk"
 Charge = -1 Multiplicity = 2

                         Standard orientation:
 ---------------------------------------------------------------------
 Center     Atomic      Atomic             Coordinates (Angstroms)
 Number     Number       Type             X           Y           Z
 ---------------------------------------------------------------------
      1          6           0        2.654062   -0.003394    1.909753
      2          6           0        2.691947   -0.857011    0.639813
      3          6           0        1.858951   -0.324423   -0.563650
      4          6           0        2.322244    1.020055   -1.158925
      5          6           0        1.763421    2.248584   -0.427914
      6          6           0        0.251125    2.126721   -0.232073
      7          7           0       -0.068550    0.885604    0.457582
      8          6           0        0.342597   -0.290889   -0.298736
      9          6           0       -1.393472    0.845674    1.068051
     10          6           0       -2.620988    1.185565    0.196129
     11          6           0       -2.940603    0.236422   -0.969945
     12          6           0       -3.161314   -1.235242   -0.587918
     13          6           0       -4.267394   -1.452188    0.447550
     14          8           0       -5.532990   -0.950983    0.027723
     15          7           0        4.099651   -1.129428    0.331433
     16          6           0        4.360920   -2.041533   -0.771915
     17          1           0        3.230875    0.920071    1.776819
     18          1           0        3.110238   -0.557705    2.735620
     19          1           0        1.631571    0.281494    2.164342
     20          1           0        2.248422   -1.834945    0.885636
     21          1           0        1.992203   -1.078310   -1.350611
     22          1           0        3.418391    1.061276   -1.195511
     23          1           0        1.983259    1.061686   -2.203812
     24          1           0        2.233410    2.362882    0.552954
     25          1           0        1.986372    3.156287   -1.002839
     26          1           0       -0.119656    2.964152    0.370957
     27          1           0       -0.250527    2.193726   -1.219594
     28          1           0       -0.171480   -0.353738   -1.277123
     29          1           0        0.051693   -1.182601    0.269907
     30          1           0       -1.516183   -0.147324    1.516317
     31          1           0       -1.386332    1.560466    1.903414
     32          1           0       -3.484407    1.240574    0.876004
     33          1           0       -2.502435    2.200528   -0.203598
     34          1           0       -3.843970    0.602789   -1.477529
     35          1           0       -2.143855    0.294105   -1.719208
     36          1           0       -3.418139   -1.797632   -1.493998
     37          1           0       -2.232872   -1.672001   -0.198870
     38          1           0       -4.417306   -2.524128    0.610027
     39          1           0       -3.976763   -1.017856    1.417456
     40          1           0       -5.467099    0.015272   -0.004276
     41          1           0        4.594810   -0.251761    0.187452
     42          1           0        4.036566   -1.695029   -1.769248
     43          1           0        5.436350   -2.243913   -0.822865
     44          1           0        3.854106   -2.993771   -0.574039
 ---------------------------------------------------------------------

 SCF Done:  E(UB3LYP) =  -697.214442140     A.U. after   29 cycles

 The electronic state is 2-A.
 Alpha  occ. eigenvalues --  -19.03081 -14.20421 -14.20379 -10.12423 -10.10377
 Alpha  occ. eigenvalues --  -10.09779 -10.09659 -10.09544 -10.09358 -10.07484
 Alpha  occ. eigenvalues --  -10.07415 -10.07293 -10.07013 -10.07000 -10.06804
 Alpha  occ. eigenvalues --  -10.05900  -0.93131  -0.83323  -0.81298  -0.71537
 Alpha  occ. eigenvalues --   -0.69760  -0.67108  -0.64584  -0.63698  -0.59514
 Alpha  occ. eigenvalues --   -0.56765  -0.55386  -0.54081  -0.51986  -0.49257
 Alpha  occ. eigenvalues --   -0.46494  -0.44287  -0.42082  -0.39846  -0.39137
 Alpha  occ. eigenvalues --   -0.38476  -0.37262  -0.37204  -0.36258  -0.35636
 Alpha  occ. eigenvalues --   -0.34338  -0.33674  -0.32771  -0.31688  -0.31298
 Alpha  occ. eigenvalues --   -0.30043  -0.29955  -0.29455  -0.28984  -0.28837
 Alpha  occ. eigenvalues --   -0.27363  -0.26659  -0.25927  -0.25460  -0.24641
 Alpha  occ. eigenvalues --   -0.24443  -0.24237  -0.22673  -0.22566  -0.21492
 Alpha  occ. eigenvalues --   -0.21307  -0.18521  -0.13233  -0.11222   0.03967
 Alpha virt. eigenvalues --    0.05608   0.06525   0.07010   0.07156   0.07946
 Alpha virt. eigenvalues --    0.08443   0.08858   0.09131   0.09519   0.10165
 Alpha virt. eigenvalues --    0.10719   0.10842   0.11176   0.11427   0.11900

  Beta  occ. eigenvalues --  -19.03052 -14.20421 -14.20368 -10.12410 -10.10372
  Beta  occ. eigenvalues --  -10.09767 -10.09647 -10.09518 -10.09337 -10.07477
  Beta  occ. eigenvalues --  -10.07411 -10.07275 -10.06991 -10.06971 -10.06791
  Beta  occ. eigenvalues --  -10.05895  -0.93068  -0.83311  -0.81280  -0.71505
  Beta  occ. eigenvalues --   -0.69730  -0.67083  -0.64547  -0.63669  -0.59469
  Beta  occ. eigenvalues --   -0.56718  -0.55342  -0.54039  -0.51946  -0.49217
  Beta  occ. eigenvalues --   -0.46442  -0.44242  -0.42031  -0.39806  -0.39103
  Beta  occ. eigenvalues --   -0.38441  -0.37231  -0.37169  -0.36231  -0.35596
  Beta  occ. eigenvalues --   -0.34308  -0.33646  -0.32743  -0.31651  -0.31279
  Beta  occ. eigenvalues --   -0.30022  -0.29923  -0.29428  -0.28952  -0.28811
  Beta  occ. eigenvalues --   -0.27338  -0.26635  -0.25908  -0.25429  -0.24614
  Beta  occ. eigenvalues --   -0.24407  -0.24206  -0.22646  -0.22537  -0.21461
  Beta  occ. eigenvalues --   -0.21279  -0.18486  -0.13213  -0.11204
  Beta virt. eigenvalues --    0.05919   0.06559   0.06931   0.07278   0.07705
  Beta virt. eigenvalues --    0.08235   0.08587   0.09198   0.09450   0.09792
  Beta virt. eigenvalues --    0.10354   0.10917   0.11234   0.11284   0.11690

 Mulliken charges and spin densities:
               1          2
     1  C   -0.358100  -0.233170
     2  C   -0.344824  -0.536101
     3  C    1.193043  -0.324985
     4  C    0.213464  -0.743075
     5  C    0.338331  -0.742490
     6  C   -0.006563  -0.323301
     7  N    0.179387   0.052736
     8  C   -1.494483   0.477277
     9  C   -0.491935   0.359150
    10  C    0.833486  -1.124817
    11  C   -0.049589  -0.223548
    12  C   -0.199880   0.110889
    13  C    0.306333  -0.864875
    14  O   -0.246699   0.014706
    15  N   -0.059390   0.134358
    16  C    0.357458  -0.680810
    17  H    0.023273   0.100305
    18  H    0.163296  -0.000156
    19  H    0.087735   0.095432
    20  H    0.086812   0.089966
    21  H    0.068641   0.129825
    22  H   -0.154775   0.297724
    23  H   -0.149509   0.310828
    24  H    0.232081  -0.114881
    25  H   -0.414390   0.602498
    26  H   -0.186279   0.355697
    27  H    0.236972  -0.105037
    28  H   -0.008700   0.155560
    29  H    0.254794  -0.115048
    30  H    0.039927   0.101463
    31  H   -0.080926   0.254293
    32  H   -0.428938   0.587163
    33  H   -0.328311   0.483350
    34  H   -0.162895   0.360341
    35  H   -0.187470   0.300757
    36  H    0.062090   0.105533
    37  H   -0.134889   0.249401
    38  H    0.091883   0.077900
    39  H   -0.048116   0.207036
    40  H    0.044276   0.205202
    41  H    0.160292   0.067547
    42  H   -0.143277   0.282604
    43  H   -0.198829   0.335322
    44  H   -0.094807   0.227428
 Sum of Mulliken charges =  -1.00000   1.00000

 Dipole moment (field-independent basis, Debye):
    X=              2.0765    Y=             -1.8177    Z=              1.9486  Tot=              3.3783
 Quadrupole moment (field-independent basis, Debye-Ang):
   XX=           -214.0623   YY=           -150.2183   ZZ=           -141.9775
   XY=              8.2966   XZ=              5.8483   YZ=              0.5690

 Summary of Natural Population Analysis:

                                       Natural Population
                Natural  -----------------------------------------------
    Atom  No    Charge         Core      Valence    Rydberg      Total
 -----------------------------------------------------------------------
      C    1   -0.29124      0.99963     2.28568    0.00593     3.29124
      C    2   -0.00162      0.99958     1.98963    0.01240     3.00162
      C    3   -0.12149      0.99956     2.10924    0.01268     3.12149
      C    4   -0.19277      0.99961     2.18255    0.01062     3.19277
      C    5   -0.19265      0.99962     2.18443    0.00861     3.19265
      C    6   -0.08181      0.99961     2.07113    0.01108     3.08181
      N    7   -0.29165      0.99971     2.77990    0.01204     3.79165
      C    8   -0.07934      0.99959     2.06831    0.01144     3.07934
      C    9   -0.07794      0.99960     2.06617    0.01217     3.07794
      C   10   -0.20353      0.99962     2.19361    0.01030     3.20353
      C   11   -0.19850      0.99962     2.18890    0.00998     3.19850
      C   12   -0.20429      0.99962     2.19764    0.00703     3.20429
      C   13   -0.00992      0.99960     1.99854    0.01178     3.00992
      O   14   -0.37070      0.99990     3.36411    0.00670     4.37070
      N   15   -0.34137      0.99974     2.82973    0.01190     3.84137
      C   16   -0.17781      0.99966     2.17125    0.00690     3.17781
      H   17    0.09244      0.00000     0.40634    0.00121     0.40756
      H   18    0.09849      0.00000     0.40043    0.00108     0.40151
      H   19    0.11097      0.00000     0.38778    0.00125     0.38903
      H   20    0.08711      0.00000     0.41117    0.00173     0.41289
      H   21    0.10027      0.00000     0.39750    0.00223     0.39973
      H   22    0.09780      0.00000     0.40068    0.00153     0.40220
      H   23    0.09944      0.00000     0.39916    0.00141     0.40056
      H   24    0.09527      0.00000     0.40314    0.00159     0.40473
      H   25    0.09824      0.00000     0.40077    0.00100     0.40176
      H   26    0.09777      0.00000     0.40103    0.00120     0.40223
      H   27    0.08031      0.00000     0.41796    0.00174     0.41969
      H   28    0.08294      0.00000     0.41508    0.00198     0.41706
      H   29    0.09509      0.00000     0.40340    0.00151     0.40491
      H   30    0.09124      0.00000     0.40750    0.00126     0.40876
      H   31    0.09449      0.00000     0.40446    0.00105     0.40551
      H   32    0.09498      0.00000     0.40305    0.00198     0.40502
      H   33    0.10193      0.00000     0.39663    0.00144     0.39807
      H   34    0.09745      0.00000     0.40125    0.00130     0.40255
      H   35    0.10044      0.00000     0.39769    0.00186     0.39956
      H   36    0.09869      0.00000     0.40022    0.00109     0.40131
      H   37    0.09815      0.00000     0.40050    0.00135     0.40185
      H   38    0.08416      0.00000     0.41463    0.00121     0.41584
      H   39    0.07539      0.00000     0.42324    0.00137     0.42461
      H   40    0.22967      0.00000     0.26681    0.00353     0.27033
      H   41    0.16935      0.00000     0.32757    0.00307     0.33065
      H   42    0.08055      0.00000     0.41761    0.00184     0.41945
      H   43    0.09323      0.00000     0.40575    0.00102     0.40677
      H   44    0.09080      0.00000     0.40789    0.00131     0.40920
 =======================================================================
   * Total *    0.00000     15.99427    47.80004    0.20569    64.00000

 Normal termination of Gaussian 16 at Thu Dec 10 22:31:58 2020.
