 Gaussian 16, Revision A.03,

 -----------------------------------------------------------
 # opt freq B3LYP/6-31G(d) empiricaldispersion=gd3bj scf=xqc
 -----------------------------------------------------------

 -----------------------------
 CID_45078920_JID_484_neutraal
 -----------------------------
 Symbolic Z-matrix:
 Charge =  0 Multiplicity = 1

 SCF Done:  E(RB3LYP) =  -515.668379263     A.U. after   14 cycles
 SCF Done:  E(RB3LYP) =  -515.671713737     A.U. after   12 cycles
 SCF Done:  E(RB3LYP) =  -515.673051149     A.U. after   12 cycles
 SCF Done:  E(RB3LYP) =  -515.676418270     A.U. after   15 cycles
 SCF Done:  E(RB3LYP) =  -515.678207438     A.U. after   14 cycles
 SCF Done:  E(RB3LYP) =  -515.680411563     A.U. after   12 cycles
 SCF Done:  E(RB3LYP) =  -515.681222470     A.U. after   12 cycles
 SCF Done:  E(RB3LYP) =  -515.680965704     A.U. after   12 cycles
 SCF Done:  E(RB3LYP) =  -515.681529464     A.U. after   12 cycles
 SCF Done:  E(RB3LYP) =  -515.681595445     A.U. after   11 cycles
 SCF Done:  E(RB3LYP) =  -515.681610565     A.U. after   10 cycles
 SCF Done:  E(RB3LYP) =  -515.681614946     A.U. after    9 cycles
 SCF Done:  E(RB3LYP) =  -515.681615364     A.U. after    7 cycles
 SCF Done:  E(RB3LYP) =  -515.681615450     A.U. after    7 cycles
 SCF Done:  E(RB3LYP) =  -515.681615479     A.U. after    7 cycles
 Optimization completed.
    -- Stationary point found.
 Normal termination of Gaussian 16 at Tue Dec  8 10:47:35 2020.

 --------------------------------------------------------------------
 #N Geom=AllCheck Guess=TCheck SCRF=Check GenChk RB3LYP/6-31G(d) Freq
 --------------------------------------------------------------------

 Structure from the checkpoint file:  "JID_484.chk"
 -----------------------------
 CID_45078920_JID_484_neutraal
 -----------------------------
 Charge =  0 Multiplicity = 1

 SCF Done:  E(RB3LYP) =  -515.681615479     A.U. after    1 cycles

  Exact polarizability:  91.831   0.763  74.820  -2.505   1.867  63.729
 Approx polarizability: 119.060  -5.662 109.834  -5.962   3.651  96.565

                      1                      2                      3
                      A                      A                      A
 Frequencies --     45.6326                63.8233                89.6055
 Red. masses --      5.2103                 5.9285                 4.8820
 Frc consts  --      0.0064                 0.0142                 0.0231
 IR Inten    --      2.1262                 2.8015                 2.9897

                      4                      5                      6
                      A                      A                      A
 Frequencies --    143.4521               178.1944               231.5523
 Red. masses --      2.9011                 2.0561                 2.2580
 Frc consts  --      0.0352                 0.0385                 0.0713
 IR Inten    --      0.4712                 8.0693                12.4992

                      7                      8                      9
                      A                      A                      A
 Frequencies --    249.8440               276.5189               348.1056
 Red. masses --      2.0605                 2.6606                 1.1723
 Frc consts  --      0.0758                 0.1199                 0.0837
 IR Inten    --     22.6787                12.8193               128.9134

                     10                     11                     12
                      A                      A                      A
 Frequencies --    358.2585               400.6709               462.2051
 Red. masses --      2.9521                 2.8081                 2.1469
 Frc consts  --      0.2232                 0.2656                 0.2702
 IR Inten    --     25.6470                 6.0973                 7.2124

                     13                     14                     15
                      A                      A                      A
 Frequencies --    486.8132               516.7162               585.3436
 Red. masses --      4.0069                 3.6561                 1.8498
 Frc consts  --      0.5595                 0.5751                 0.3734
 IR Inten    --     11.4071                16.2112                41.9300

                     16                     17                     18
                      A                      A                      A
 Frequencies --    626.1705               726.6528               752.2672
 Red. masses --      1.8149                 3.8453                 2.8994
 Frc consts  --      0.4193                 1.1963                 0.9667
 IR Inten    --     66.3259                18.7523                16.9512

                     19                     20                     21
                      A                      A                      A
 Frequencies --    810.6335               872.8430               882.0127
 Red. masses --      2.5897                 2.3006                 2.1465
 Frc consts  --      1.0026                 1.0327                 0.9839
 IR Inten    --      5.5169                64.2305                16.8865

                     22                     23                     24
                      A                      A                      A
 Frequencies --    925.4965               935.8816               951.3199
 Red. masses --      1.8537                 1.7989                 1.7089
 Frc consts  --      0.9355                 0.9283                 0.9112
 IR Inten    --    108.6003                 9.9657                 6.6206

                     25                     26                     27
                      A                      A                      A
 Frequencies --   1009.7367              1066.3444              1078.0861
 Red. masses --      1.6056                 1.7971                 1.9729
 Frc consts  --      0.9645                 1.2040                 1.3510
 IR Inten    --     11.4928               122.7614                25.0536

                     28                     29                     30
                      A                      A                      A
 Frequencies --   1100.0660              1120.1802              1151.1342
 Red. masses --      1.6308                 2.4224                 2.5116
 Frc consts  --      1.1628                 1.7909                 1.9609
 IR Inten    --      7.1897                15.3573               168.2874

                     31                     32                     33
                      A                      A                      A
 Frequencies --   1186.0685              1217.1329              1233.7054
 Red. masses --      1.5044                 1.3062                 1.4357
 Frc consts  --      1.2469                 1.1401                 1.2874
 IR Inten    --     54.8686                25.2221                 8.7162

                     34                     35                     36
                      A                      A                      A
 Frequencies --   1268.9607              1303.4569              1348.2133
 Red. masses --      1.3651                 1.3613                 1.9349
 Frc consts  --      1.2952                 1.3627                 2.0722
 IR Inten    --      5.4807                 0.1687                 0.7939

                     37                     38                     39
                      A                      A                      A
 Frequencies --   1381.2051              1399.1872              1408.1703
 Red. masses --      1.6240                 2.8385                 1.2020
 Frc consts  --      1.8254                 3.2741                 1.4044
 IR Inten    --      2.4644                37.4628                 4.4234

                     40                     41                     42
                      A                      A                      A
 Frequencies --   1426.0608              1447.0840              1501.1198
 Red. masses --      1.4218                 1.5285                 1.3795
 Frc consts  --      1.7036                 1.8858                 1.8315
 IR Inten    --     44.5304                22.6589                 5.4584

                     43                     44                     45
                      A                      A                      A
 Frequencies --   1514.8254              1532.2386              1708.0326
 Red. masses --      1.1195                 1.0926                 1.0957
 Frc consts  --      1.5136                 1.5113                 1.8833
 IR Inten    --      5.3031                 0.5690                15.1926

                     46                     47                     48
                      A                      A                      A
 Frequencies --   1827.0058              3000.5747              3054.6825
 Red. masses --      9.7577                 1.0712                 1.0631
 Frc consts  --     19.1900                 5.6825                 5.8447
 IR Inten    --    347.8406                54.8748                23.2413

                     49                     50                     51
                      A                      A                      A
 Frequencies --   3104.0957              3110.6527              3159.8293
 Red. masses --      1.0930                 1.1010                 1.0540
 Frc consts  --      6.2049                 6.2770                 6.2006
 IR Inten    --     50.4018                12.6482                 5.6790

                     52                     53                     54
                      A                      A                      A
 Frequencies --   3179.5457              3250.3577              3470.2916
 Red. masses --      1.0881                 1.1183                 1.0499
 Frc consts  --      6.4812                 6.9609                 7.4492
 IR Inten    --      6.1080                 3.4873                 0.3886

                     55                     56                     57
                      A                      A                      A
 Frequencies --   3544.0914              3694.4383              3749.6077
 Red. masses --      1.0917                 1.0643                 1.0660
 Frc consts  --      8.0793                 8.5588                 8.8303
 IR Inten    --      1.8725                58.8185                 8.3079

 - Thermochemistry -
 -------------------
 Temperature   298.150 Kelvin.  Pressure   1.00000 Atm.
 Atom     1 has atomic number  6 and mass  12.00000

 Molecular mass:   145.07389 amu.
 Principal axes and moments of inertia in atomic units:
                           1         2         3
     Eigenvalues --   704.094702499.559052861.94347
           X            0.99998   0.00661   0.00061
           Y           -0.00661   0.99991   0.01132
           Z           -0.00053  -0.01133   0.99994
 This molecule is an asymmetric top.
 Rotational symmetry number  1.
 Warning -- assumption of classical behavior for rotation
           may cause significant error
 Rotational temperatures (Kelvin)      0.12301     0.03465     0.03026
 Rotational constants (GHZ):           2.56321     0.72202     0.63060
 Zero-point vibrational energy     463350.7 (Joules/Mol)
                                  110.74349 (Kcal/Mol)
 Warning -- explicit consideration of  15 degrees of freedom as
           vibrations may cause significant error
 Vibrational temperatures:     65.66    91.83   128.92   206.40   256.38
          (Kelvin)            333.15   359.47   397.85   500.85   515.45
                              576.48   665.01   700.42   743.44   842.18
                              900.92  1045.49  1082.34  1166.32  1255.83
                             1269.02  1331.58  1346.52  1368.74  1452.79
                             1534.23  1551.13  1582.75  1611.69  1656.23
                             1706.49  1751.18  1775.03  1825.75  1875.38
                             1939.78  1987.25  2013.12  2026.04  2051.78
                             2082.03  2159.78  2179.50  2204.55  2457.48
                             2628.65  4317.16  4395.01  4466.10  4475.54
                             4546.29  4574.66  4676.54  4992.98  5099.16
                             5315.47  5394.85

 Zero-point correction=                           0.176481 (Hartree/Particle)
 Thermal correction to Energy=                    0.187280
 Thermal correction to Enthalpy=                  0.188224
 Thermal correction to Gibbs Free Energy=         0.139561
 Sum of electronic and zero-point Energies=           -515.505134
 Sum of electronic and thermal Energies=              -515.494336
 Sum of electronic and thermal Enthalpies=            -515.493392
 Sum of electronic and thermal Free Energies=         -515.542055

                     E (Thermal)             CV                S
                      KCal/Mol        Cal/Mol-Kelvin    Cal/Mol-Kelvin
 Total                  117.520             39.521            102.420
 Electronic               0.000              0.000              0.000
 Translational            0.889              2.981             40.827
 Rotational               0.889              2.981             30.000
 Vibrational            115.742             33.559             31.593
 Vibration     1          0.595              1.979              4.998
 Vibration     2          0.597              1.972              4.335
 Vibration     3          0.602              1.957              3.669
 Vibration     4          0.616              1.910              2.757
 Vibration     5          0.629              1.869              2.347
 Vibration     6          0.653              1.793              1.867
 Vibration     7          0.663              1.763              1.732
 Vibration     8          0.678              1.717              1.555
 Vibration     9          0.726              1.579              1.175
 Vibration    10          0.733              1.558              1.130
 Vibration    11          0.767              1.469              0.960
 Vibration    12          0.820              1.334              0.760
 Vibration    13          0.843              1.279              0.692
 Vibration    14          0.872              1.213              0.618
 Vibration    15          0.942              1.063              0.476

                           ! Non-Optimized Parameters !
 Normal termination of Gaussian 16 at Tue Dec  8 10:52:44 2020.

 ----------------------------------------------------------------------
 # B3LYP/6-311++G(d,p) empiricaldispersion=gd3bj scf=xqc pop=npa geom=c
 heck
 ----------------------------------------------------------------------

 -------------------------------------
 CID_45078920_JID_484_Energie_neutraal
 -------------------------------------
 Structure from the checkpoint file:  "JID_484.chk"
 Charge =  0 Multiplicity = 1

 SCF Done:  E(RB3LYP) =  -515.859218044     A.U. after   14 cycles
 Normal termination of Gaussian 16 at Tue Dec  8 10:56:06 2020.

 ----------------------------------------------------------------------
 # B3LYP/6-311++G(d,p) empiricaldispersion=gd3bj scf=xqc pop=npa geom=c
 heck
 ----------------------------------------------------------------------

 -----------------------------------
 CID_45078920_JID_484_Energie_kation
 -----------------------------------
 Structure from the checkpoint file:  "JID_484.chk"
 Charge =  1 Multiplicity = 2

 SCF Done:  E(UB3LYP) =  -515.517418374     A.U. after   25 cycles
 Normal termination of Gaussian 16 at Tue Dec  8 11:00:03 2020.
 Gaussian 16:  ES64L-G16RevA.03 25-Dec-2016

 ----------------------------------------------------------------------
 # B3LYP/6-311++G(d,p) empiricaldispersion=gd3bj scf=xqc pop=npa geom=c
 heck
 ----------------------------------------------------------------------

 ----------------------------------
 CID_45078920_JID_484_Energie_anion
 ----------------------------------
 Structure from the checkpoint file:  "JID_484.chk"
 Charge = -1 Multiplicity = 2

                         Standard orientation:
 ---------------------------------------------------------------------
 Center     Atomic      Atomic             Coordinates (Angstroms)
 Number     Number       Type             X           Y           Z
 ---------------------------------------------------------------------
      1          6           0       -0.012885    0.040122    1.353179
      2          6           0       -0.507731    0.148414   -0.058214
      3          6           0        0.877440   -0.445189    0.219847
      4          6           0        2.064066    0.377918   -0.159768
      5          8           0        3.093354   -0.079532   -0.613541
      6          8           0        1.891323    1.712316    0.038371
      7          7           0        1.031275   -1.869126    0.090567
      8          6           0       -1.632316   -0.730029   -0.564759
      9          6           0       -2.989588   -0.295276   -0.007574
     10          8           0       -3.314433    1.055014   -0.324346
     11          1           0       -0.423384   -0.754749    1.969150
     12          1           0        0.284001    0.939792    1.881238
     13          1           0       -0.474973    1.146733   -0.485912
     14          1           0        2.718675    2.132863   -0.260551
     15          1           0        1.375493   -2.082088   -0.844938
     16          1           0        1.763424   -2.183259    0.726177
     17          1           0       -1.664489   -0.681232   -1.660406
     18          1           0       -1.435899   -1.770144   -0.284049
     19          1           0       -3.786254   -0.902919   -0.448148
     20          1           0       -3.012440   -0.458900    1.081835
     21          1           0       -2.718949    1.619648    0.191514
 ---------------------------------------------------------------------

 SCF Done:  E(UB3LYP) =  -515.845211088     A.U. after   32 cycles

 The electronic state is 2-A.
 Alpha  occ. eigenvalues --  -19.05761 -19.01956 -19.00638 -14.19886 -10.19701
 Alpha  occ. eigenvalues --  -10.11973 -10.11515 -10.08418 -10.07489 -10.06662
 Alpha  occ. eigenvalues --   -0.99966  -0.92055  -0.91122  -0.81787  -0.73245
 Alpha  occ. eigenvalues --   -0.65289  -0.56999  -0.54217  -0.47802  -0.46445
 Alpha  occ. eigenvalues --   -0.42058  -0.40920  -0.38612  -0.38471  -0.36684
 Alpha  occ. eigenvalues --   -0.34120  -0.33753  -0.32959  -0.30965  -0.29872
 Alpha  occ. eigenvalues --   -0.28811  -0.25105  -0.23319  -0.22026  -0.21686
 Alpha  occ. eigenvalues --   -0.19209  -0.17899  -0.16990  -0.15593   0.04857
 Alpha virt. eigenvalues --    0.07263   0.07751   0.08497   0.09095   0.10034
 Alpha virt. eigenvalues --    0.10751   0.11142   0.11585   0.12256   0.13892
 Alpha virt. eigenvalues --    0.14265   0.15251   0.16424   0.16946   0.17734

  Beta  occ. eigenvalues --  -19.05697 -19.01926 -19.00619 -14.19851 -10.19698
  Beta  occ. eigenvalues --  -10.11962 -10.11498 -10.08405 -10.07452 -10.06653
  Beta  occ. eigenvalues --   -0.99890  -0.91992  -0.91056  -0.81742  -0.73192
  Beta  occ. eigenvalues --   -0.65248  -0.56917  -0.54150  -0.47704  -0.46379
  Beta  occ. eigenvalues --   -0.41974  -0.40861  -0.38569  -0.38422  -0.36637
  Beta  occ. eigenvalues --   -0.34071  -0.33707  -0.32911  -0.30922  -0.29821
  Beta  occ. eigenvalues --   -0.28780  -0.25071  -0.23288  -0.21985  -0.21640
  Beta  occ. eigenvalues --   -0.19179  -0.17856  -0.16953  -0.15540
  Beta virt. eigenvalues --    0.07241   0.08304   0.08648   0.09002   0.09985
  Beta virt. eigenvalues --    0.10145   0.11284   0.11520   0.12165   0.12493
  Beta virt. eigenvalues --    0.14317   0.14524   0.15575   0.16466   0.17289

 Mulliken charges and spin densities:
               1          2
     1  C    1.609831  -2.019189
     2  C   -0.303434   0.655758
     3  C   -1.724060   1.400262
     4  C    1.346585  -1.495878
     5  O   -0.307356   0.025172
     6  O   -0.246794   0.069190
     7  N   -0.172426  -0.120119
     8  C    0.455587  -0.863172
     9  C    0.068099  -0.509302
    10  O   -0.274228   0.022832
    11  H   -0.081536   0.255172
    12  H   -0.552890   0.767635
    13  H   -0.060745   0.327471
    14  H   -0.540030   0.843405
    15  H   -0.103282   0.354553
    16  H   -0.130430   0.389119
    17  H   -0.066986   0.215378
    18  H    0.156259   0.043967
    19  H    0.033113   0.129161
    20  H   -0.083960   0.223009
    21  H   -0.021316   0.285577
 Sum of Mulliken charges =  -1.00000   1.00000

 Dipole moment (field-independent basis, Debye):
    X=             -2.6494    Y=             -4.1074    Z=             -0.7072  Tot=              4.9387
 Quadrupole moment (field-independent basis, Debye-Ang):
   XX=           -118.2624   YY=           -101.7044   ZZ=            -86.7283
   XY=             -0.0921   XZ=              1.3883   YZ=             -1.5678

 Summary of Natural Population Analysis:

                                       Natural Population
                Natural  -----------------------------------------------
    Atom  No    Charge         Core      Valence    Rydberg      Total
 -----------------------------------------------------------------------
      C    1   -0.18585      0.99958     2.17488    0.01139     3.18585
      C    2   -0.10656      0.99956     2.09364    0.01336     3.10656
      C    3    0.00311      0.99949     1.98095    0.01645     2.99689
      C    4    0.40219      0.99961     1.57323    0.02497     2.59781
      O    5   -0.31392      0.99987     3.30727    0.00677     4.31392
      O    6   -0.34655      0.99988     3.33920    0.00747     4.34655
      N    7   -0.41541      0.99975     2.90553    0.01013     3.91541
      C    8   -0.20748      0.99960     2.19970    0.00818     3.20748
      C    9   -0.00476      0.99960     1.99335    0.01181     3.00476
      O   10   -0.37171      0.99990     3.36516    0.00665     4.37171
      H   11    0.10658      0.00000     0.39194    0.00148     0.39342
      H   12    0.11691      0.00000     0.37986    0.00323     0.38309
      H   13    0.11514      0.00000     0.38245    0.00241     0.38486
      H   14    0.24642      0.00000     0.22991    0.02367     0.25358
      H   15    0.18104      0.00000     0.31700    0.00196     0.31896
      H   16    0.18080      0.00000     0.31714    0.00205     0.31920
      H   17    0.09907      0.00000     0.39963    0.00130     0.40093
      H   18    0.11193      0.00000     0.38621    0.00186     0.38807
      H   19    0.08234      0.00000     0.41638    0.00128     0.41766
      H   20    0.07550      0.00000     0.42291    0.00159     0.42450
      H   21    0.23122      0.00000     0.26463    0.00415     0.26878
 =======================================================================
   * Total *    0.00000      9.99684    28.84098    0.16218    39.00000

 Normal termination of Gaussian 16 at Tue Dec  8 11:09:35 2020.
