 Gaussian 16, Revision A.03,

 -----------------------------------------------------------
 # opt freq B3LYP/6-31G(d) empiricaldispersion=gd3bj scf=xqc
 -----------------------------------------------------------

 ------------------------------
 CID_105422540_JID_619_neutraal
 ------------------------------
 Symbolic Z-matrix:
 Charge =  0 Multiplicity = 1

 SCF Done:  E(RB3LYP) =  -457.450475031     A.U. after   14 cycles
 SCF Done:  E(RB3LYP) =  -457.455112424     A.U. after   12 cycles
 SCF Done:  E(RB3LYP) =  -457.455476255     A.U. after   11 cycles
 SCF Done:  E(RB3LYP) =  -457.455592875     A.U. after   11 cycles
 SCF Done:  E(RB3LYP) =  -457.455634181     A.U. after   11 cycles
 SCF Done:  E(RB3LYP) =  -457.455661095     A.U. after   10 cycles
 SCF Done:  E(RB3LYP) =  -457.455699105     A.U. after   10 cycles
 SCF Done:  E(RB3LYP) =  -457.455709643     A.U. after   10 cycles
 SCF Done:  E(RB3LYP) =  -457.455716392     A.U. after    9 cycles
 SCF Done:  E(RB3LYP) =  -457.455721326     A.U. after   10 cycles
 SCF Done:  E(RB3LYP) =  -457.455721844     A.U. after    8 cycles
 Optimization completed.
    -- Stationary point found.
 Normal termination of Gaussian 16 at Tue Dec  8 12:17:46 2020.

 --------------------------------------------------------------------
 #N Geom=AllCheck Guess=TCheck SCRF=Check GenChk RB3LYP/6-31G(d) Freq
 --------------------------------------------------------------------

 Structure from the checkpoint file:  "JID_619.chk"
 ------------------------------
 CID_105422540_JID_619_neutraal
 ------------------------------
 Charge =  0 Multiplicity = 1

 SCF Done:  E(RB3LYP) =  -457.455721844     A.U. after    1 cycles

  Exact polarizability: 106.241  -1.184  85.654   1.983   2.350  58.144
 Approx polarizability: 152.042  -0.429 135.053   4.448   4.422  85.870

                      1                      2                      3
                      A                      A                      A
 Frequencies --     33.2430                68.1807               143.5442
 Red. masses --      2.8532                 3.2464                 4.1043
 Frc consts  --      0.0019                 0.0089                 0.0498
 IR Inten    --      0.2719                 4.3974                 1.2315

                      4                      5                      6
                      A                      A                      A
 Frequencies --    167.0701               183.9499               257.4113
 Red. masses --      2.9823                 4.0644                 2.7920
 Frc consts  --      0.0490                 0.0810                 0.1090
 IR Inten    --      0.5898                 0.1275                 3.5050

                      7                      8                      9
                      A                      A                      A
 Frequencies --    329.3425               391.5863               434.4641
 Red. masses --      4.0200                 1.3072                 3.0107
 Frc consts  --      0.2569                 0.1181                 0.3348
 IR Inten    --      3.0504               142.6150                11.3636

                     10                     11                     12
                      A                      A                      A
 Frequencies --    526.4884               534.0691               606.8377
 Red. masses --      1.6764                 4.1668                 2.6723
 Frc consts  --      0.2738                 0.7002                 0.5798
 IR Inten    --     40.7895                 7.2047                 1.7093

                     13                     14                     15
                      A                      A                      A
 Frequencies --    679.4557               709.2385               757.1640
 Red. masses --      2.8485                 2.6386                 3.5002
 Frc consts  --      0.7748                 0.7820                 1.1823
 IR Inten    --      6.3729                32.1980                 9.3360

                     16                     17                     18
                      A                      A                      A
 Frequencies --    803.1536               825.3360               861.2033
 Red. masses --      1.1182                 1.5090                 1.3396
 Frc consts  --      0.4250                 0.6056                 0.5854
 IR Inten    --      0.5452                 4.4252                18.0122

                     19                     20                     21
                      A                      A                      A
 Frequencies --    917.6003               924.0505               964.5825
 Red. masses --      3.3382                 2.9974                 2.6934
 Frc consts  --      1.6560                 1.5080                 1.4765
 IR Inten    --     14.2933                 4.1658                23.2888

                     22                     23                     24
                      A                      A                      A
 Frequencies --    991.9626              1050.6864              1068.9115
 Red. masses --      1.9226                 6.7313                 1.3759
 Frc consts  --      1.1146                 4.3782                 0.9262
 IR Inten    --     34.3326               116.3381                 2.8928

                     25                     26                     27
                      A                      A                      A
 Frequencies --   1080.0904              1081.8439              1133.1444
 Red. masses --      1.4089                 1.3420                 1.1023
 Frc consts  --      0.9684                 0.9254                 0.8339
 IR Inten    --      6.6455                 3.1567                 0.4232

                     28                     29                     30
                      A                      A                      A
 Frequencies --   1138.8769              1155.2446              1209.9506
 Red. masses --      3.3356                 3.0043                 1.2198
 Frc consts  --      2.5490                 2.3623                 1.0521
 IR Inten    --     17.8132                12.5318                19.1420

                     31                     32                     33
                      A                      A                      A
 Frequencies --   1213.7751              1235.7044              1264.3695
 Red. masses --      1.3861                 2.2589                 1.5619
 Frc consts  --      1.2032                 2.0322                 1.4711
 IR Inten    --      0.4017                 0.0957                 0.3427

                     34                     35                     36
                      A                      A                      A
 Frequencies --   1306.3893              1369.3902              1397.9606
 Red. masses --      2.2985                 1.3914                 3.6744
 Frc consts  --      2.3112                 1.5373                 4.2308
 IR Inten    --     41.7653                 1.8589                14.0522

                     37                     38                     39
                      A                      A                      A
 Frequencies --   1411.5637              1436.4602              1474.5752
 Red. masses --      1.5701                 1.5376                 2.5574
 Frc consts  --      1.8432                 1.8693                 3.2762
 IR Inten    --     41.0355                47.6946                 2.6182

                     40                     41                     42
                      A                      A                      A
 Frequencies --   1495.7886              1528.0758              1532.1643
 Red. masses --      1.0875                 1.6656                 1.3181
 Frc consts  --      1.4336                 2.2915                 1.8231
 IR Inten    --      1.2505                 3.4223                 1.8565

                     43                     44                     45
                      A                      A                      A
 Frequencies --   1537.0516              1642.2009              3027.4679
 Red. masses --      1.7183                 5.6864                 1.0665
 Frc consts  --      2.3919                 9.0352                 5.7592
 IR Inten    --      1.4425                 1.9416                45.4709

                     46                     47                     48
                      A                      A                      A
 Frequencies --   3082.9866              3146.0722              3149.3692
 Red. masses --      1.0975                 1.0503                 1.0588
 Frc consts  --      6.1462                 6.1250                 6.1877
 IR Inten    --     30.0540                22.8275                12.6176

                     49                     50                     51
                      A                      A                      A
 Frequencies --   3159.1753              3221.8527              3236.7010
 Red. masses --      1.0886                 1.1202                 1.1160
 Frc consts  --      6.4011                 6.8508                 6.8886
 IR Inten    --     13.5009                 0.2590                23.2882

                     52                     53                     54
                      A                      A                      A
 Frequencies --   3249.4855              3662.6673              3728.8850
 Red. masses --      1.0955                 1.0808                 1.0661
 Frc consts  --      6.8155                 8.5428                 8.7338
 IR Inten    --      7.9747                89.2630                13.7190

 - Thermochemistry -
 -------------------
 Temperature   298.150 Kelvin.  Pressure   1.00000 Atm.
 Atom     1 has atomic number  6 and mass  12.00000

 Molecular mass:   138.07931 amu.
 Principal axes and moments of inertia in atomic units:
                           1         2         3
     Eigenvalues --   812.003531928.955432540.74878
           X            1.00000  -0.00227   0.00115
           Y            0.00226   0.99999   0.00480
           Z           -0.00117  -0.00480   0.99999
 This molecule is an asymmetric top.
 Rotational symmetry number  1.
 Warning -- assumption of classical behavior for rotation
           may cause significant error
 Rotational temperatures (Kelvin)      0.10667     0.04490     0.03409
 Rotational constants (GHZ):           2.22258     0.93561     0.71032
 Zero-point vibrational energy     439859.8 (Joules/Mol)
                                  105.12901 (Kcal/Mol)
 Warning -- explicit consideration of  12 degrees of freedom as
           vibrations may cause significant error
 Vibrational temperatures:     47.83    98.10   206.53   240.38   264.66
          (Kelvin)            370.36   473.85   563.41   625.10   757.50
                              768.41   873.10   977.59  1020.44  1089.39
                             1155.56  1187.47  1239.08  1320.22  1329.50
                             1387.82  1427.21  1511.70  1537.93  1554.01
                             1556.53  1630.34  1638.59  1662.14  1740.85
                             1746.35  1777.90  1819.15  1879.60  1970.25
                             2011.35  2030.93  2066.75  2121.58  2152.11
                             2198.56  2204.44  2211.47  2362.76  4355.85
                             4435.73  4526.50  4531.24  4545.35  4635.53
                             4656.89  4675.28  5269.76  5365.03

 Zero-point correction=                           0.167534 (Hartree/Particle)
 Thermal correction to Energy=                    0.176921
 Thermal correction to Enthalpy=                  0.177865
 Thermal correction to Gibbs Free Energy=         0.131866
 Sum of electronic and zero-point Energies=           -457.288188
 Sum of electronic and thermal Energies=              -457.278801
 Sum of electronic and thermal Enthalpies=            -457.277856
 Sum of electronic and thermal Free Energies=         -457.323856

                     E (Thermal)             CV                S
                      KCal/Mol        Cal/Mol-Kelvin    Cal/Mol-Kelvin
 Total                  111.020             34.841             96.815
 Electronic               0.000              0.000              0.000
 Translational            0.889              2.981             40.680
 Rotational               0.889              2.981             29.766
 Vibrational            109.242             28.879             26.369
 Vibration     1          0.594              1.983              5.626
 Vibration     2          0.598              1.969              4.205
 Vibration     3          0.616              1.910              2.756
 Vibration     4          0.624              1.883              2.468
 Vibration     5          0.631              1.862              2.288
 Vibration     6          0.667              1.750              1.679
 Vibration     7          0.712              1.617              1.263
 Vibration     8          0.759              1.488              0.994
 Vibration     9          0.795              1.395              0.844
 Vibration    10          0.881              1.191              0.595
 Vibration    11          0.889              1.175              0.578
 Vibration    12          0.966              1.017              0.438

                           ! Non-Optimized Parameters !
 Normal termination of Gaussian 16 at Tue Dec  8 12:22:07 2020.

 ----------------------------------------------------------------------
 # B3LYP/6-311++G(d,p) empiricaldispersion=gd3bj scf=xqc pop=npa geom=c
 heck
 ----------------------------------------------------------------------

 --------------------------------------
 CID_105422540_JID_619_Energie_neutraal
 --------------------------------------
 Structure from the checkpoint file:  "JID_619.chk"
 Charge =  0 Multiplicity = 1

 SCF Done:  E(RB3LYP) =  -457.593616344     A.U. after   14 cycles
 Normal termination of Gaussian 16 at Tue Dec  8 12:24:46 2020.

 ----------------------------------------------------------------------
 # B3LYP/6-311++G(d,p) empiricaldispersion=gd3bj scf=xqc pop=npa geom=c
 heck
 ----------------------------------------------------------------------

 ------------------------------------
 CID_105422540_JID_619_Energie_kation
 ------------------------------------
 Structure from the checkpoint file:  "JID_619.chk"
 Charge =  1 Multiplicity = 2

 SCF Done:  E(UB3LYP) =  -457.287430870     A.U. after   21 cycles
 Normal termination of Gaussian 16 at Tue Dec  8 12:30:04 2020.
 Gaussian 16:  ES64L-G16RevA.03 25-Dec-2016

 ----------------------------------------------------------------------
 # B3LYP/6-311++G(d,p) empiricaldispersion=gd3bj scf=xqc pop=npa geom=c
 heck
 ----------------------------------------------------------------------

 -----------------------------------
 CID_105422540_JID_619_Energie_anion
 -----------------------------------
 Structure from the checkpoint file:  "JID_619.chk"
 Charge = -1 Multiplicity = 2

                         Standard orientation:
 ---------------------------------------------------------------------
 Center     Atomic      Atomic             Coordinates (Angstroms)
 Number     Number       Type             X           Y           Z
 ---------------------------------------------------------------------
      1          6           0        2.841605   -0.521805   -0.701314
      2          6           0        2.788390   -0.547601    0.800837
      3          6           0        1.527321   -0.807509    0.001420
      4          6           0        0.433746    0.187787   -0.020857
      5          6           0       -0.926430   -0.054076   -0.168068
      6          7           0       -1.532656    1.167356   -0.139922
      7          7           0       -0.673728    2.190942    0.031250
      8          6           0        0.520187    1.601559    0.093979
      9          6           0       -1.732947   -1.299675   -0.356863
     10          8           0       -2.974344   -1.240693    0.347140
     11          1           0        3.335692   -1.340452   -1.217197
     12          1           0        2.934741    0.440920   -1.196083
     13          1           0        3.244558   -1.385367    1.320814
     14          1           0        2.851660    0.396088    1.335496
     15          1           0        1.195436   -1.842599   -0.031403
     16          1           0       -2.526995    1.338148   -0.164406
     17          1           0        1.405987    2.209642    0.225623
     18          1           0       -2.014592   -1.435745   -1.407271
     19          1           0       -1.136426   -2.176143   -0.065803
     20          1           0       -2.761855   -1.139114    1.289012
 ---------------------------------------------------------------------

 SCF Done:  E(UB3LYP) =  -457.580116685     A.U. after   32 cycles

 The electronic state is 2-A.
 Alpha  occ. eigenvalues --  -19.01885 -14.27335 -14.22516 -10.12081 -10.10041
 Alpha  occ. eigenvalues --  -10.08267 -10.08151 -10.07097 -10.07056 -10.06866
 Alpha  occ. eigenvalues --   -0.94185  -0.91750  -0.76236  -0.71564  -0.68163
 Alpha  occ. eigenvalues --   -0.58882  -0.53235  -0.50434  -0.50039  -0.45588
 Alpha  occ. eigenvalues --   -0.43135  -0.39209  -0.37970  -0.35357  -0.35263
 Alpha  occ. eigenvalues --   -0.33649  -0.31591  -0.31306  -0.27367  -0.26754
 Alpha  occ. eigenvalues --   -0.23939  -0.22345  -0.20324  -0.19055  -0.18311
 Alpha  occ. eigenvalues --   -0.14914  -0.12261   0.04779
 Alpha virt. eigenvalues --    0.07040   0.08143   0.08412   0.09773   0.09841
 Alpha virt. eigenvalues --    0.10540   0.11373   0.12136   0.12871   0.13480
 Alpha virt. eigenvalues --    0.14653   0.14839   0.16205   0.17017   0.17496

  Beta  occ. eigenvalues --  -19.01822 -14.27294 -14.22493 -10.12038 -10.10043
  Beta  occ. eigenvalues --  -10.08266 -10.08136 -10.07077 -10.07037 -10.06858
  Beta  occ. eigenvalues --   -0.94132  -0.91623  -0.76206  -0.71503  -0.68122
  Beta  occ. eigenvalues --   -0.58756  -0.53195  -0.50389  -0.49977  -0.45540
  Beta  occ. eigenvalues --   -0.43053  -0.39150  -0.37883  -0.35305  -0.35175
  Beta  occ. eigenvalues --   -0.33598  -0.31512  -0.31277  -0.27328  -0.26721
  Beta  occ. eigenvalues --   -0.23875  -0.22304  -0.20291  -0.19010  -0.18240
  Beta  occ. eigenvalues --   -0.14842  -0.12193
  Beta virt. eigenvalues --    0.07388   0.08133   0.08741   0.09130   0.10393
  Beta virt. eigenvalues --    0.10484   0.10925   0.11752   0.12373   0.13362
  Beta virt. eigenvalues --    0.13778   0.14843   0.15066   0.16611   0.16982

 Mulliken charges and spin densities:
               1          2
     1  C    0.666523  -1.228684
     2  C    1.055762  -1.577782
     3  C   -3.338735   3.419964
     4  C    0.334752   0.105569
     5  C    0.300756  -0.618713
     6  N   -0.169639   0.206227
     7  N   -0.188387  -0.039601
     8  C   -0.586104   0.501272
     9  C    3.969376  -4.509065
    10  O   -0.268897   0.012697
    11  H   -0.352286   0.495199
    12  H   -0.018922   0.154482
    13  H   -0.381671   0.531049
    14  H   -0.057293   0.185495
    15  H   -0.911255   1.203075
    16  H    0.053483   0.267494
    17  H    0.057312   0.108666
    18  H   -0.320612   0.499175
    19  H   -0.483890   0.665735
    20  H   -0.360274   0.617746
 Sum of Mulliken charges =  -1.00000   1.00000

 Dipole moment (field-independent basis, Debye):
    X=              1.1617    Y=              5.3664    Z=             -1.5994  Tot=              5.7189
 Quadrupole moment (field-independent basis, Debye-Ang):
   XX=           -115.2399   YY=           -106.6201   ZZ=            -86.7652
   XY=              3.9470   XZ=              3.7820   YZ=              2.3227

 Summary of Natural Population Analysis:

                                       Natural Population
                Natural  -----------------------------------------------
    Atom  No    Charge         Core      Valence    Rydberg      Total
 -----------------------------------------------------------------------
      C    1   -0.19231      0.99963     2.18449    0.00819     3.19231
      C    2   -0.19205      0.99963     2.18396    0.00847     3.19205
      C    3   -0.12026      0.99957     2.10771    0.01299     3.12026
      C    4   -0.06811      0.99947     2.05618    0.01246     3.06811
      C    5    0.06358      0.99949     1.92354    0.01339     2.93642
      N    6   -0.16557      0.99965     2.65271    0.01320     3.66557
      N    7   -0.15407      0.99974     2.64094    0.01339     3.65407
      C    8   -0.01643      0.99959     2.00349    0.01335     3.01643
      C    9   -0.02175      0.99956     2.00913    0.01305     3.02175
      O   10   -0.36849      0.99991     3.36159    0.00699     4.36849
      H   11    0.10415      0.00000     0.39435    0.00149     0.39585
      H   12    0.09925      0.00000     0.39971    0.00104     0.40075
      H   13    0.10502      0.00000     0.39346    0.00152     0.39498
      H   14    0.09903      0.00000     0.39984    0.00113     0.40097
      H   15    0.11192      0.00000     0.38514    0.00293     0.38808
      H   16    0.20250      0.00000     0.29470    0.00280     0.29750
      H   17    0.09479      0.00000     0.40407    0.00114     0.40521
      H   18    0.09314      0.00000     0.40511    0.00175     0.40686
      H   19    0.09143      0.00000     0.40535    0.00322     0.40857
      H   20    0.23420      0.00000     0.25149    0.01431     0.26580
 =======================================================================
   * Total *    0.00000      9.99623    26.85695    0.14682    37.00000

 Normal termination of Gaussian 16 at Tue Dec  8 12:40:03 2020.
