 Gaussian 16, Revision A.03,

 -----------------------------------------------------------
 # opt freq B3LYP/6-31G(d) empiricaldispersion=gd3bj scf=xqc
 -----------------------------------------------------------

 -------------------------------
 CID_104621790_JID_3144_neutraal
 -------------------------------
 Symbolic Z-matrix:
 Charge =  0 Multiplicity = 1

 SCF Done:  E(RB3LYP) =  -587.861386375     A.U. after   15 cycles
 SCF Done:  E(RB3LYP) =  -587.866948076     A.U. after   13 cycles
 SCF Done:  E(RB3LYP) =  -587.867620626     A.U. after   12 cycles
 SCF Done:  E(RB3LYP) =  -587.867680793     A.U. after   12 cycles
 SCF Done:  E(RB3LYP) =  -587.867358129     A.U. after   12 cycles
 SCF Done:  E(RB3LYP) =  -587.867749966     A.U. after   10 cycles
 SCF Done:  E(RB3LYP) =  -587.867754461     A.U. after    9 cycles
 SCF Done:  E(RB3LYP) =  -587.867760495     A.U. after    9 cycles
 SCF Done:  E(RB3LYP) =  -587.867772404     A.U. after   11 cycles
 SCF Done:  E(RB3LYP) =  -587.867784533     A.U. after   11 cycles
 SCF Done:  E(RB3LYP) =  -587.867875677     A.U. after   11 cycles
 SCF Done:  E(RB3LYP) =  -587.867942598     A.U. after    7 cycles
 SCF Done:  E(RB3LYP) =  -587.867944550     A.U. after   10 cycles
 SCF Done:  E(RB3LYP) =  -587.867946155     A.U. after    8 cycles
 SCF Done:  E(RB3LYP) =  -587.867946425     A.U. after    8 cycles
 SCF Done:  E(RB3LYP) =  -587.867946439     A.U. after    7 cycles
 Optimization completed.
    -- Stationary point found.
 Normal termination of Gaussian 16 at Wed Dec  9 22:32:08 2020.

 --------------------------------------------------------------------
 #N Geom=AllCheck Guess=TCheck SCRF=Check GenChk RB3LYP/6-31G(d) Freq
 --------------------------------------------------------------------

 Structure from the checkpoint file:  "JID_3144.chk"
 -------------------------------
 CID_104621790_JID_3144_neutraal
 -------------------------------
 Charge =  0 Multiplicity = 1

 SCF Done:  E(RB3LYP) =  -587.867946439     A.U. after    1 cycles

  Exact polarizability: 184.570  16.574 118.745  -4.205   5.394  54.700
 Approx polarizability: 288.912  36.096 223.055 -10.980  15.280  84.088

                      1                      2                      3
                      A                      A                      A
 Frequencies --     34.6381                65.9876               137.5277
 Red. masses --      2.5162                 5.9109                 4.0354
 Frc consts  --      0.0018                 0.0152                 0.0450
 IR Inten    --      0.0433                 0.5196                 3.5093

                      4                      5                      6
                      A                      A                      A
 Frequencies --    156.3498               179.6329               201.2501
 Red. masses --      3.6411                 3.3416                 2.3675
 Frc consts  --      0.0524                 0.0635                 0.0565
 IR Inten    --      4.4652                 7.2865                 3.9476

                      7                      8                      9
                      A                      A                      A
 Frequencies --    240.8084               280.9239               313.7101
 Red. masses --      3.3349                 1.4959                 3.5123
 Frc consts  --      0.1139                 0.0696                 0.2037
 IR Inten    --      2.3367                 1.0158                 0.2979

                     10                     11                     12
                      A                      A                      A
 Frequencies --    414.0801               424.4127               437.8386
 Red. masses --      4.4466                 5.3859                 3.9417
 Frc consts  --      0.4492                 0.5716                 0.4452
 IR Inten    --      1.6148                 0.7950                 1.2905

                     13                     14                     15
                      A                      A                      A
 Frequencies --    508.1904               578.6020               606.7080
 Red. masses --      5.0380                 4.6305                 4.3699
 Frc consts  --      0.7666                 0.9133                 0.9477
 IR Inten    --     19.4113                 5.9732                 8.1264

                     16                     17                     18
                      A                      A                      A
 Frequencies --    631.2470               667.8161               704.8378
 Red. masses --      6.2687                 4.8098                 4.7550
 Frc consts  --      1.4717                 1.2638                 1.3918
 IR Inten    --      1.1152                10.7098                37.9080

                     19                     20                     21
                      A                      A                      A
 Frequencies --    761.2855               770.4518               798.2370
 Red. masses --      4.6645                 7.4163                 1.3971
 Frc consts  --      1.5928                 2.5937                 0.5245
 IR Inten    --     18.2174                 9.9324                 3.0688

                     22                     23                     24
                      A                      A                      A
 Frequencies --    876.9280               912.8873               926.5758
 Red. masses --      4.5184                 1.3654                 1.3991
 Frc consts  --      2.0472                 0.6704                 0.7077
 IR Inten    --      5.2903                 7.4622                13.6982

                     25                     26                     27
                      A                      A                      A
 Frequencies --    959.7585               967.1497              1007.5926
 Red. masses --      1.3588                 2.3547                 3.1032
 Frc consts  --      0.7374                 1.2977                 1.8562
 IR Inten    --      2.2871                19.4859                 7.2499

                     28                     29                     30
                      A                      A                      A
 Frequencies --   1029.9116              1054.3877              1101.5977
 Red. masses --      1.7804                 2.5389                 1.6991
 Frc consts  --      1.1127                 1.6630                 1.2148
 IR Inten    --      0.2599                16.0573                 9.4523

                     31                     32                     33
                      A                      A                      A
 Frequencies --   1126.3662              1131.5529              1220.2361
 Red. masses --      2.4435                 2.9083                 1.6718
 Frc consts  --      1.8265                 2.1940                 1.4666
 IR Inten    --     30.7557                43.0784                57.8242

                     34                     35                     36
                      A                      A                      A
 Frequencies --   1255.0426              1299.9795              1305.6029
 Red. masses --      3.2455                 2.7002                 1.4113
 Frc consts  --      3.0120                 2.6886                 1.4174
 IR Inten    --      4.3990                81.3814                 1.4035

                     37                     38                     39
                      A                      A                      A
 Frequencies --   1316.5520              1357.1622              1400.6028
 Red. masses --      2.1745                 1.7096                 2.6050
 Frc consts  --      2.2207                 1.8553                 3.0108
 IR Inten    --     60.6995                17.0128                26.4578

                     40                     41                     42
                      A                      A                      A
 Frequencies --   1431.0428              1435.7539              1439.7040
 Red. masses --      2.0915                 1.2728                 1.8434
 Frc consts  --      2.5236                 1.5458                 2.2512
 IR Inten    --     30.9462                 8.4017                21.6942

                     43                     44                     45
                      A                      A                      A
 Frequencies --   1455.6761              1513.3734              1519.2300
 Red. masses --      2.4625                 1.2478                 2.8697
 Frc consts  --      3.0744                 1.6837                 3.9024
 IR Inten    --      2.0290                 7.6645                17.3622

                     46                     47                     48
                      A                      A                      A
 Frequencies --   1527.7172              1540.4144              1558.1027
 Red. masses --      1.0441                 1.1191                 5.9748
 Frc consts  --      1.4357                 1.5646                 8.5461
 IR Inten    --      5.9119                 4.9948                33.7020

                     49                     50                     51
                      A                      A                      A
 Frequencies --   1624.3504              1669.4706              1797.8871
 Red. masses --      5.8339                 8.2397                 9.3436
 Frc consts  --      9.0692                13.5306                17.7946
 IR Inten    --     89.9923               289.6213               237.0130

                     52                     53                     54
                      A                      A                      A
 Frequencies --   2930.5643              3048.3683              3054.2365
 Red. masses --      1.0844                 1.0603                 1.0352
 Frc consts  --      5.4869                 5.8052                 5.6894
 IR Inten    --    134.4388                33.4717                33.7232

                     55                     56                     57
                      A                      A                      A
 Frequencies --   3083.9255              3122.4616              3135.4064
 Red. masses --      1.1030                 1.1031                 1.1032
 Frc consts  --      6.1808                 6.3365                 6.3899
 IR Inten    --     11.1774                42.4227                27.7285

                     58                     59                     60
                      A                      A                      A
 Frequencies --   3168.1655              3250.9246              3256.9202
 Red. masses --      1.0901                 1.0960                 1.0938
 Frc consts  --      6.4469                 6.8244                 6.8362
 IR Inten    --     13.7040                 6.5094                 3.4069

 - Thermochemistry -
 -------------------
 Temperature   298.150 Kelvin.  Pressure   1.00000 Atm.
 Atom     1 has atomic number  6 and mass  12.00000

 Molecular mass:   175.07456 amu.
 Principal axes and moments of inertia in atomic units:
                           1         2         3
     Eigenvalues --   924.719173648.305144425.86536
           X            0.99996  -0.00724   0.00514
           Y            0.00728   0.99994  -0.00815
           Z           -0.00508   0.00818   0.99995
 This molecule is an asymmetric top.
 Rotational symmetry number  1.
 Warning -- assumption of classical behavior for rotation
           may cause significant error
 Rotational temperatures (Kelvin)      0.09367     0.02374     0.01957
 Rotational constants (GHZ):           1.95166     0.49468     0.40777
 Zero-point vibrational energy     452954.7 (Joules/Mol)
                                  108.25878 (Kcal/Mol)
 Warning -- explicit consideration of  15 degrees of freedom as
           vibrations may cause significant error
 Vibrational temperatures:     49.84    94.94   197.87   224.95   258.45
          (Kelvin)            289.55   346.47   404.19   451.36   595.77
                              610.64   629.95   731.17   832.48   872.92
                              908.22   960.84  1014.10  1095.32  1108.51
                             1148.49  1261.70  1313.44  1333.14  1380.88
                             1391.51  1449.70  1481.81  1517.03  1584.95
                             1620.59  1628.05  1755.65  1805.73  1870.38
                             1878.47  1894.22  1952.65  2015.16  2058.95
                             2065.73  2071.41  2094.39  2177.41  2185.83
                             2198.04  2216.31  2241.76  2337.08  2402.00
                             2586.76  4216.43  4385.92  4394.37  4437.08
                             4492.53  4511.15  4558.28  4677.36  4685.98

 Zero-point correction=                           0.172521 (Hartree/Particle)
 Thermal correction to Energy=                    0.183404
 Thermal correction to Enthalpy=                  0.184348
 Thermal correction to Gibbs Free Energy=         0.134878
 Sum of electronic and zero-point Energies=           -587.695425
 Sum of electronic and thermal Energies=              -587.684543
 Sum of electronic and thermal Enthalpies=            -587.683599
 Sum of electronic and thermal Free Energies=         -587.733068

                     E (Thermal)             CV                S
                      KCal/Mol        Cal/Mol-Kelvin    Cal/Mol-Kelvin
 Total                  115.087             40.876            104.117
 Electronic               0.000              0.000              0.000
 Translational            0.889              2.981             41.387
 Rotational               0.889              2.981             31.080
 Vibrational            113.310             34.915             31.650
 Vibration     1          0.594              1.983              5.544
 Vibration     2          0.597              1.970              4.270
 Vibration     3          0.614              1.916              2.838
 Vibration     4          0.620              1.896              2.593
 Vibration     5          0.629              1.867              2.332
 Vibration     6          0.638              1.838              2.122
 Vibration     7          0.658              1.778              1.797
 Vibration     8          0.681              1.709              1.528
 Vibration     9          0.702              1.648              1.343
 Vibration    10          0.778              1.440              0.912
 Vibration    11          0.786              1.417              0.877
 Vibration    12          0.798              1.388              0.833
 Vibration    13          0.863              1.232              0.638
 Vibration    14          0.935              1.078              0.488
 Vibration    15          0.965              1.018              0.438

 Optimization completed.
    -- Stationary point found.
 Normal termination of Gaussian 16 at Wed Dec  9 22:37:02 2020.

 ----------------------------------------------------------------------
 # B3LYP/6-311++G(d,p) empiricaldispersion=gd3bj scf=xqc pop=npa geom=c
 heck
 ----------------------------------------------------------------------

 ---------------------------------------
 CID_104621790_JID_3144_Energie_neutraal
 ---------------------------------------
 Structure from the checkpoint file:  "JID_3144.chk"
 Charge =  0 Multiplicity = 1

 SCF Done:  E(RB3LYP) =  -588.022451515     A.U. after   15 cycles
 Normal termination of Gaussian 16 at Wed Dec  9 22:39:03 2020.

 ----------------------------------------------------------------------
 # B3LYP/6-311++G(d,p) empiricaldispersion=gd3bj scf=xqc pop=npa geom=c
 heck
 ----------------------------------------------------------------------

 -------------------------------------
 CID_104621790_JID_3144_Energie_kation
 -------------------------------------
 Structure from the checkpoint file:  "JID_3144.chk"
 Charge =  1 Multiplicity = 2

 SCF Done:  E(UB3LYP) =  -587.715238552     A.U. after   24 cycles
 Normal termination of Gaussian 16 at Wed Dec  9 22:43:48 2020.
 Gaussian 16:  ES64L-G16RevA.03 25-Dec-2016

 ----------------------------------------------------------------------
 # B3LYP/6-311++G(d,p) empiricaldispersion=gd3bj scf=xqc pop=npa geom=c
 heck
 ----------------------------------------------------------------------

 ------------------------------------
 CID_104621790_JID_3144_Energie_anion
 ------------------------------------
 Structure from the checkpoint file:  "JID_3144.chk"
 Charge = -1 Multiplicity = 2

                         Standard orientation:
 ---------------------------------------------------------------------
 Center     Atomic      Atomic             Coordinates (Angstroms)
 Number     Number       Type             X           Y           Z
 ---------------------------------------------------------------------
      1          6           0        3.549302   -1.298592    0.775504
      2          6           0        3.229280   -0.394618   -0.426168
      3          6           0        1.955977    0.377140   -0.249184
      4          6           0        0.664919   -0.138821   -0.208226
      5          7           0        0.167506   -1.390107   -0.329111
      6          6           0       -1.136434   -1.524046   -0.240083
      7          6           0       -2.040315   -0.437876   -0.025801
      8          6           0       -1.519788    0.834025    0.095728
      9          7           0       -0.185610    0.979079    0.005823
     10          7           0        0.498741    2.141784    0.099862
     11          6           0        1.775919    1.762843   -0.053033
     12          6           0       -3.494836   -0.645832    0.066810
     13          8           0       -4.304733    0.244436    0.247598
     14          1           0        3.652168   -0.708084    1.692397
     15          1           0        4.484251   -1.845955    0.612749
     16          1           0        2.746781   -2.026904    0.928262
     17          1           0        4.052163    0.310389   -0.593361
     18          1           0        3.158411   -1.012539   -1.329947
     19          1           0       -1.534820   -2.533281   -0.337952
     20          1           0       -2.118651    1.722089    0.259348
     21          1           0        2.548986    2.520742   -0.019282
     22          1           0       -3.820023   -1.702580   -0.042283
 ---------------------------------------------------------------------

 SCF Done:  E(UB3LYP) =  -588.058501767     A.U. after   24 cycles

 The electronic state is 2-A.
 Alpha  occ. eigenvalues --  -18.94170 -14.26182 -14.19224 -14.16770 -10.09304
 Alpha  occ. eigenvalues --  -10.08207 -10.07970 -10.06599 -10.05887 -10.05574
 Alpha  occ. eigenvalues --  -10.04779 -10.03737 -10.02786  -0.92253  -0.87722
 Alpha  occ. eigenvalues --   -0.80456  -0.72567  -0.67638  -0.64189  -0.61127
 Alpha  occ. eigenvalues --   -0.53716  -0.52057  -0.49853  -0.45414  -0.43508
 Alpha  occ. eigenvalues --   -0.39245  -0.36935  -0.34311  -0.33782  -0.32912
 Alpha  occ. eigenvalues --   -0.32508  -0.29365  -0.27715  -0.27374  -0.26879
 Alpha  occ. eigenvalues --   -0.26200  -0.25104  -0.24938  -0.23593  -0.22444
 Alpha  occ. eigenvalues --   -0.18066  -0.17632  -0.13081  -0.12131  -0.09852
 Alpha  occ. eigenvalues --   -0.08314   0.02703
 Alpha virt. eigenvalues --    0.07727   0.09535   0.09720   0.10110   0.10391
 Alpha virt. eigenvalues --    0.11958   0.12614   0.12894   0.13705   0.14430
 Alpha virt. eigenvalues --    0.14690   0.15549   0.16359   0.16995   0.17201

  Beta  occ. eigenvalues --  -18.93808 -14.26170 -14.19257 -14.16573 -10.09184
  Beta  occ. eigenvalues --  -10.07998 -10.07954 -10.06596 -10.05732 -10.05577
  Beta  occ. eigenvalues --  -10.04045 -10.03791 -10.02818  -0.92027  -0.87047
  Beta  occ. eigenvalues --   -0.80197  -0.72088  -0.67569  -0.63902  -0.60922
  Beta  occ. eigenvalues --   -0.53267  -0.51687  -0.49592  -0.45204  -0.42952
  Beta  occ. eigenvalues --   -0.39028  -0.36751  -0.34110  -0.33378  -0.32749
  Beta  occ. eigenvalues --   -0.32158  -0.29025  -0.27541  -0.27295  -0.26555
  Beta  occ. eigenvalues --   -0.25907  -0.24980  -0.23807  -0.23474  -0.21261
  Beta  occ. eigenvalues --   -0.17589  -0.16326  -0.12888  -0.11349  -0.09545
  Beta  occ. eigenvalues --   -0.07417
  Beta virt. eigenvalues --    0.07710   0.09417   0.09724   0.10096   0.10381
  Beta virt. eigenvalues --    0.10619   0.11931   0.12574   0.12861   0.13683
  Beta virt. eigenvalues --    0.14456   0.15123   0.15824   0.16589   0.17201

 Mulliken charges and spin densities:
               1          2
     1  C   -0.520460  -0.016447
     2  C   -0.633077   0.032127
     3  C    1.196221  -0.051666
     4  C   -1.189672   0.044860
     5  N   -0.088226   0.092406
     6  C   -0.095059  -0.000045
     7  C    0.357951  -0.016060
     8  C    0.023838   0.565317
     9  N    0.212665  -0.035478
    10  N   -0.188048  -0.022414
    11  C   -0.334367   0.126519
    12  C   -0.499095   0.222204
    13  O   -0.386563   0.127077
    14  H    0.116229   0.003326
    15  H    0.085234   0.000948
    16  H    0.170110   0.002391
    17  H    0.136976  -0.000200
    18  H    0.141312  -0.001471
    19  H    0.156750  -0.001396
    20  H    0.207761  -0.044676
    21  H    0.099793  -0.010382
    22  H    0.029726  -0.016940
 Sum of Mulliken charges =  -1.00000   1.00000

 Dipole moment (field-independent basis, Debye):
    X=              6.8910    Y=             -1.9781    Z=             -0.3418  Tot=              7.1775
 Quadrupole moment (field-independent basis, Debye-Ang):
   XX=           -124.8296   YY=            -92.9953   ZZ=            -83.8573
   XY=              5.4488   XZ=              2.0728   YZ=             -0.8927

 Summary of Natural Population Analysis:

                                       Natural Population
                Natural  -----------------------------------------------
    Atom  No    Charge         Core      Valence    Rydberg      Total
 -----------------------------------------------------------------------
      C    1   -0.28288      0.99967     2.27924    0.00397     3.28288
      C    2   -0.19009      0.99962     2.18289    0.00758     3.19009
      C    3   -0.10640      0.99946     2.09605    0.01089     3.10640
      C    4    0.19294      0.99948     1.78899    0.01860     2.80706
      N    5   -0.23673      0.99967     2.72604    0.01102     3.73673
      C    6    0.04721      0.99959     1.93909    0.01411     2.95279
      C    7   -0.13851      0.99950     2.13063    0.00838     3.13851
      C    8    0.21181      0.99953     1.77777    0.01089     2.78819
      N    9   -0.09573      0.99960     2.58239    0.01374     3.59573
      N   10   -0.17881      0.99974     2.66608    0.01300     3.67881
      C   11    0.02982      0.99960     1.95661    0.01397     2.97018
      C   12    0.24082      0.99969     1.73871    0.02077     2.75918
      O   13   -0.26748      0.99988     3.25971    0.00788     4.26748
      H   14    0.09353      0.00000     0.40537    0.00109     0.40647
      H   15    0.08662      0.00000     0.41222    0.00115     0.41338
      H   16    0.10561      0.00000     0.39320    0.00119     0.39439
      H   17    0.09142      0.00000     0.40736    0.00122     0.40858
      H   18    0.09754      0.00000     0.40111    0.00135     0.40246
      H   19    0.08243      0.00000     0.41617    0.00139     0.41757
      H   20    0.09995      0.00000     0.39881    0.00125     0.40005
      H   21    0.08600      0.00000     0.41305    0.00095     0.41400
      H   22    0.03093      0.00000     0.46606    0.00301     0.46907
 =======================================================================
   * Total *    0.00000     12.99504    32.83755    0.16742    46.00000

 Normal termination of Gaussian 16 at Wed Dec  9 22:49:09 2020.
