 Gaussian 16, Revision A.03,

 -----------------------------------------------------------
 # opt freq B3LYP/6-31G(d) empiricaldispersion=gd3bj scf=xqc
 -----------------------------------------------------------

 ----------------------------
 CID_140544778_JID_8_neutraal
 ----------------------------
 Symbolic Z-matrix:
 Charge =  0 Multiplicity = 1

 SCF Done:  E(RB3LYP) =  -787.946192836     A.U. after   14 cycles
 SCF Done:  E(RB3LYP) =  -787.948799343     A.U. after   12 cycles
 SCF Done:  E(RB3LYP) =  -787.949213883     A.U. after   13 cycles
 SCF Done:  E(RB3LYP) =  -787.948930719     A.U. after   14 cycles
 SCF Done:  E(RB3LYP) =  -787.949749791     A.U. after   13 cycles
 SCF Done:  E(RB3LYP) =  -787.949789940     A.U. after   12 cycles
 SCF Done:  E(RB3LYP) =  -787.949810246     A.U. after   11 cycles
 SCF Done:  E(RB3LYP) =  -787.949823363     A.U. after   11 cycles
 SCF Done:  E(RB3LYP) =  -787.949830322     A.U. after    9 cycles
 SCF Done:  E(RB3LYP) =  -787.949835671     A.U. after    9 cycles
 SCF Done:  E(RB3LYP) =  -787.949836206     A.U. after    8 cycles
 SCF Done:  E(RB3LYP) =  -787.949836487     A.U. after    8 cycles
 Optimization completed.
    -- Stationary point found.
 Normal termination of Gaussian 16 at Tue Dec  8 10:16:13 2020.

 --------------------------------------------------------------------
 #N Geom=AllCheck Guess=TCheck SCRF=Check GenChk RB3LYP/6-31G(d) Freq
 --------------------------------------------------------------------

 Structure from the checkpoint file:  "JID_8.chk"
 ----------------------------
 CID_140544778_JID_8_neutraal
 ----------------------------
 Charge =  0 Multiplicity = 1

 SCF Done:  E(RB3LYP) =  -787.949836487     A.U. after    1 cycles

  Exact polarizability: 109.751  -2.745 102.135  -0.033  -0.961  92.943
 Approx polarizability: 135.869  -6.108 148.917  -5.359  -8.265 148.546

                      1                      2                      3
                      A                      A                      A
 Frequencies --     39.4993                55.0050                59.2949
 Red. masses --      3.6939                 3.6190                 4.2600
 Frc consts  --      0.0034                 0.0065                 0.0088
 IR Inten    --      0.2268                 0.1700                 4.5104

                      4                      5                      6
                      A                      A                      A
 Frequencies --     97.6300               130.7302               137.8048
 Red. masses --      2.4100                 2.5157                 1.2436
 Frc consts  --      0.0135                 0.0253                 0.0139
 IR Inten    --      0.2265                 1.0186                 0.0360

                      7                      8                      9
                      A                      A                      A
 Frequencies --    189.1007               199.8788               238.5979
 Red. masses --      1.6784                 3.9840                 2.8915
 Frc consts  --      0.0354                 0.0938                 0.0970
 IR Inten    --      1.5186                 0.2417                 1.3635

                     10                     11                     12
                      A                      A                      A
 Frequencies --    262.5774               281.5192               309.2904
 Red. masses --      1.6049                 1.2981                 1.7987
 Frc consts  --      0.0652                 0.0606                 0.1014
 IR Inten    --     13.1839                13.3971                 0.8524

                     13                     14                     15
                      A                      A                      A
 Frequencies --    341.9947               404.4191               426.9024
 Red. masses --      2.4508                 2.4732                 2.0961
 Frc consts  --      0.1689                 0.2383                 0.2251
 IR Inten    --      0.5626                 4.6024                 2.4763

                     16                     17                     18
                      A                      A                      A
 Frequencies --    519.7225               554.6069               596.8654
 Red. masses --      2.4724                 3.1134                 3.4315
 Frc consts  --      0.3935                 0.5642                 0.7203
 IR Inten    --      1.2991                 2.6975                 8.3885

                     19                     20                     21
                      A                      A                      A
 Frequencies --    689.8533               740.4387               774.3031
 Red. masses --      2.0058                 1.4650                 1.7338
 Frc consts  --      0.5624                 0.4732                 0.6125
 IR Inten    --      6.3155                18.6844                 1.6025

                     22                     23                     24
                      A                      A                      A
 Frequencies --    810.4351               858.7545               880.8926
 Red. masses --      3.1701                 1.6117                 1.6321
 Frc consts  --      1.2268                 0.7003                 0.7462
 IR Inten    --      0.2812                 1.1625                 6.1088

                     25                     26                     27
                      A                      A                      A
 Frequencies --    931.1405               937.9346               966.1912
 Red. masses --      1.6219                 1.6305                 1.6824
 Frc consts  --      0.8285                 0.8451                 0.9253
 IR Inten    --      1.5429                 2.5938                10.0096

                     28                     29                     30
                      A                      A                      A
 Frequencies --   1018.2355              1030.8889              1051.8569
 Red. masses --      1.7784                 1.6747                 1.6136
 Frc consts  --      1.0864                 1.0486                 1.0519
 IR Inten    --      2.6929                 0.8333                 2.8797

                     31                     32                     33
                      A                      A                      A
 Frequencies --   1071.4408              1105.6402              1141.6813
 Red. masses --      1.7851                 2.1881                 2.0032
 Frc consts  --      1.2074                 1.5760                 1.5384
 IR Inten    --      0.7074                 0.4879                 1.5614

                     34                     35                     36
                      A                      A                      A
 Frequencies --   1151.6953              1195.0814              1227.0053
 Red. masses --      2.0037                 1.8183                 1.3658
 Frc consts  --      1.5659                 1.5301                 1.2115
 IR Inten    --      1.7270                35.7550                18.6376

                     37                     38                     39
                      A                      A                      A
 Frequencies --   1251.6215              1276.3531              1308.1976
 Red. masses --      1.3600                 1.2674                 1.2561
 Frc consts  --      1.2552                 1.2165                 1.2666
 IR Inten    --      6.8379                17.4609                 6.6881

                     40                     41                     42
                      A                      A                      A
 Frequencies --   1339.5770              1370.7434              1383.9069
 Red. masses --      1.1686                 1.3582                 1.4980
 Frc consts  --      1.2356                 1.5036                 1.6903
 IR Inten    --      3.2407                 9.4941                 0.6213

                     43                     44                     45
                      A                      A                      A
 Frequencies --   1393.0286              1411.4451              1415.1771
 Red. masses --      1.3029                 1.3536                 1.4255
 Frc consts  --      1.4896                 1.5888                 1.6821
 IR Inten    --     16.3770                43.7683                 3.7204

                     46                     47                     48
                      A                      A                      A
 Frequencies --   1419.9420              1444.8291              1493.0633
 Red. masses --      1.4124                 1.2691                 1.0528
 Frc consts  --      1.6778                 1.5609                 1.3828
 IR Inten    --      5.4604                 5.6911                 8.4530

                     49                     50                     51
                      A                      A                      A
 Frequencies --   1504.6591              1506.5340              1517.8961
 Red. masses --      1.0739                 1.0588                 1.0707
 Frc consts  --      1.4324                 1.4159                 1.4535
 IR Inten    --     11.0332                 4.4442                 3.3657

                     52                     53                     54
                      A                      A                      A
 Frequencies --   1526.7604              1529.6195              1535.1487
 Red. masses --      1.0549                 1.0827                 1.0638
 Frc consts  --      1.4488                 1.4925                 1.4771
 IR Inten    --      2.3226                10.4512                 6.9364

                     55                     56                     57
                      A                      A                      A
 Frequencies --   1543.8289              1810.2811              2677.3942
 Red. masses --      1.0744                10.1449                 1.0383
 Frc consts  --      1.5088                19.5879                 4.3853
 IR Inten    --      1.8229               119.4962                 8.0946

                     58                     59                     60
                      A                      A                      A
 Frequencies --   3023.7246              3035.0297              3046.2009
 Red. masses --      1.0630                 1.0648                 1.0394
 Frc consts  --      5.7260                 5.7788                 5.6824
 IR Inten    --     27.8193                21.6866                19.5339

                     61                     62                     63
                      A                      A                      A
 Frequencies --   3049.2226              3051.0073              3060.3362
 Red. masses --      1.0418                 1.0756                 1.0852
 Frc consts  --      5.7072                 5.8994                 5.9881
 IR Inten    --      2.3787                 0.4951                40.6545

                     64                     65                     66
                      A                      A                      A
 Frequencies --   3070.1979              3072.8404              3090.9858
 Red. masses --      1.0898                 1.0670                 1.0942
 Frc consts  --      6.0525                 5.9358                 6.1592
 IR Inten    --     62.6055                17.8591                13.8000

                     67                     68                     69
                      A                      A                      A
 Frequencies --   3096.9531              3111.3678              3117.4747
 Red. masses --      1.0911                 1.1016                 1.0944
 Frc consts  --      6.1658                 6.2830                 6.2666
 IR Inten    --     33.1214                45.6922                 8.1184

                     70                     71                     72
                      A                      A                      A
 Frequencies --   3117.7046              3119.5323              3170.9926
 Red. masses --      1.1016                 1.1027                 1.1033
 Frc consts  --      6.3086                 6.3227                 6.5361
 IR Inten    --     64.8265                 7.1234                10.2844

 - Thermochemistry -
 -------------------
 Temperature   298.150 Kelvin.  Pressure   1.00000 Atm.
 Atom     1 has atomic number  6 and mass  12.00000

 Molecular mass:   160.09219 amu.
 Principal axes and moments of inertia in atomic units:
                           1         2         3
     Eigenvalues --  1168.960302945.199393395.11916
           X            0.99981   0.01718   0.00944
           Y           -0.01779   0.99749   0.06858
           Z           -0.00824  -0.06874   0.99760
 This molecule is an asymmetric top.
 Rotational symmetry number  1.
 Warning -- assumption of classical behavior for rotation
           may cause significant error
 Rotational temperatures (Kelvin)      0.07409     0.02941     0.02551
 Rotational constants (GHZ):           1.54389     0.61277     0.53157
 Zero-point vibrational energy     600061.7 (Joules/Mol)
                                  143.41819 (Kcal/Mol)
 Warning -- explicit consideration of  18 degrees of freedom as
           vibrations may cause significant error
 Vibrational temperatures:     56.83    79.14    85.31   140.47   188.09
          (Kelvin)            198.27   272.07   287.58   343.29   377.79
                              405.04   445.00   492.05   581.87   614.22
                              747.76   797.96   858.76   992.54  1065.33
                             1114.05  1166.04  1235.56  1267.41  1339.70
                             1349.48  1390.13  1465.01  1483.22  1513.39
                             1541.56  1590.77  1642.62  1657.03  1719.46
                             1765.39  1800.80  1836.39  1882.20  1927.35
                             1972.19  1991.13  2004.26  2030.75  2036.12
                             2042.98  2078.79  2148.19  2164.87  2167.57
                             2183.91  2196.67  2200.78  2208.74  2221.23
                             2604.59  3852.17  4350.47  4366.73  4382.80
                             4387.15  4389.72  4403.14  4417.33  4421.13
                             4447.24  4455.82  4476.56  4485.35  4485.68
                             4488.31  4562.35

 Zero-point correction=                           0.228551 (Hartree/Particle)
 Thermal correction to Energy=                    0.241435
 Thermal correction to Enthalpy=                  0.242379
 Thermal correction to Gibbs Free Energy=         0.188443
 Sum of electronic and zero-point Energies=           -787.721285
 Sum of electronic and thermal Energies=              -787.708402
 Sum of electronic and thermal Enthalpies=            -787.707457
 Sum of electronic and thermal Free Energies=         -787.761393

                     E (Thermal)             CV                S
                      KCal/Mol        Cal/Mol-Kelvin    Cal/Mol-Kelvin
 Total                  151.503             45.853            113.518
 Electronic               0.000              0.000              0.000
 Translational            0.889              2.981             41.121
 Rotational               0.889              2.981             30.836
 Vibrational            149.725             39.891             41.561
 Vibration     1          0.594              1.981              5.284
 Vibration     2          0.596              1.976              4.629
 Vibration     3          0.597              1.974              4.481
 Vibration     4          0.603              1.951              3.501
 Vibration     5          0.612              1.923              2.935
 Vibration     6          0.614              1.916              2.834
 Vibration     7          0.633              1.855              2.237
 Vibration     8          0.638              1.840              2.134
 Vibration     9          0.657              1.781              1.813
 Vibration    10          0.670              1.741              1.645
 Vibration    11          0.681              1.708              1.524
 Vibration    12          0.699              1.656              1.366
 Vibration    13          0.721              1.592              1.203
 Vibration    14          0.770              1.461              0.947
 Vibration    15          0.789              1.412              0.869
 Vibration    16          0.875              1.206              0.611
 Vibration    17          0.910              1.130              0.535
 Vibration    18          0.955              1.038              0.455

 Optimization completed.
    -- Stationary point found.
 Normal termination of Gaussian 16 at Tue Dec  8 10:20:48 2020.

 ----------------------------------------------------------------------
 # B3LYP/6-311++G(d,p) empiricaldispersion=gd3bj scf=xqc pop=npa geom=c
 heck
 ----------------------------------------------------------------------

 ------------------------------------
 CID_140544778_JID_8_Energie_neutraal
 ------------------------------------
 Structure from the checkpoint file:  "JID_8.chk"
 Charge =  0 Multiplicity = 1

 SCF Done:  E(RB3LYP) =  -788.094436212     A.U. after   14 cycles
 Normal termination of Gaussian 16 at Tue Dec  8 10:22:40 2020.

 ----------------------------------------------------------------------
 # B3LYP/6-311++G(d,p) empiricaldispersion=gd3bj scf=xqc pop=npa geom=c
 heck
 ----------------------------------------------------------------------

 ----------------------------------
 CID_140544778_JID_8_Energie_kation
 ----------------------------------
 Structure from the checkpoint file:  "JID_8.chk"
 Charge =  1 Multiplicity = 2

 SCF Done:  E(UB3LYP) =  -787.769713433     A.U. after   22 cycles
 Normal termination of Gaussian 16 at Tue Dec  8 10:26:30 2020.
 Gaussian 16:  ES64L-G16RevA.03 25-Dec-2016

 ----------------------------------------------------------------------
 # B3LYP/6-311++G(d,p) empiricaldispersion=gd3bj scf=xqc pop=npa geom=c
 heck
 ----------------------------------------------------------------------

 ---------------------------------
 CID_140544778_JID_8_Energie_anion
 ---------------------------------
 Structure from the checkpoint file:  "JID_8.chk"
 Charge = -1 Multiplicity = 2

                         Standard orientation:
 ---------------------------------------------------------------------
 Center     Atomic      Atomic             Coordinates (Angstroms)
 Number     Number       Type             X           Y           Z
 ---------------------------------------------------------------------
      1          6           0        3.856676    0.608472    0.021827
      2          6           0        2.757507    0.096292   -0.913498
      3          6           0        1.950343   -1.077591   -0.338324
      4          6           0        1.220534   -0.785434    0.983004
      5          6           0        0.275379    0.427713    0.954808
      6          6           0       -0.796026    0.340356   -0.131455
      7          6           0       -1.752377   -0.840983    0.055128
      8          8           0       -2.037709   -1.235586    1.170172
      9          6           0       -2.314671   -1.466783   -1.202313
     10         16           0       -1.853102    1.860509   -0.221867
     11          1           0        3.441366    1.027667    0.944903
     12          1           0        4.449189    1.394446   -0.458961
     13          1           0        4.540729   -0.201164    0.304614
     14          1           0        2.082698    0.924976   -1.167698
     15          1           0        3.209809   -0.223687   -1.861159
     16          1           0        1.225955   -1.413881   -1.093662
     17          1           0        2.625719   -1.928982   -0.177965
     18          1           0        0.650925   -1.673137    1.280748
     19          1           0        1.957158   -0.618753    1.778364
     20          1           0       -0.226087    0.506909    1.924871
     21          1           0        0.840514    1.353490    0.805642
     22          1           0       -0.346484    0.295906   -1.128389
     23          1           0       -2.695987   -0.697341   -1.881585
     24          1           0       -1.512508   -2.001099   -1.728786
     25          1           0       -3.107876   -2.171841   -0.947556
     26          1           0       -2.367995    1.730788    1.020048
 ---------------------------------------------------------------------

 SCF Done:  E(UB3LYP) =  -788.083101192     A.U. after   33 cycles
 SCF Done:  E(UB3LYP) =  -788.083101192     a.u. after    1 cycles

 The electronic state is 2-A.
 Alpha  occ. eigenvalues --  -88.72578 -18.97605 -10.12018 -10.08880 -10.05637
 Alpha  occ. eigenvalues --  -10.05580 -10.05522 -10.05449 -10.05265 -10.04765
 Alpha  occ. eigenvalues --   -7.81258  -5.77624  -5.77299  -5.76670  -0.91372
 Alpha  occ. eigenvalues --   -0.71166  -0.68024  -0.63369  -0.61896  -0.57573
 Alpha  occ. eigenvalues --   -0.53447  -0.49904  -0.44648  -0.40678  -0.37280
 Alpha  occ. eigenvalues --   -0.35872  -0.34400  -0.32815  -0.32672  -0.31008
 Alpha  occ. eigenvalues --   -0.29569  -0.29413  -0.27857  -0.27005  -0.26478
 Alpha  occ. eigenvalues --   -0.24485  -0.24199  -0.24090  -0.22158  -0.20991
 Alpha  occ. eigenvalues --   -0.20607  -0.19993  -0.14156  -0.11732   0.05017
 Alpha virt. eigenvalues --    0.06818   0.07716   0.08723   0.08774   0.09704
 Alpha virt. eigenvalues --    0.10482   0.11094   0.11666   0.11998   0.12414
 Alpha virt. eigenvalues --    0.12534   0.13477   0.14299   0.14766   0.15274

  Beta  occ. eigenvalues --  -88.72526 -18.97375 -10.11753 -10.08830 -10.05637
  Beta  occ. eigenvalues --  -10.05573 -10.05503 -10.05428 -10.05257 -10.04723
  Beta  occ. eigenvalues --   -7.81210  -5.77497  -5.77244  -5.76638  -0.90910
  Beta  occ. eigenvalues --   -0.71047  -0.67885  -0.63246  -0.61714  -0.57453
  Beta  occ. eigenvalues --   -0.53263  -0.49741  -0.44523  -0.40343  -0.37139
  Beta  occ. eigenvalues --   -0.35692  -0.34275  -0.32564  -0.32360  -0.30898
  Beta  occ. eigenvalues --   -0.29468  -0.29266  -0.27720  -0.26852  -0.26354
  Beta  occ. eigenvalues --   -0.24357  -0.24065  -0.23580  -0.21824  -0.20936
  Beta  occ. eigenvalues --   -0.20564  -0.19573  -0.14002  -0.11529
  Beta virt. eigenvalues --    0.07409   0.08111   0.08991   0.09166   0.09304
  Beta virt. eigenvalues --    0.10060   0.10804   0.11396   0.12028   0.12111
  Beta virt. eigenvalues --    0.12744   0.12829   0.13746   0.14390   0.14978

 Mulliken charges and spin densities:
               1          2
     1  C    1.431680  -2.080607
     2  C   -0.931500   0.736200
     3  C    0.196925  -0.464294
     4  C    0.092355  -0.262929
     5  C   -0.134915  -0.462685
     6  C    0.563750   0.230730
     7  C   -0.671088   0.536060
     8  O   -0.312870   0.061492
     9  C    0.229457  -0.887020
    10  S   -0.372215   0.187914
    11  H   -0.190209   0.318492
    12  H   -0.514268   0.654919
    13  H   -0.192376   0.329998
    14  H    0.152549  -0.026905
    15  H   -0.607638   0.755819
    16  H    0.026868   0.116210
    17  H   -0.238293   0.391618
    18  H    0.229841  -0.073671
    19  H    0.021420   0.139958
    20  H    0.150693   0.034328
    21  H    0.095523   0.056285
    22  H   -0.046751   0.267867
    23  H   -0.123491   0.264097
    24  H    0.100941   0.043857
    25  H    0.020900   0.118090
    26  H    0.022710   0.014177
 Sum of Mulliken charges =  -1.00000   1.00000

 Dipole moment (field-independent basis, Debye):
    X=             -4.0889    Y=             -0.2062    Z=              0.9037  Tot=              4.1927
 Quadrupole moment (field-independent basis, Debye-Ang):
   XX=           -146.2326   YY=           -100.7694   ZZ=            -98.3051
   XY=             -4.1391   XZ=              6.8312   YZ=              3.6109

 Summary of Natural Population Analysis:

                                       Natural Population
                Natural  -----------------------------------------------
    Atom  No    Charge         Core      Valence    Rydberg      Total
 -----------------------------------------------------------------------
      C    1   -0.28714      0.99967     2.28168    0.00579     3.28714
      C    2   -0.19352      0.99964     2.18497    0.00891     3.19352
      C    3   -0.19067      0.99963     2.18180    0.00924     3.19067
      C    4   -0.19311      0.99962     2.18483    0.00866     3.19311
      C    5   -0.19890      0.99960     2.18863    0.01067     3.19890
      C    6   -0.19028      0.99951     2.17822    0.01256     3.19028
      C    7    0.31581      0.99964     1.66195    0.02260     2.68419
      O    8   -0.28306      0.99987     3.27616    0.00703     4.28306
      C    9   -0.33429      0.99962     2.32945    0.00522     3.33429
      S   10   -0.00631      4.99965     2.99160    0.01506     8.00631
      H   11    0.09517      0.00000     0.40373    0.00110     0.40483
      H   12    0.09997      0.00000     0.39854    0.00150     0.40003
      H   13    0.09600      0.00000     0.40255    0.00145     0.40400
      H   14    0.09227      0.00000     0.40630    0.00143     0.40773
      H   15    0.09637      0.00000     0.40210    0.00152     0.40363
      H   16    0.09378      0.00000     0.40482    0.00139     0.40622
      H   17    0.09617      0.00000     0.40280    0.00102     0.40383
      H   18    0.10328      0.00000     0.39560    0.00112     0.39672
      H   19    0.09642      0.00000     0.40264    0.00094     0.40358
      H   20    0.10626      0.00000     0.39252    0.00122     0.39374
      H   21    0.10084      0.00000     0.39786    0.00130     0.39916
      H   22    0.10569      0.00000     0.39290    0.00141     0.39431
      H   23    0.11086      0.00000     0.38738    0.00176     0.38914
      H   24    0.10584      0.00000     0.39278    0.00138     0.39416
      H   25    0.10424      0.00000     0.39415    0.00161     0.39576
      H   26    0.05833      0.00000     0.43868    0.00299     0.44167
 =======================================================================
   * Total *    0.00000     13.99645    29.87465    0.12890    44.00000

 Normal termination of Gaussian 16 at Tue Dec  8 10:32:37 2020.
