 Gaussian 16, Revision A.03,

 -----------------------------------------------------------
 # opt freq B3LYP/6-31G(d) empiricaldispersion=gd3bj scf=xqc
 -----------------------------------------------------------

 -------------------------------
 CID_131385063_JID_2292_neutraal
 -------------------------------
 Symbolic Z-matrix:
 Charge =  0 Multiplicity = 1

 SCF Done:  E(RB3LYP) =  -872.690408658     A.U. after   16 cycles
 SCF Done:  E(RB3LYP) =  -872.695601187     A.U. after   13 cycles
 SCF Done:  E(RB3LYP) =  -872.696225027     A.U. after   12 cycles
 SCF Done:  E(RB3LYP) =  -872.696300503     A.U. after   11 cycles
 SCF Done:  E(RB3LYP) =  -872.696325531     A.U. after   11 cycles
 SCF Done:  E(RB3LYP) =  -872.696350320     A.U. after   10 cycles
 SCF Done:  E(RB3LYP) =  -872.696366847     A.U. after   11 cycles
 SCF Done:  E(RB3LYP) =  -872.696373295     A.U. after   11 cycles
 SCF Done:  E(RB3LYP) =  -872.696379838     A.U. after   10 cycles
 SCF Done:  E(RB3LYP) =  -872.696399655     A.U. after   12 cycles
 SCF Done:  E(RB3LYP) =  -872.696546608     A.U. after   10 cycles
 SCF Done:  E(RB3LYP) =  -872.696549725     A.U. after   10 cycles
 SCF Done:  E(RB3LYP) =  -872.696549826     A.U. after    8 cycles
 SCF Done:  E(RB3LYP) =  -872.696549916     A.U. after    8 cycles
 SCF Done:  E(RB3LYP) =  -872.696549909     A.U. after    7 cycles
 SCF Done:  E(RB3LYP) =  -872.696549918     A.U. after    8 cycles
 Optimization completed.
    -- Stationary point found.
 Normal termination of Gaussian 16 at Wed Dec  9 17:03:17 2020.

 --------------------------------------------------------------------
 #N Geom=AllCheck Guess=TCheck SCRF=Check GenChk RB3LYP/6-31G(d) Freq
 --------------------------------------------------------------------

 Structure from the checkpoint file:  "JID_2292.chk"
 -------------------------------
 CID_131385063_JID_2292_neutraal
 -------------------------------
 Charge =  0 Multiplicity = 1

 SCF Done:  E(RB3LYP) =  -872.696549918     A.U. after    1 cycles

  Exact polarizability: 169.145 -11.604 115.867   0.355   4.819  71.830
 Approx polarizability: 258.759 -34.401 199.965  -0.573  14.682 110.739

                      1                      2                      3
                      A                      A                      A
 Frequencies --     31.6353                42.7038                94.4362
 Red. masses --      3.4261                 3.9087                 3.7548
 Frc consts  --      0.0020                 0.0042                 0.0197
 IR Inten    --      2.4062                 0.7819                 0.1197

                      4                      5                      6
                      A                      A                      A
 Frequencies --    112.9487               125.1499               162.3415
 Red. masses --      6.6933                 6.7435                 2.9434
 Frc consts  --      0.0503                 0.0622                 0.0457
 IR Inten    --      2.7774                 3.9565                 9.2898

                      7                      8                      9
                      A                      A                      A
 Frequencies --    192.6950               242.9272               309.7433
 Red. masses --      3.9319                 1.2312                 3.4928
 Frc consts  --      0.0860                 0.0428                 0.1974
 IR Inten    --      0.4269                50.0958                 1.9558

                     10                     11                     12
                      A                      A                      A
 Frequencies --    341.6365               354.0361               368.0422
 Red. masses --      6.4058                 4.2313                 4.2684
 Frc consts  --      0.4405                 0.3125                 0.3407
 IR Inten    --      0.5860                 2.8102                16.2158

                     13                     14                     15
                      A                      A                      A
 Frequencies --    481.2016               515.5786               531.4205
 Red. masses --      7.8411                10.8765                 8.9856
 Frc consts  --      1.0697                 1.7034                 1.4951
 IR Inten    --      0.9425                 2.2847                 3.4800

                     16                     17                     18
                      A                      A                      A
 Frequencies --    588.0252               640.4471               681.6625
 Red. masses --      4.2990                 6.7733                 5.8198
 Frc consts  --      0.8758                 1.6369                 1.5933
 IR Inten    --      9.7406                 2.2950                 0.5980

                     19                     20                     21
                      A                      A                      A
 Frequencies --    720.2185               743.3829               811.1354
 Red. masses --      3.6020                 5.0323                 1.1410
 Frc consts  --      1.1008                 1.6385                 0.4423
 IR Inten    --      8.6549                20.1909                 0.5380

                     22                     23                     24
                      A                      A                      A
 Frequencies --    828.1681               868.3056               897.1705
 Red. masses --      1.7355                 1.3629                 3.5972
 Frc consts  --      0.7013                 0.6054                 1.7060
 IR Inten    --      6.8617                85.8441                38.5198

                     25                     26                     27
                      A                      A                      A
 Frequencies --    900.9492               962.2911              1011.5634
 Red. masses --      2.3353                 5.1662                 1.8868
 Frc consts  --      1.1169                 2.8186                 1.1376
 IR Inten    --      2.1950                10.8067                49.4504

                     28                     29                     30
                      A                      A                      A
 Frequencies --   1070.7527              1077.4815              1099.8987
 Red. masses --      1.5118                 2.0588                 1.3304
 Frc consts  --      1.0212                 1.4082                 0.9483
 IR Inten    --     31.1586                11.0167                 4.1220

                     31                     32                     33
                      A                      A                      A
 Frequencies --   1103.8032              1124.8643              1136.5647
 Red. masses --      2.4337                 1.1068                 2.0393
 Frc consts  --      1.7470                 0.8251                 1.5521
 IR Inten    --     92.7791                 2.1985                26.7887

                     34                     35                     36
                      A                      A                      A
 Frequencies --   1177.3995              1220.1970              1230.5096
 Red. masses --      1.6103                 1.3604                 2.8581
 Frc consts  --      1.3152                 1.1933                 2.5498
 IR Inten    --      8.4402                 0.4925                 3.4402

                     37                     38                     39
                      A                      A                      A
 Frequencies --   1235.4145              1330.2176              1389.2133
 Red. masses --      2.1726                 1.4557                 2.7506
 Frc consts  --      1.9537                 1.5177                 3.1276
 IR Inten    --     20.2583                 7.3516                50.4971

                     40                     41                     42
                      A                      A                      A
 Frequencies --   1429.2571              1445.4013              1483.5874
 Red. masses --      1.6554                 1.6249                 1.0883
 Frc consts  --      1.9923                 2.0001                 1.4113
 IR Inten    --      4.7885                27.4469                 3.0390

                     43                     44                     45
                      A                      A                      A
 Frequencies --   1518.4778              1524.1324              1536.4329
 Red. masses --      1.7602                 1.2592                 2.6285
 Frc consts  --      2.3913                 1.7235                 3.6558
 IR Inten    --     62.9663                15.5287                57.4735

                     46                     47                     48
                      A                      A                      A
 Frequencies --   1567.2241              1695.8857              2334.2338
 Red. masses --      7.1466                 1.0905                12.6600
 Frc consts  --     10.3421                 1.8479                40.6418
 IR Inten    --     28.4306                26.5190                71.1083

                     49                     50                     51
                      A                      A                      A
 Frequencies --   2999.9588              3102.1772              3159.4205
 Red. masses --      1.0709                 1.0917                 1.0504
 Frc consts  --      5.6783                 6.1902                 6.1776
 IR Inten    --     46.7388                13.2646                12.3309

                     52                     53                     54
                      A                      A                      A
 Frequencies --   3161.0204              3192.0785              3244.2179
 Red. masses --      1.0582                 1.0903                 1.1205
 Frc consts  --      6.2296                 6.5457                 6.9484
 IR Inten    --     11.7117                 4.4014                 0.5579

                     55                     56                     57
                      A                      A                      A
 Frequencies --   3256.9802              3466.2028              3554.6533
 Red. masses --      1.1171                 1.0497                 1.0929
 Frc consts  --      6.9816                 7.4304                 8.1362
 IR Inten    --      7.0777                 1.4426                 0.1539

 - Thermochemistry -
 -------------------
 Temperature   298.150 Kelvin.  Pressure   1.00000 Atm.
 Atom     1 has atomic number  6 and mass  12.00000

 Molecular mass:   179.05172 amu.
 Principal axes and moments of inertia in atomic units:
                           1         2         3
     Eigenvalues --  1319.824583201.120944246.79813
           X            0.99957   0.02916  -0.00011
           Y           -0.02916   0.99957  -0.00007
           Z            0.00011   0.00008   1.00000
 This molecule is an asymmetric top.
 Rotational symmetry number  1.
 Warning -- assumption of classical behavior for rotation
           may cause significant error
 Rotational temperatures (Kelvin)      0.06563     0.02706     0.02040
 Rotational constants (GHZ):           1.36741     0.56378     0.42497
 Zero-point vibrational energy     427231.2 (Joules/Mol)
                                  102.11070 (Kcal/Mol)
 Warning -- explicit consideration of  16 degrees of freedom as
           vibrations may cause significant error
 Vibrational temperatures:     45.52    61.44   135.87   162.51   180.06
          (Kelvin)            233.57   277.25   349.52   445.65   491.54
                              509.38   529.53   692.34   741.80   764.60
                              846.04   921.46   980.76  1036.23  1069.56
                             1167.04  1191.55  1249.30  1290.83  1296.26
                             1384.52  1455.41  1540.57  1550.26  1582.51
                             1588.13  1618.43  1635.26  1694.02  1755.59
                             1770.43  1777.49  1913.89  1998.77  2056.38
                             2079.61  2134.55  2184.75  2192.89  2210.58
                             2254.89  2440.00  3358.44  4316.27  4463.34
                             4545.70  4548.00  4592.69  4667.71  4686.07
                             4987.09  5114.35

 Zero-point correction=                           0.162724 (Hartree/Particle)
 Thermal correction to Energy=                    0.174532
 Thermal correction to Enthalpy=                  0.175476
 Thermal correction to Gibbs Free Energy=         0.123211
 Sum of electronic and zero-point Energies=           -872.533826
 Sum of electronic and thermal Energies=              -872.522018
 Sum of electronic and thermal Enthalpies=            -872.521074
 Sum of electronic and thermal Free Energies=         -872.573339

                     E (Thermal)             CV                S
                      KCal/Mol        Cal/Mol-Kelvin    Cal/Mol-Kelvin
 Total                  109.520             42.545            110.001
 Electronic               0.000              0.000              0.000
 Translational            0.889              2.981             41.454
 Rotational               0.889              2.981             31.262
 Vibrational            107.743             36.583             37.284
 Vibration     1          0.594              1.983              5.724
 Vibration     2          0.595              1.980              5.130
 Vibration     3          0.603              1.953              3.566
 Vibration     4          0.607              1.939              3.218
 Vibration     5          0.610              1.928              3.019
 Vibration     6          0.622              1.889              2.522
 Vibration     7          0.635              1.850              2.202
 Vibration     8          0.659              1.774              1.781
 Vibration     9          0.699              1.655              1.364
 Vibration    10          0.721              1.592              1.204
 Vibration    11          0.730              1.567              1.148
 Vibration    12          0.741              1.538              1.088
 Vibration    13          0.838              1.292              0.707
 Vibration    14          0.871              1.215              0.620
 Vibration    15          0.886              1.180              0.584
 Vibration    16          0.945              1.057              0.471

 Optimization completed.
    -- Stationary point found.
 Normal termination of Gaussian 16 at Wed Dec  9 17:08:04 2020.

 ----------------------------------------------------------------------
 # B3LYP/6-311++G(d,p) empiricaldispersion=gd3bj scf=xqc pop=npa geom=c
 heck
 ----------------------------------------------------------------------

 ---------------------------------------
 CID_131385063_JID_2292_Energie_neutraal
 ---------------------------------------
 Structure from the checkpoint file:  "JID_2292.chk"
 Charge =  0 Multiplicity = 1

 SCF Done:  E(RB3LYP) =  -872.857426075     A.U. after   15 cycles
 Normal termination of Gaussian 16 at Wed Dec  9 17:10:10 2020.

 ----------------------------------------------------------------------
 # B3LYP/6-311++G(d,p) empiricaldispersion=gd3bj scf=xqc pop=npa geom=c
 heck
 ----------------------------------------------------------------------

 -------------------------------------
 CID_131385063_JID_2292_Energie_kation
 -------------------------------------
 Structure from the checkpoint file:  "JID_2292.chk"
 Charge =  1 Multiplicity = 2

 SCF Done:  E(UB3LYP) =  -872.540206555     A.U. after   27 cycles
 Normal termination of Gaussian 16 at Wed Dec  9 17:15:34 2020.
 Gaussian 16:  ES64L-G16RevA.03 25-Dec-2016

 ----------------------------------------------------------------------
 # B3LYP/6-311++G(d,p) empiricaldispersion=gd3bj scf=xqc pop=npa geom=c
 heck
 ----------------------------------------------------------------------

 ------------------------------------
 CID_131385063_JID_2292_Energie_anion
 ------------------------------------
 Structure from the checkpoint file:  "JID_2292.chk"
 Charge = -1 Multiplicity = 2

                         Standard orientation:
 ---------------------------------------------------------------------
 Center     Atomic      Atomic             Coordinates (Angstroms)
 Number     Number       Type             X           Y           Z
 ---------------------------------------------------------------------
      1          6           0       -3.491997    0.362858    0.757967
      2          6           0       -3.401744    0.619420   -0.710830
      3          6           0       -2.605348   -0.526687   -0.101306
      4          6           0       -1.147857   -0.375721    0.009967
      5          7           0       -0.540553    0.752832    0.269048
      6          6           0        0.819378    0.610342    0.314073
      7          6           0        1.276696   -0.672910    0.082145
      8         16           0       -0.073911   -1.750141   -0.209467
      9          6           0        2.619670   -1.107097    0.058783
     10          7           0        3.734246   -1.447414    0.037975
     11          6           0        1.705288    1.801550    0.549744
     12          7           0        1.846262    2.567008   -0.696817
     13          1           0       -4.395201   -0.085956    1.160384
     14          1           0       -2.974069    1.047496    1.421638
     15          1           0       -4.241156    0.351442   -1.345435
     16          1           0       -2.821346    1.475793   -1.038530
     17          1           0       -2.953791   -1.535379   -0.299646
     18          1           0        1.214064    2.445258    1.286250
     19          1           0        2.656530    1.456877    0.985590
     20          1           0        2.350422    3.430714   -0.503324
     21          1           0        2.422925    2.038499   -1.350139
 ---------------------------------------------------------------------

 SCF Done:  E(UB3LYP) =  -872.868854609     A.U. after   28 cycles

 The electronic state is 2-A.
 Alpha  occ. eigenvalues --  -88.72404 -14.17165 -14.16041 -14.14781 -10.07317
 Alpha  occ. eigenvalues --  -10.07233 -10.06844 -10.06379 -10.06304 -10.05393
 Alpha  occ. eigenvalues --  -10.05336 -10.05271  -7.81076  -5.77382  -5.77035
 Alpha  occ. eigenvalues --   -5.76662  -0.81777  -0.76039  -0.75091  -0.74532
 Alpha  occ. eigenvalues --   -0.65344  -0.62313  -0.54355  -0.51317  -0.49397
 Alpha  occ. eigenvalues --   -0.46242  -0.41158  -0.38356  -0.37732  -0.36479
 Alpha  occ. eigenvalues --   -0.32737  -0.31414  -0.28576  -0.27935  -0.26948
 Alpha  occ. eigenvalues --   -0.25746  -0.25254  -0.22195  -0.21989  -0.21763
 Alpha  occ. eigenvalues --   -0.19773  -0.18344  -0.17988  -0.13677  -0.13067
 Alpha  occ. eigenvalues --   -0.12255  -0.09454   0.04636
 Alpha virt. eigenvalues --    0.07748   0.08330   0.09834   0.10199   0.11303
 Alpha virt. eigenvalues --    0.12044   0.12422   0.13641   0.14218   0.14508
 Alpha virt. eigenvalues --    0.14842   0.15387   0.15451   0.16169   0.16283

  Beta  occ. eigenvalues --  -88.72332 -14.17105 -14.16184 -14.14499 -10.07365
  Beta  occ. eigenvalues --  -10.06861 -10.06690 -10.06321 -10.06244 -10.05374
  Beta  occ. eigenvalues --  -10.05065 -10.04998  -7.81012  -5.77355  -5.77009
  Beta  occ. eigenvalues --   -5.76412  -0.81451  -0.75898  -0.74747  -0.74344
  Beta  occ. eigenvalues --   -0.64969  -0.61686  -0.54121  -0.50818  -0.49253
  Beta  occ. eigenvalues --   -0.45936  -0.40909  -0.38229  -0.37519  -0.36362
  Beta  occ. eigenvalues --   -0.32479  -0.31209  -0.28354  -0.27263  -0.26612
  Beta  occ. eigenvalues --   -0.25308  -0.25052  -0.21713  -0.21296  -0.21020
  Beta  occ. eigenvalues --   -0.19582  -0.17860  -0.17705  -0.13123  -0.12790
  Beta  occ. eigenvalues --   -0.12064  -0.07334
  Beta virt. eigenvalues --    0.07695   0.08338   0.09756   0.10112   0.11019
  Beta virt. eigenvalues --    0.11439   0.12053   0.12378   0.13723   0.14159
  Beta virt. eigenvalues --    0.14496   0.15374   0.15487   0.15842   0.16282

 Mulliken charges and spin densities:
               1          2
     1  C   -0.479681   0.016262
     2  C   -0.484352   0.032151
     3  C    0.622457  -0.008834
     4  C   -0.020770   0.276407
     5  N    0.151084  -0.073546
     6  C   -1.047612   0.328129
     7  C    2.609257   0.247623
     8  S   -0.618891   0.163733
     9  C   -1.480853  -0.061540
    10  N   -0.315687   0.153159
    11  C   -0.788649  -0.373263
    12  N   -0.310818   0.002822
    13  H    0.097494   0.008839
    14  H    0.148698  -0.001229
    15  H    0.101143   0.006412
    16  H    0.167097  -0.002186
    17  H    0.228010  -0.000921
    18  H    0.098965   0.050846
    19  H    0.116338   0.030344
    20  H    0.052781   0.154141
    21  H    0.153990   0.050650
 Sum of Mulliken charges =  -1.00000   1.00000

 Dipole moment (field-independent basis, Debye):
    X=             -6.4629    Y=              0.8883    Z=              0.3860  Tot=              6.5351
 Quadrupole moment (field-independent basis, Debye-Ang):
   XX=           -120.2997   YY=           -101.9464   ZZ=            -86.8009
   XY=             13.2099   XZ=              0.6526   YZ=              2.4869

 Summary of Natural Population Analysis:

                                       Natural Population
                Natural  -----------------------------------------------
    Atom  No    Charge         Core      Valence    Rydberg      Total
 -----------------------------------------------------------------------
      C    1   -0.18504      0.99964     2.17864    0.00676     3.18504
      C    2   -0.18411      0.99964     2.17776    0.00671     3.18411
      C    3   -0.13855      0.99955     2.12956    0.00944     3.13855
      C    4    0.13554      0.99958     1.84755    0.01733     2.86446
      N    5   -0.28625      0.99963     2.77603    0.01059     3.78625
      C    6    0.13507      0.99946     1.84917    0.01630     2.86493
      C    7   -0.14805      0.99930     2.13710    0.01166     3.14805
      S    8    0.19879      4.99945     2.78171    0.02006     7.80121
      C    9    0.13574      0.99963     1.84649    0.01814     2.86426
      N   10   -0.17197      0.99979     2.66128    0.01091     3.67197
      C   11   -0.10579      0.99959     2.09302    0.01318     3.10579
      N   12   -0.41418      0.99977     2.90375    0.01067     3.91418
      H   13    0.09276      0.00000     0.40616    0.00109     0.40724
      H   14    0.10916      0.00000     0.38970    0.00114     0.39084
      H   15    0.09266      0.00000     0.40623    0.00111     0.40734
      H   16    0.11065      0.00000     0.38827    0.00108     0.38935
      H   17    0.10343      0.00000     0.39562    0.00095     0.39657
      H   18    0.09500      0.00000     0.40353    0.00148     0.40500
      H   19    0.08628      0.00000     0.41217    0.00156     0.41372
      H   20    0.16699      0.00000     0.33033    0.00268     0.33301
      H   21    0.17188      0.00000     0.32629    0.00183     0.32812
 =======================================================================
   * Total *   -0.00000     15.99501    30.84035    0.16464    47.00000

 Normal termination of Gaussian 16 at Wed Dec  9 17:20:50 2020.
