 Gaussian 16, Revision A.03,

 -----------------------------------------------------------
 # opt freq B3LYP/6-31G(d) empiricaldispersion=gd3bj scf=xqc
 -----------------------------------------------------------

 ------------------------------
 CID_12483732_JID_3231_neutraal
 ------------------------------
 Symbolic Z-matrix:
 Charge =  0 Multiplicity = 1

 SCF Done:  E(RB3LYP) =  -613.907119276     A.U. after   16 cycles
 SCF Done:  E(RB3LYP) =  -613.928629168     A.U. after   13 cycles
 SCF Done:  E(RB3LYP) =  -613.930200032     A.U. after   13 cycles
 SCF Done:  E(RB3LYP) =  -613.929645923     A.U. after   14 cycles
 SCF Done:  E(RB3LYP) =  -613.930838677     A.U. after   14 cycles
 SCF Done:  E(RB3LYP) =  -613.931187891     A.U. after   13 cycles
 SCF Done:  E(RB3LYP) =  -613.931466800     A.U. after   15 cycles
 SCF Done:  E(RB3LYP) =  -613.931439177     A.U. after   13 cycles
 SCF Done:  E(RB3LYP) =  -613.931506113     A.U. after   13 cycles
 SCF Done:  E(RB3LYP) =  -613.931512080     A.U. after   11 cycles
 SCF Done:  E(RB3LYP) =  -613.931513279     A.U. after   10 cycles
 SCF Done:  E(RB3LYP) =  -613.931513440     A.U. after    8 cycles
 SCF Done:  E(RB3LYP) =  -613.931513463     A.U. after    8 cycles
 Optimization completed.
    -- Stationary point found.
 Normal termination of Gaussian 16 at Wed Dec  9 22:29:37 2020.

 --------------------------------------------------------------------
 #N Geom=AllCheck Guess=TCheck SCRF=Check GenChk RB3LYP/6-31G(d) Freq
 --------------------------------------------------------------------

 Structure from the checkpoint file:  "JID_3231.chk"
 ------------------------------
 CID_12483732_JID_3231_neutraal
 ------------------------------
 Charge =  0 Multiplicity = 1

 SCF Done:  E(RB3LYP) =  -613.931513463     A.U. after    1 cycles

  Exact polarizability: 178.997  13.660 108.855  -1.493   2.363  70.764
 Approx polarizability: 254.311  33.042 172.429  -6.128   4.757 103.474

                      1                      2                      3
                      A                      A                      A
 Frequencies --     26.3562                50.7537                53.4652
 Red. masses --      8.4469                 4.7609                 4.8627
 Frc consts  --      0.0035                 0.0072                 0.0082
 IR Inten    --      1.5958                 0.0602                 0.4121

                      4                      5                      6
                      A                      A                      A
 Frequencies --    130.8256               164.3484               189.1759
 Red. masses --      3.8703                 6.6269                 3.4349
 Frc consts  --      0.0390                 0.1055                 0.0724
 IR Inten    --      1.6908                 3.6315                 3.4669

                      7                      8                      9
                      A                      A                      A
 Frequencies --    221.1621               243.0512               265.5610
 Red. masses --      1.1464                 1.4757                 3.5409
 Frc consts  --      0.0330                 0.0514                 0.1471
 IR Inten    --      0.0802                 0.4974                 0.1241

                     10                     11                     12
                      A                      A                      A
 Frequencies --    273.9965               301.4386               343.2844
 Red. masses --      1.8547                 2.1760                 2.7657
 Frc consts  --      0.0820                 0.1165                 0.1920
 IR Inten    --      1.0987                 1.4498                 0.6052

                     13                     14                     15
                      A                      A                      A
 Frequencies --    377.7434               405.3567               455.7253
 Red. masses --      3.1242                 2.1800                 3.4688
 Frc consts  --      0.2627                 0.2110                 0.4245
 IR Inten    --      1.6315                 0.5631                 6.4870

                     16                     17                     18
                      A                      A                      A
 Frequencies --    513.0714               520.0801               533.8710
 Red. masses --      4.0387                 4.9991                 4.8407
 Frc consts  --      0.6264                 0.7967                 0.8129
 IR Inten    --      2.8336                20.9898                15.9981

                     19                     20                     21
                      A                      A                      A
 Frequencies --    569.0204               609.5389               614.1700
 Red. masses --      3.2859                 9.6040                 1.2870
 Frc consts  --      0.6268                 2.1024                 0.2860
 IR Inten    --     20.4160                 3.1582                70.5273

                     22                     23                     24
                      A                      A                      A
 Frequencies --    670.2422               756.7807               761.9571
 Red. masses --      4.6811                 4.0341                 7.6023
 Frc consts  --      1.2390                 1.3612                 2.6005
 IR Inten    --     33.6462                 2.7365                53.8845

                     25                     26                     27
                      A                      A                      A
 Frequencies --    832.5809               863.6947               879.7157
 Red. masses --      1.8481                 2.2686                 2.5526
 Frc consts  --      0.7548                 0.9971                 1.1639
 IR Inten    --      9.8503                15.7400                 6.4378

                     28                     29                     30
                      A                      A                      A
 Frequencies --    898.0639               929.7983               954.8795
 Red. masses --      3.1305                 2.1174                 1.4374
 Frc consts  --      1.4876                 1.0785                 0.7722
 IR Inten    --      7.6919                 0.7088                 1.2182

                     31                     32                     33
                      A                      A                      A
 Frequencies --    984.7756              1012.1295              1035.5034
 Red. masses --      2.0520                 1.9283                 1.5803
 Frc consts  --      1.1725                 1.1639                 0.9983
 IR Inten    --     10.1623                 4.6937                 2.5833

                     34                     35                     36
                      A                      A                      A
 Frequencies --   1048.6013              1142.4648              1168.5979
 Red. masses --      1.5989                 4.0825                 1.9536
 Frc consts  --      1.0358                 3.1395                 1.5719
 IR Inten    --      4.8871               183.1281                61.7299

                     37                     38                     39
                      A                      A                      A
 Frequencies --   1177.5927              1223.2486              1246.9554
 Red. masses --      2.6648                 2.2367                 2.1080
 Frc consts  --      2.1772                 1.9719                 1.9312
 IR Inten    --    309.4228                61.4266                81.8457

                     40                     41                     42
                      A                      A                      A
 Frequencies --   1264.9289              1284.4246              1310.0797
 Red. masses --      1.6080                 1.4114                 1.7397
 Frc consts  --      1.5159                 1.3719                 1.7592
 IR Inten    --     14.5996                 3.7860                13.0893

                     43                     44                     45
                      A                      A                      A
 Frequencies --   1341.3774              1386.5123              1404.3161
 Red. masses --      1.5635                 1.9452                 2.6516
 Frc consts  --      1.6575                 2.2032                 3.0809
 IR Inten    --      1.1157                16.7383               122.7372

                     46                     47                     48
                      A                      A                      A
 Frequencies --   1416.3032              1426.9111              1443.5163
 Red. masses --      1.6320                 1.3224                 1.2488
 Frc consts  --      1.9288                 1.5864                 1.5332
 IR Inten    --    100.3851                14.4702                10.6370

                     49                     50                     51
                      A                      A                      A
 Frequencies --   1498.3562              1507.5533              1513.8732
 Red. masses --      1.0779                 1.0789                 1.0584
 Frc consts  --      1.4258                 1.4447                 1.4291
 IR Inten    --      3.0496                 0.8964                 6.7861

                     52                     53                     54
                      A                      A                      A
 Frequencies --   1519.2157              1529.7129              1543.1247
 Red. masses --      1.0577                 1.0579                 1.0574
 Frc consts  --      1.4384                 1.4586                 1.4835
 IR Inten    --      0.6993                 1.1666                 2.2771

                     55                     56                     57
                      A                      A                      A
 Frequencies --   1701.5189              1807.2339              2327.1861
 Red. masses --      6.7368                 9.8579                11.9704
 Frc consts  --     11.4914                18.9699                38.1963
 IR Inten    --     24.8867               392.9605               331.0018

                     58                     59                     60
                      A                      A                      A
 Frequencies --   2959.5452              3049.0921              3057.9291
 Red. masses --      1.0734                 1.0613                 1.0346
 Frc consts  --      5.5394                 5.8133                 5.7001
 IR Inten    --     52.2243                12.9098                17.8271

                     61                     62                     63
                      A                      A                      A
 Frequencies --   3063.3661              3064.3093              3091.9817
 Red. masses --      1.0383                 1.0850                 1.1003
 Frc consts  --      5.7407                 6.0029                 6.1976
 IR Inten    --     18.6362                23.0249                11.3188

                     64                     65                     66
                      A                      A                      A
 Frequencies --   3128.4025              3133.5445              3136.8495
 Red. masses --      1.1026                 1.1027                 1.1030
 Frc consts  --      6.3579                 6.3791                 6.3949
 IR Inten    --      6.9083                19.0241                29.4634

                     67                     68                     69
                      A                      A                      A
 Frequencies --   3138.2503              3198.5519              3684.1489
 Red. masses --      1.1030                 1.0913                 1.0636
 Frc consts  --      6.4003                 6.5783                 8.5058
 IR Inten    --     31.7590                 5.6593                88.1059

 - Thermochemistry -
 -------------------
 Temperature   298.150 Kelvin.  Pressure   1.00000 Atm.
 Atom     1 has atomic number  6 and mass  12.00000

 Molecular mass:   180.07864 amu.
 Principal axes and moments of inertia in atomic units:
                           1         2         3
     Eigenvalues --   954.273205647.365256177.92719
           X            0.99997  -0.00546   0.00487
           Y            0.00542   0.99994   0.00939
           Z           -0.00492  -0.00936   0.99994
 This molecule is an asymmetric top.
 Rotational symmetry number  1.
 Warning -- assumption of classical behavior for rotation
           may cause significant error
 Rotational temperatures (Kelvin)      0.09076     0.01534     0.01402
 Rotational constants (GHZ):           1.89122     0.31957     0.29213
 Zero-point vibrational energy     534621.3 (Joules/Mol)
                                  127.77755 (Kcal/Mol)
 Warning -- explicit consideration of  21 degrees of freedom as
           vibrations may cause significant error
 Vibrational temperatures:     37.92    73.02    76.92   188.23   236.46
          (Kelvin)            272.18   318.20   349.70   382.08   394.22
                              433.70   493.91   543.49   583.22   655.69
                              738.20   748.28   768.12   818.69   876.99
                              883.65   964.33  1088.84  1096.29  1197.90
                             1242.66  1265.71  1292.11  1337.77  1373.86
                             1416.87  1456.23  1489.86  1508.70  1643.75
                             1681.35  1694.29  1759.98  1794.09  1819.95
                             1848.00  1884.91  1929.94  1994.88  2020.50
                             2037.74  2053.01  2076.90  2155.80  2169.03
                             2178.13  2185.81  2200.92  2220.21  2448.11
                             2600.21  3348.30  4258.13  4386.96  4399.68
                             4407.50  4408.86  4448.67  4501.07  4508.47
                             4513.23  4515.24  4602.00  5300.67

 Zero-point correction=                           0.203626 (Hartree/Particle)
 Thermal correction to Energy=                    0.216593
 Thermal correction to Enthalpy=                  0.217537
 Thermal correction to Gibbs Free Energy=         0.163091
 Sum of electronic and zero-point Energies=           -613.727887
 Sum of electronic and thermal Energies=              -613.714921
 Sum of electronic and thermal Enthalpies=            -613.713977
 Sum of electronic and thermal Free Energies=         -613.768422

                     E (Thermal)             CV                S
                      KCal/Mol        Cal/Mol-Kelvin    Cal/Mol-Kelvin
 Total                  135.914             48.368            114.590
 Electronic               0.000              0.000              0.000
 Translational            0.889              2.981             41.471
 Rotational               0.889              2.981             31.877
 Vibrational            134.136             42.406             41.242
 Vibration     1          0.593              1.985              6.086
 Vibration     2          0.595              1.977              4.788
 Vibration     3          0.596              1.976              4.685
 Vibration     4          0.612              1.922              2.934
 Vibration     5          0.623              1.886              2.499
 Vibration     6          0.633              1.855              2.236
 Vibration     7          0.648              1.809              1.950
 Vibration     8          0.659              1.774              1.780
 Vibration     9          0.671              1.736              1.625
 Vibration    10          0.676              1.721              1.571
 Vibration    11          0.693              1.671              1.409
 Vibration    12          0.722              1.589              1.197
 Vibration    13          0.748              1.518              1.048
 Vibration    14          0.770              1.459              0.943
 Vibration    15          0.814              1.348              0.779
 Vibration    16          0.868              1.221              0.626
 Vibration    17          0.875              1.206              0.610
 Vibration    18          0.889              1.175              0.579
 Vibration    19          0.925              1.098              0.506
 Vibration    20          0.969              1.012              0.434
 Vibration    21          0.974              1.002              0.426

 Optimization completed.
    -- Stationary point found.
 Normal termination of Gaussian 16 at Wed Dec  9 22:35:22 2020.

 ----------------------------------------------------------------------
 # B3LYP/6-311++G(d,p) empiricaldispersion=gd3bj scf=xqc pop=npa geom=c
 heck
 ----------------------------------------------------------------------

 --------------------------------------
 CID_12483732_JID_3231_Energie_neutraal
 --------------------------------------
 Structure from the checkpoint file:  "JID_3231.chk"
 Charge =  0 Multiplicity = 1

 SCF Done:  E(RB3LYP) =  -614.116449283     A.U. after   15 cycles
 Normal termination of Gaussian 16 at Wed Dec  9 22:38:02 2020.

 ----------------------------------------------------------------------
 # B3LYP/6-311++G(d,p) empiricaldispersion=gd3bj scf=xqc pop=npa geom=c
 heck
 ----------------------------------------------------------------------

 ------------------------------------
 CID_12483732_JID_3231_Energie_kation
 ------------------------------------
 Structure from the checkpoint file:  "JID_3231.chk"
 Charge =  1 Multiplicity = 2

 SCF Done:  E(UB3LYP) =  -613.791226443     A.U. after   24 cycles
 Normal termination of Gaussian 16 at Wed Dec  9 22:44:15 2020.
 Gaussian 16:  ES64L-G16RevA.03 25-Dec-2016

 ----------------------------------------------------------------------
 # B3LYP/6-311++G(d,p) empiricaldispersion=gd3bj scf=xqc pop=npa geom=c
 heck
 ----------------------------------------------------------------------

 -----------------------------------
 CID_12483732_JID_3231_Energie_anion
 -----------------------------------
 Structure from the checkpoint file:  "JID_3231.chk"
 Charge = -1 Multiplicity = 2

                         Standard orientation:
 ---------------------------------------------------------------------
 Center     Atomic      Atomic             Coordinates (Angstroms)
 Number     Number       Type             X           Y           Z
 ---------------------------------------------------------------------
      1          6           0        2.605598   -0.520618    1.569803
      2          6           0        2.451429   -0.572503    0.043644
      3          6           0        0.988645   -0.829149   -0.364034
      4          6           0        0.132162    0.408718   -0.171184
      5          6           0        0.698456    1.626265   -0.074423
      6          6           0        2.181121    1.815838   -0.152688
      7          8           0        2.888206    0.661966   -0.559851
      8          6           0       -1.276408    0.247479   -0.100754
      9          6           0       -2.473218    0.049143   -0.044686
     10          6           0       -3.902199   -0.081267    0.033675
     11          8           0       -4.677691    0.839900    0.191714
     12          8           0       -4.299223   -1.372784   -0.089977
     13          6           0        3.370229   -1.634260   -0.552872
     14          1           0        3.623184   -0.212068    1.829955
     15          1           0        2.423277   -1.509663    2.002725
     16          1           0        1.899868    0.177626    2.030079
     17          1           0        0.948692   -1.134265   -1.417518
     18          1           0        0.573385   -1.658781    0.219287
     19          1           0        0.086150    2.509849    0.085545
     20          1           0        2.549023    2.188091    0.821203
     21          1           0        2.422033    2.592021   -0.890159
     22          1           0       -5.273027   -1.353234   -0.024785
     23          1           0        4.405980   -1.454442   -0.248477
     24          1           0        3.074244   -2.633418   -0.216264
     25          1           0        3.321960   -1.602256   -1.645569
 ---------------------------------------------------------------------

 SCF Done:  E(UB3LYP) =  -614.130984742     A.U. after   25 cycles

 The electronic state is 2-A.
 Alpha  occ. eigenvalues --  -19.01150 -19.00487 -18.93446 -10.12921 -10.11926
 Alpha  occ. eigenvalues --  -10.09255 -10.06079 -10.05567 -10.04684 -10.03320
 Alpha  occ. eigenvalues --  -10.00569 -10.00206  -9.99427  -0.94669  -0.92008
 Alpha  occ. eigenvalues --   -0.85199  -0.69643  -0.67147  -0.60236  -0.59060
 Alpha  occ. eigenvalues --   -0.58262  -0.53364  -0.50467  -0.46792  -0.40169
 Alpha  occ. eigenvalues --   -0.37691  -0.37266  -0.36699  -0.33779  -0.33253
 Alpha  occ. eigenvalues --   -0.32528  -0.31163  -0.29451  -0.29324  -0.28982
 Alpha  occ. eigenvalues --   -0.27449  -0.26978  -0.25222  -0.25000  -0.24493
 Alpha  occ. eigenvalues --   -0.22776  -0.18811  -0.17640  -0.16348  -0.14212
 Alpha  occ. eigenvalues --   -0.13661  -0.10206  -0.08963   0.04894
 Alpha virt. eigenvalues --    0.07464   0.09180   0.09834   0.09962   0.10609
 Alpha virt. eigenvalues --    0.11710   0.12198   0.12775   0.13391   0.13864
 Alpha virt. eigenvalues --    0.15209   0.15587   0.16200   0.16563   0.16870

  Beta  occ. eigenvalues --  -19.01058 -19.00488 -18.93080 -10.12638 -10.11926
  Beta  occ. eigenvalues --  -10.09300 -10.06078 -10.05566 -10.04686 -10.03319
  Beta  occ. eigenvalues --  -10.00023  -9.99936  -9.99345  -0.94319  -0.92001
  Beta  occ. eigenvalues --   -0.84647  -0.69603  -0.66622  -0.59834  -0.58867
  Beta  occ. eigenvalues --   -0.58057  -0.52976  -0.49891  -0.46562  -0.39799
  Beta  occ. eigenvalues --   -0.37567  -0.37079  -0.36423  -0.33551  -0.33089
  Beta  occ. eigenvalues --   -0.32151  -0.31074  -0.29333  -0.28792  -0.27885
  Beta  occ. eigenvalues --   -0.27367  -0.26880  -0.25084  -0.24735  -0.24361
  Beta  occ. eigenvalues --   -0.22595  -0.18669  -0.16294  -0.14652  -0.14059
  Beta  occ. eigenvalues --   -0.13406  -0.09952  -0.06882
  Beta virt. eigenvalues --    0.07406   0.09138   0.09779   0.09951   0.10565
  Beta virt. eigenvalues --    0.11460   0.11856   0.12156   0.12788   0.13385
  Beta virt. eigenvalues --    0.13841   0.15255   0.15553   0.16193   0.16881

 Mulliken charges and spin densities:
               1          2
     1  C   -0.595528  -0.006707
     2  C    0.139147  -0.008334
     3  C   -0.942833  -0.042980
     4  C    0.206390   0.001809
     5  C   -0.107855   0.416514
     6  C   -0.471685  -0.035371
     7  O   -0.071505   0.004653
     8  C    0.211335   0.184500
     9  C   -0.128463   0.113721
    10  C    0.118888   0.166786
    11  O   -0.415814   0.118778
    12  O   -0.190566   0.014446
    13  C   -0.456987  -0.004307
    14  H    0.134521   0.011385
    15  H    0.119995   0.004286
    16  H    0.162917  -0.003563
    17  H    0.123246   0.015896
    18  H    0.154353  -0.000278
    19  H    0.136915  -0.027514
    20  H    0.094760   0.045724
    21  H    0.145209   0.010714
    22  H    0.237854  -0.001036
    23  H    0.129191   0.007461
    24  H    0.121163  -0.000051
    25  H    0.145352   0.013468
 Sum of Mulliken charges =  -1.00000   1.00000

 Dipole moment (field-independent basis, Debye):
    X=              7.5059    Y=             -2.9408    Z=              0.7618  Tot=              8.0973
 Quadrupole moment (field-independent basis, Debye-Ang):
   XX=           -135.9519   YY=            -87.9328   ZZ=            -85.4806
   XY=              6.7642   XZ=              3.7702   YZ=             -0.3133

 Summary of Natural Population Analysis:

                                       Natural Population
                Natural  -----------------------------------------------
    Atom  No    Charge         Core      Valence    Rydberg      Total
 -----------------------------------------------------------------------
      C    1   -0.30219      0.99961     2.29710    0.00548     3.30219
      C    2    0.13716      0.99955     1.84974    0.01355     2.86284
      C    3   -0.19901      0.99955     2.19100    0.00846     3.19901
      C    4   -0.09181      0.99946     2.07680    0.01556     3.09181
      C    5    0.01778      0.99949     1.97465    0.00808     2.98222
      C    6   -0.02511      0.99956     2.01397    0.01159     3.02511
      O    7   -0.31620      0.99987     3.30458    0.01175     4.31620
      C    8    0.10016      0.99929     1.89005    0.01049     2.89984
      C    9   -0.08985      0.99927     2.07464    0.01593     3.08985
      C   10    0.41793      0.99965     1.55936    0.02306     2.58207
      O   11   -0.29726      0.99988     3.28701    0.01037     4.29726
      O   12   -0.35134      0.99988     3.34376    0.00770     4.35134
      C   13   -0.28599      0.99961     2.28039    0.00599     3.28599
      H   14    0.09653      0.00000     0.40246    0.00101     0.40347
      H   15    0.09764      0.00000     0.40152    0.00084     0.40236
      H   16    0.10986      0.00000     0.38919    0.00095     0.39014
      H   17    0.10044      0.00000     0.39800    0.00156     0.39956
      H   18    0.10153      0.00000     0.39717    0.00130     0.39847
      H   19    0.09116      0.00000     0.40782    0.00102     0.40884
      H   20    0.07855      0.00000     0.41968    0.00176     0.42145
      H   21    0.09122      0.00000     0.40740    0.00137     0.40878
      H   22    0.22686      0.00000     0.27000    0.00314     0.27314
      H   23    0.09680      0.00000     0.40212    0.00108     0.40320
      H   24    0.09585      0.00000     0.40340    0.00075     0.40415
      H   25    0.10277      0.00000     0.39625    0.00098     0.39723
 =======================================================================
   * Total *    0.00350     12.99468    34.83804    0.16377    47.99650

 Normal termination of Gaussian 16 at Wed Dec  9 22:50:52 2020.
