 Gaussian 16, Revision A.03,

 -----------------------------------------------------------
 # opt freq B3LYP/6-31G(d) empiricaldispersion=gd3bj scf=xqc
 -----------------------------------------------------------

 ------------------------------
 CID_62215457_JID_8028_neutraal
 ------------------------------
 Symbolic Z-matrix:
 Charge =  0 Multiplicity = 1

 SCF Done:  E(RB3LYP) =  -841.428737852     A.U. after   15 cycles
 SCF Done:  E(RB3LYP) =  -841.436790360     A.U. after   12 cycles
 SCF Done:  E(RB3LYP) =  -841.437158377     A.U. after   13 cycles
 SCF Done:  E(RB3LYP) =  -841.440266572     A.U. after   12 cycles
 SCF Done:  E(RB3LYP) =  -841.441559513     A.U. after   13 cycles
 SCF Done:  E(RB3LYP) =  -841.443673713     A.U. after   13 cycles
 SCF Done:  E(RB3LYP) =  -841.444953890     A.U. after   12 cycles
 SCF Done:  E(RB3LYP) =  -841.445310176     A.U. after   14 cycles
 SCF Done:  E(RB3LYP) =  -841.445582880     A.U. after   12 cycles
 SCF Done:  E(RB3LYP) =  -841.445701180     A.U. after   12 cycles
 SCF Done:  E(RB3LYP) =  -841.445863685     A.U. after   10 cycles
 SCF Done:  E(RB3LYP) =  -841.445877937     A.U. after   10 cycles
 SCF Done:  E(RB3LYP) =  -841.445878833     A.U. after    8 cycles
 SCF Done:  E(RB3LYP) =  -841.445879069     A.U. after    8 cycles
 SCF Done:  E(RB3LYP) =  -841.445879155     A.U. after    7 cycles
 SCF Done:  E(RB3LYP) =  -841.445879189     A.U. after    7 cycles
 Optimization completed.
    -- Stationary point found.
 Normal termination of Gaussian 16 at Fri Dec 11 18:44:34 2020.

 --------------------------------------------------------------------
 #N Geom=AllCheck Guess=TCheck SCRF=Check GenChk RB3LYP/6-31G(d) Freq
 --------------------------------------------------------------------

 Structure from the checkpoint file:  "JID_8028.chk"
 ------------------------------
 CID_62215457_JID_8028_neutraal
 ------------------------------
 Charge =  0 Multiplicity = 1

 SCF Done:  E(RB3LYP) =  -841.445879189     A.U. after    1 cycles

  Exact polarizability: 174.278  26.174 148.910  15.024 -10.723 140.532
 Approx polarizability: 241.639  57.394 231.113  37.091 -14.588 217.856

                      1                      2                      3
                      A                      A                      A
 Frequencies --     23.1192                30.9699                39.8483
 Red. masses --      4.2240                 3.4161                 4.1513
 Frc consts  --      0.0013                 0.0019                 0.0039
 IR Inten    --      0.3702                 0.7714                 0.4809

                      4                      5                      6
                      A                      A                      A
 Frequencies --     59.7099                78.8021                95.5554
 Red. masses --      7.1143                 2.7351                 3.2307
 Frc consts  --      0.0149                 0.0100                 0.0174
 IR Inten    --      1.1844                 0.2070                 2.9828

                      7                      8                      9
                      A                      A                      A
 Frequencies --    132.3246               165.7122               198.4617
 Red. masses --      3.6759                 3.3926                 3.4782
 Frc consts  --      0.0379                 0.0549                 0.0807
 IR Inten    --      4.1890                 0.9332                 1.5994

                     10                     11                     12
                      A                      A                      A
 Frequencies --    203.8038               222.3816               258.3890
 Red. masses --      2.2448                 3.1189                 1.7394
 Frc consts  --      0.0549                 0.0909                 0.0684
 IR Inten    --      2.2033                 0.6405                 0.2174

                     13                     14                     15
                      A                      A                      A
 Frequencies --    278.3487               302.9204               307.4924
 Red. masses --      1.4596                 5.4818                 1.1084
 Frc consts  --      0.0666                 0.2964                 0.0617
 IR Inten    --      1.7796                 8.2417                19.2194

                     16                     17                     18
                      A                      A                      A
 Frequencies --    315.5023               345.0199               374.7393
 Red. masses --      4.8872                 4.6020                 6.1608
 Frc consts  --      0.2866                 0.3228                 0.5097
 IR Inten    --      0.8235                 3.9034                 1.8100

                     19                     20                     21
                      A                      A                      A
 Frequencies --    393.1708               436.9130               466.6857
 Red. masses --      3.4363                 3.1745                 2.9802
 Frc consts  --      0.3130                 0.3570                 0.3824
 IR Inten    --      1.9728                 1.4464                 5.4106

                     22                     23                     24
                      A                      A                      A
 Frequencies --    502.7488               513.2051               553.4791
 Red. masses --      2.4377                 2.1468                 5.0181
 Frc consts  --      0.3630                 0.3331                 0.9057
 IR Inten    --     28.5978                38.8721                16.0757

                     25                     26                     27
                      A                      A                      A
 Frequencies --    567.2036               588.8748               594.2582
 Red. masses --      5.0980                 3.0499                 1.6324
 Frc consts  --      0.9663                 0.6231                 0.3397
 IR Inten    --     21.7307                54.2071               214.7882

                     28                     29                     30
                      A                      A                      A
 Frequencies --    621.0606               634.0197               661.8825
 Red. masses --      3.1259                 3.2829                 2.5726
 Frc consts  --      0.7104                 0.7775                 0.6640
 IR Inten    --     59.5758                20.3983                49.1865

                     31                     32                     33
                      A                      A                      A
 Frequencies --    725.5983               733.1754               754.3441
 Red. masses --      3.3921                 5.1141                 5.1449
 Frc consts  --      1.0522                 1.6197                 1.7249
 IR Inten    --     13.1427                21.1083                 7.3520

                     34                     35                     36
                      A                      A                      A
 Frequencies --    778.1350               806.8932               826.4379
 Red. masses --      1.7853                 1.5063                 1.7236
 Frc consts  --      0.6369                 0.5778                 0.6936
 IR Inten    --      2.6993                 5.3936                55.1895

                     37                     38                     39
                      A                      A                      A
 Frequencies --    851.9277               879.5607               889.3186
 Red. masses --      1.8569                 2.5931                 2.6316
 Frc consts  --      0.7941                 1.1820                 1.2263
 IR Inten    --      1.5619                 0.8286                 4.3721

                     40                     41                     42
                      A                      A                      A
 Frequencies --    928.9912               943.4801               950.5399
 Red. masses --      2.5760                 1.8653                 1.5765
 Frc consts  --      1.3099                 0.9783                 0.8393
 IR Inten    --      4.6381                15.7891                 2.7345

                     43                     44                     45
                      A                      A                      A
 Frequencies --    978.9461               984.1389              1009.1949
 Red. masses --      3.2201                 1.9283                 2.5270
 Frc consts  --      1.8182                 1.1004                 1.5163
 IR Inten    --     12.2179                 1.5571                 3.8753

                     46                     47                     48
                      A                      A                      A
 Frequencies --   1076.7358              1079.1181              1090.6136
 Red. masses --      2.3662                 2.9018                 3.3360
 Frc consts  --      1.6163                 1.9909                 2.3379
 IR Inten    --     11.6594                34.0693                17.6359

                     49                     50                     51
                      A                      A                      A
 Frequencies --   1122.6252              1132.0866              1150.8706
 Red. masses --      1.4846                 3.9502                 2.2987
 Frc consts  --      1.1024                 2.9828                 1.7938
 IR Inten    --      5.9419                68.8663                85.1569

                     52                     53                     54
                      A                      A                      A
 Frequencies --   1164.4495              1186.7521              1212.5181
 Red. masses --      1.3067                 1.2707                 1.5347
 Frc consts  --      1.0440                 1.0544                 1.3294
 IR Inten    --     26.7201                 0.8915                16.5042

                     55                     56                     57
                      A                      A                      A
 Frequencies --   1224.7043              1235.4077              1250.7652
 Red. masses --      1.3957                 1.4398                 2.7318
 Frc consts  --      1.2334                 1.2947                 2.5180
 IR Inten    --      2.2726                30.5841               105.4569

                     58                     59                     60
                      A                      A                      A
 Frequencies --   1261.3573              1277.5736              1298.3290
 Red. masses --      2.1186                 1.6544                 1.2625
 Frc consts  --      1.9860                 1.5909                 1.2539
 IR Inten    --     45.7469               154.7796                30.5113

                     61                     62                     63
                      A                      A                      A
 Frequencies --   1308.1892              1316.6578              1347.4932
 Red. masses --      1.3432                 1.4346                 1.4225
 Frc consts  --      1.3543                 1.4653                 1.5218
 IR Inten    --      4.6634                16.3480                56.9948

                     64                     65                     66
                      A                      A                      A
 Frequencies --   1356.4335              1373.7439              1381.4399
 Red. masses --      4.8118                 1.6266                 2.9641
 Frc consts  --      5.2162                 1.8086                 3.3328
 IR Inten    --     39.1402                24.9901                40.1630

                     67                     68                     69
                      A                      A                      A
 Frequencies --   1384.7389              1397.7707              1424.5254
 Red. masses --      1.3140                 1.3613                 1.3266
 Frc consts  --      1.4845                 1.5670                 1.5861
 IR Inten    --     13.5580                 4.9543                 6.7075

                     70                     71                     72
                      A                      A                      A
 Frequencies --   1443.2803              1453.4092              1483.8169
 Red. masses --      1.5608                 1.8796                 1.6432
 Frc consts  --      1.9156                 2.3394                 2.1316
 IR Inten    --      7.4112                58.1752                30.5492

                     73                     74                     75
                      A                      A                      A
 Frequencies --   1514.7906              1520.9627              1521.4886
 Red. masses --      1.0835                 1.8943                 1.0555
 Frc consts  --      1.4648                 2.5819                 1.4396
 IR Inten    --      1.8543                21.8866                 6.8831

                     76                     77                     78
                      A                      A                      A
 Frequencies --   1524.0648              1528.6948              1532.6986
 Red. masses --      1.0860                 1.0935                 1.0813
 Frc consts  --      1.4862                 1.5057                 1.4966
 IR Inten    --      4.1652                 2.7197                43.7694

                     79                     80                     81
                      A                      A                      A
 Frequencies --   1541.4238              1568.0279              1636.9907
 Red. masses --      1.0997                 3.0916                 6.3483
 Frc consts  --      1.5394                 4.4786                10.0230
 IR Inten    --      2.3347               133.1469                40.2963

                     82                     83                     84
                      A                      A                      A
 Frequencies --   1672.1949              1696.5680              1816.7467
 Red. masses --      3.9976                 1.2830                 9.4067
 Frc consts  --      6.5860                 2.1758                18.2927
 IR Inten    --     66.8171               141.9574               375.3870

                     85                     86                     87
                      A                      A                      A
 Frequencies --   2979.9666              3025.7305              3029.1165
 Red. masses --      1.0731                 1.0813                 1.0352
 Frc consts  --      5.6144                 5.8327                 5.5962
 IR Inten    --     76.4324                34.1857                44.7225

                     88                     89                     90
                      A                      A                      A
 Frequencies --   3043.9021              3056.6037              3063.5674
 Red. masses --      1.0663                 1.0596                 1.0623
 Frc consts  --      5.8208                 5.8327                 5.8744
 IR Inten    --     36.5917                19.4643                23.8029

                     91                     92                     93
                      A                      A                      A
 Frequencies --   3082.8431              3089.4875              3093.7688
 Red. masses --      1.0942                 1.1067                 1.1043
 Frc consts  --      6.1268                 6.2239                 6.2272
 IR Inten    --     18.9497                42.7367                12.8305

                     94                     95                     96
                      A                      A                      A
 Frequencies --   3104.5351              3112.0535              3168.0363
 Red. masses --      1.0962                 1.1055                 1.0998
 Frc consts  --      6.2251                 6.3079                 6.5036
 IR Inten    --     58.5241                69.0312                16.5044

                     97                     98                     99
                      A                      A                      A
 Frequencies --   3188.5735              3209.9860              3213.5331
 Red. masses --      1.0882                 1.0935                 1.0898
 Frc consts  --      6.5188                 6.6383                 6.6307
 IR Inten    --     14.8535                13.9326                 5.2602

                    100                    101                    102
                      A                      A                      A
 Frequencies --   3553.5883              3555.8517              3655.0396
 Red. masses --      1.0746                 1.0479                 1.0984
 Frc consts  --      7.9954                 7.8062                 8.6457
 IR Inten    --     21.3141                17.8203                 9.4836

 - Thermochemistry -
 -------------------
 Temperature   298.150 Kelvin.  Pressure   1.00000 Atm.
 Atom     1 has atomic number  6 and mass  12.00000

 Molecular mass:   250.13174 amu.
 Principal axes and moments of inertia in atomic units:
                           1         2         3
     Eigenvalues --  3027.487326438.173016927.01994
           X            0.99976  -0.02198  -0.00225
           Y            0.02164   0.99466  -0.10091
           Z            0.00445   0.10084   0.99489
 This molecule is an asymmetric top.
 Rotational symmetry number  1.
 Warning -- assumption of classical behavior for rotation
           may cause significant error
 Rotational temperatures (Kelvin)      0.02861     0.01345     0.01250
 Rotational constants (GHZ):           0.59612     0.28032     0.26054
 Zero-point vibrational energy     799963.9 (Joules/Mol)
                                  191.19597 (Kcal/Mol)
 Warning -- explicit consideration of  27 degrees of freedom as
           vibrations may cause significant error
 Vibrational temperatures:     33.26    44.56    57.33    85.91   113.38
          (Kelvin)            137.48   190.39   238.42   285.54   293.23
                              319.96   371.76   400.48   435.83   442.41
                              453.94   496.41   539.17   565.69   628.62
                              671.46   723.34   738.39   796.33   816.08
                              847.26   855.01   893.57   912.21   952.30
                             1043.97  1054.88  1085.33  1119.56  1160.94
                             1189.06  1225.73  1265.49  1279.53  1336.61
                             1357.46  1367.61  1408.49  1415.96  1452.01
                             1549.18  1552.61  1569.15  1615.21  1628.82
                             1655.85  1675.38  1707.47  1744.54  1762.08
                             1777.48  1799.57  1814.81  1838.14  1868.01
                             1882.19  1894.38  1938.74  1951.61  1976.51
                             1987.58  1992.33  2011.08  2049.57  2076.56
                             2091.13  2134.88  2179.45  2188.33  2189.08
                             2192.79  2199.45  2205.21  2217.77  2256.04
                             2355.26  2405.92  2440.98  2613.89  4287.51
                             4353.35  4358.22  4379.50  4397.77  4407.79
                             4435.52  4445.08  4451.24  4466.73  4477.55
                             4558.10  4587.65  4618.45  4623.56  5112.82
                             5116.08  5258.79

 Zero-point correction=                           0.304690 (Hartree/Particle)
 Thermal correction to Energy=                    0.322040
 Thermal correction to Enthalpy=                  0.322984
 Thermal correction to Gibbs Free Energy=         0.258024
 Sum of electronic and zero-point Energies=           -841.141189
 Sum of electronic and thermal Energies=              -841.123839
 Sum of electronic and thermal Enthalpies=            -841.122895
 Sum of electronic and thermal Free Energies=         -841.187855

                     E (Thermal)             CV                S
                      KCal/Mol        Cal/Mol-Kelvin    Cal/Mol-Kelvin
 Total                  202.083             66.134            136.719
 Electronic               0.000              0.000              0.000
 Translational            0.889              2.981             42.451
 Rotational               0.889              2.981             33.268
 Vibrational            200.306             60.173             61.000
 Vibration     1          0.593              1.985              6.346
 Vibration     2          0.594              1.984              5.766
 Vibration     3          0.594              1.981              5.267
 Vibration     4          0.597              1.974              4.467
 Vibration     5          0.600              1.963              3.920
 Vibration     6          0.603              1.952              3.543
 Vibration     7          0.612              1.921              2.912
 Vibration     8          0.624              1.885              2.484
 Vibration     9          0.637              1.842              2.147
 Vibration    10          0.639              1.834              2.098
 Vibration    11          0.648              1.807              1.940
 Vibration    12          0.667              1.749              1.673
 Vibration    13          0.679              1.714              1.544
 Vibration    14          0.694              1.668              1.401
 Vibration    15          0.697              1.659              1.376
 Vibration    16          0.703              1.644              1.333
 Vibration    17          0.723              1.585              1.189
 Vibration    18          0.746              1.524              1.060
 Vibration    19          0.760              1.485              0.988
 Vibration    20          0.797              1.390              0.836
 Vibration    21          0.824              1.324              0.747
 Vibration    22          0.858              1.244              0.651
 Vibration    23          0.868              1.221              0.626
 Vibration    24          0.909              1.132              0.537
 Vibration    25          0.923              1.102              0.510
 Vibration    26          0.946              1.056              0.469
 Vibration    27          0.952              1.044              0.460

                           ! Non-Optimized Parameters !
 Normal termination of Gaussian 16 at Fri Dec 11 19:01:34 2020.

 ----------------------------------------------------------------------
 # B3LYP/6-311++G(d,p) empiricaldispersion=gd3bj scf=xqc pop=npa geom=c
 heck
 ----------------------------------------------------------------------

 --------------------------------------
 CID_62215457_JID_8028_Energie_neutraal
 --------------------------------------
 Structure from the checkpoint file:  "JID_8028.chk"
 Charge =  0 Multiplicity = 1

 SCF Done:  E(RB3LYP) =  -841.691324388     A.U. after   16 cycles
 Normal termination of Gaussian 16 at Fri Dec 11 19:08:16 2020.

 ----------------------------------------------------------------------
 # B3LYP/6-311++G(d,p) empiricaldispersion=gd3bj scf=xqc pop=npa geom=c
 heck
 ----------------------------------------------------------------------

 ------------------------------------
 CID_62215457_JID_8028_Energie_kation
 ------------------------------------
 Structure from the checkpoint file:  "JID_8028.chk"
 Charge =  1 Multiplicity = 2

 SCF Done:  E(UB3LYP) =  -841.410677279     A.U. after   28 cycles
 Normal termination of Gaussian 16 at Fri Dec 11 19:24:05 2020.
 Gaussian 16:  ES64L-G16RevA.03 25-Dec-2016

 ----------------------------------------------------------------------
 # B3LYP/6-311++G(d,p) empiricaldispersion=gd3bj scf=xqc pop=npa geom=c
 heck
 ----------------------------------------------------------------------

 -----------------------------------
 CID_62215457_JID_8028_Energie_anion
 -----------------------------------
 Structure from the checkpoint file:  "JID_8028.chk"
 Charge = -1 Multiplicity = 2

                         Standard orientation:
 ---------------------------------------------------------------------
 Center     Atomic      Atomic             Coordinates (Angstroms)
 Number     Number       Type             X           Y           Z
 ---------------------------------------------------------------------
      1          6           0       -1.477466    2.524530   -1.763005
      2          8           0       -1.035639    1.965321   -0.536745
      3          6           0       -1.624712    0.821643   -0.096354
      4          6           0       -1.073851    0.270437    1.081710
      5          6           0       -1.621426   -0.907599    1.582450
      6          6           0       -2.689489   -1.543282    0.955186
      7          6           0       -3.229643   -0.998498   -0.218370
      8          6           0       -2.686481    0.189040   -0.741394
      9          7           0       -4.254990   -1.652220   -0.901635
     10          7           0        0.004952    0.918103    1.749276
     11          6           0        1.291015    1.063065    1.263731
     12          8           0        2.074025    1.851618    1.761075
     13          6           0        1.678890    0.084021    0.156910
     14          6           0        1.954656   -1.324856    0.748168
     15          6           0        3.045350   -2.027831   -0.082517
     16          6           0        2.905849   -1.637744   -1.557287
     17          6           0        3.097730   -0.111201   -1.696874
     18          8           0        2.836794    0.585429   -0.482768
     19          1           0       -0.848390    3.399034   -1.933463
     20          1           0       -2.528693    2.835493   -1.706507
     21          1           0       -1.353463    1.816135   -2.592069
     22          1           0       -1.190661   -1.324629    2.487658
     23          1           0       -3.097597   -2.463422    1.363665
     24          1           0       -3.103687    0.600787   -1.653534
     25          1           0       -4.833798   -1.057763   -1.481365
     26          1           0       -4.814033   -2.276222   -0.333738
     27          1           0       -0.218630    1.617188    2.450179
     28          1           0        0.858995    0.018382   -0.571608
     29          1           0        1.022432   -1.901024    0.739653
     30          1           0        2.276525   -1.238674    1.791452
     31          1           0        4.033301   -1.719607    0.277502
     32          1           0        2.980392   -3.114063    0.044645
     33          1           0        3.635842   -2.164360   -2.182435
     34          1           0        1.911464   -1.934067   -1.916287
     35          1           0        4.137211    0.129245   -1.940329
     36          1           0        2.459077    0.287083   -2.503519
 ---------------------------------------------------------------------

 SCF Done:  E(UB3LYP) =  -841.686162346     A.U. after   32 cycles

 The electronic state is 2-A.
 Alpha  occ. eigenvalues --  -19.06876 -19.03649 -18.99922 -14.24664 -14.21770
 Alpha  occ. eigenvalues --  -10.18159 -10.14862 -10.13959 -10.13366 -10.13259
 Alpha  occ. eigenvalues --  -10.12646 -10.11100 -10.09092 -10.09028 -10.08887
 Alpha  occ. eigenvalues --  -10.08790 -10.07581 -10.07306  -0.98687  -0.96435
 Alpha  occ. eigenvalues --   -0.94121  -0.83977  -0.82318  -0.74193  -0.71850
 Alpha  occ. eigenvalues --   -0.68804  -0.66666  -0.64505  -0.60809  -0.58826
 Alpha  occ. eigenvalues --   -0.56016  -0.52793  -0.51736  -0.49964  -0.46059
 Alpha  occ. eigenvalues --   -0.44910  -0.43994  -0.42941  -0.42258  -0.41005
 Alpha  occ. eigenvalues --   -0.38645  -0.38424  -0.38286  -0.37302  -0.36123
 Alpha  occ. eigenvalues --   -0.35107  -0.34220  -0.33499  -0.33338  -0.31846
 Alpha  occ. eigenvalues --   -0.30826  -0.30148  -0.29900  -0.28643  -0.27855
 Alpha  occ. eigenvalues --   -0.26993  -0.26710  -0.25808  -0.25320  -0.24987
 Alpha  occ. eigenvalues --   -0.22105  -0.20989  -0.17777  -0.17391  -0.16199
 Alpha  occ. eigenvalues --   -0.14680  -0.11449   0.03756
 Alpha virt. eigenvalues --    0.05601   0.06215   0.07350   0.07397   0.07898
 Alpha virt. eigenvalues --    0.08291   0.08908   0.09087   0.09415   0.09446
 Alpha virt. eigenvalues --    0.10329   0.10533   0.10910   0.11357   0.11592

  Beta  occ. eigenvalues --  -19.06872 -19.03647 -18.99921 -14.24662 -14.21687
  Beta  occ. eigenvalues --  -10.18159 -10.14862 -10.13956 -10.13359 -10.13219
  Beta  occ. eigenvalues --  -10.12642 -10.11099 -10.09088 -10.09019 -10.08884
  Beta  occ. eigenvalues --  -10.08788 -10.07553 -10.07286  -0.98675  -0.96432
  Beta  occ. eigenvalues --   -0.94119  -0.83970  -0.82232  -0.74156  -0.71840
  Beta  occ. eigenvalues --   -0.68794  -0.66638  -0.64451  -0.60759  -0.58811
  Beta  occ. eigenvalues --   -0.56002  -0.52745  -0.51693  -0.49944  -0.46028
  Beta  occ. eigenvalues --   -0.44884  -0.43956  -0.42920  -0.42194  -0.40986
  Beta  occ. eigenvalues --   -0.38622  -0.38386  -0.38261  -0.37232  -0.36115
  Beta  occ. eigenvalues --   -0.35066  -0.34208  -0.33486  -0.33302  -0.31823
  Beta  occ. eigenvalues --   -0.30800  -0.30133  -0.29871  -0.28632  -0.27833
  Beta  occ. eigenvalues --   -0.26975  -0.26698  -0.25777  -0.25308  -0.24954
  Beta  occ. eigenvalues --   -0.22097  -0.20961  -0.17771  -0.17380  -0.16193
  Beta  occ. eigenvalues --   -0.14656  -0.11406
  Beta virt. eigenvalues --    0.05599   0.06753   0.06913   0.07476   0.07869
  Beta virt. eigenvalues --    0.08288   0.08380   0.08921   0.09338   0.09667
  Beta virt. eigenvalues --    0.09892   0.10466   0.10776   0.10990   0.11481

 Mulliken charges and spin densities:
               1          2
     1  C    0.860812  -1.135075
     2  O   -0.121473   0.017883
     3  C    0.036684  -0.326864
     4  C    0.671189  -0.574870
     5  C    0.170044   0.090086
     6  C   -0.497906   0.470189
     7  C   -0.038604  -0.587917
     8  C    0.513857  -0.601485
     9  N   -0.147111  -0.136437
    10  N   -0.239615   0.019871
    11  C    0.235426  -0.208672
    12  O   -0.293832   0.004148
    13  C   -0.636061   0.280884
    14  C   -0.076640   0.005979
    15  C   -0.521371  -0.081621
    16  C   -0.160207  -0.044658
    17  C   -0.038388  -0.201699
    18  O   -0.064804  -0.001354
    19  H    0.102846   0.071019
    20  H   -0.342856   0.505851
    21  H   -0.303908   0.459538
    22  H    0.098165   0.074214
    23  H   -0.500830   0.676902
    24  H   -0.630183   0.841786
    25  H   -0.342366   0.598404
    26  H   -0.340589   0.602302
    27  H    0.314702  -0.000355
    28  H    0.662962  -0.477493
    29  H    0.152695   0.013903
    30  H    0.179004   0.012581
    31  H    0.161889   0.001443
    32  H    0.035694   0.116793
    33  H    0.004921   0.167859
    34  H   -0.032149   0.187114
    35  H    0.085260   0.058539
    36  H    0.042744   0.101214
 Sum of Mulliken charges =  -1.00000   1.00000

 Dipole moment (field-independent basis, Debye):
    X=              8.8751    Y=             -0.2565    Z=              3.2502  Tot=              9.4550
 Quadrupole moment (field-independent basis, Debye-Ang):
   XX=           -207.4509   YY=           -152.2441   ZZ=           -145.0473
   XY=            -21.2348   XZ=            -21.7361   YZ=             -1.9593

 Summary of Natural Population Analysis:

                                       Natural Population
                Natural  -----------------------------------------------
    Atom  No    Charge         Core      Valence    Rydberg      Total
 -----------------------------------------------------------------------
      C    1   -0.10116      0.99960     2.09245    0.00911     3.10116
      O    2   -0.27128      0.99985     3.26239    0.00904     4.27128
      C    3    0.16898      0.99935     1.81813    0.01355     2.83102
      C    4    0.01199      0.99942     1.97603    0.01256     2.98801
      C    5   -0.08486      0.99952     2.07604    0.00930     3.08486
      C    6   -0.13870      0.99952     2.12865    0.01053     3.13870
      C    7    0.10217      0.99951     1.88633    0.01200     2.89783
      C    8   -0.16336      0.99948     2.15395    0.00993     3.16336
      N    9   -0.38946      0.99971     2.87947    0.01028     3.88946
      N   10   -0.32132      0.99965     2.81188    0.00979     3.82132
      C   11    0.35003      0.99965     1.62682    0.02350     2.64997
      O   12   -0.31063      0.99987     3.30483    0.00593     4.31063
      C   13    0.02040      0.99951     1.96531    0.01478     2.97960
      C   14   -0.19995      0.99961     2.19112    0.00922     3.19995
      C   15   -0.18975      0.99963     2.18222    0.00790     3.18975
      C   16   -0.21069      0.99964     2.20376    0.00730     3.21069
      C   17   -0.00993      0.99959     1.99670    0.01364     3.00993
      O   18   -0.29165      0.99988     3.28294    0.00884     4.29165
      H   19    0.09365      0.00000     0.40542    0.00094     0.40635
      H   20    0.08838      0.00000     0.40996    0.00166     0.41162
      H   21    0.08779      0.00000     0.41059    0.00162     0.41221
      H   22    0.10277      0.00000     0.39623    0.00100     0.39723
      H   23    0.10314      0.00000     0.39575    0.00111     0.39686
      H   24    0.11129      0.00000     0.38620    0.00252     0.38871
      H   25    0.19306      0.00000     0.29571    0.01124     0.30694
      H   26    0.18999      0.00000     0.30265    0.00736     0.31001
      H   27    0.19363      0.00000     0.30398    0.00239     0.30637
      H   28    0.09503      0.00000     0.40269    0.00228     0.40497
      H   29    0.10449      0.00000     0.39433    0.00118     0.39551
      H   30    0.10074      0.00000     0.39835    0.00091     0.39926
      H   31    0.09739      0.00000     0.40143    0.00119     0.40261
      H   32    0.10015      0.00000     0.39890    0.00095     0.39985
      H   33    0.10121      0.00000     0.39793    0.00086     0.39879
      H   34    0.09795      0.00000     0.40076    0.00129     0.40205
      H   35    0.08731      0.00000     0.41171    0.00098     0.41269
      H   36    0.08124      0.00000     0.41769    0.00107     0.41876
 =======================================================================
   * Total *   -0.00000     17.99300    48.76926    0.23774    67.00000

 Normal termination of Gaussian 16 at Fri Dec 11 19:42:26 2020.
