 Gaussian 16, Revision A.03,

 -----------------------------------------------------------
 # opt freq B3LYP/6-31G(d) empiricaldispersion=gd3bj scf=xqc
 -----------------------------------------------------------

 -------------------------------
 CID_141267497_JID_2329_neutraal
 -------------------------------
 Symbolic Z-matrix:
 Charge =  0 Multiplicity = 1

 SCF Done:  E(RB3LYP) =  -578.283138975     A.U. after   14 cycles
 SCF Done:  E(RB3LYP) =  -578.286311532     A.U. after   13 cycles
 SCF Done:  E(RB3LYP) =  -578.286626754     A.U. after   11 cycles
 SCF Done:  E(RB3LYP) =  -578.286918412     A.U. after   11 cycles
 SCF Done:  E(RB3LYP) =  -578.287130120     A.U. after   10 cycles
 SCF Done:  E(RB3LYP) =  -578.287431030     A.U. after   12 cycles
 SCF Done:  E(RB3LYP) =  -578.287545284     A.U. after   12 cycles
 SCF Done:  E(RB3LYP) =  -578.287602314     A.U. after   11 cycles
 SCF Done:  E(RB3LYP) =  -578.287710623     A.U. after   12 cycles
 SCF Done:  E(RB3LYP) =  -578.288040994     A.U. after   13 cycles
 SCF Done:  E(RB3LYP) =  -578.293793023     A.U. after   11 cycles
 SCF Done:  E(RB3LYP) =  -578.293877252     A.U. after   11 cycles
 SCF Done:  E(RB3LYP) =  -578.293887572     A.U. after   10 cycles
 SCF Done:  E(RB3LYP) =  -578.293891360     A.U. after    9 cycles
 SCF Done:  E(RB3LYP) =  -578.293892213     A.U. after    8 cycles
 SCF Done:  E(RB3LYP) =  -578.293892314     A.U. after    7 cycles
 Optimization completed.
    -- Stationary point found.

 1\1\GINC-NODE352\FOpt\RB3LYP\6-31G(d)\C9H16O3\VSC10255\09-Dec-2020\0\\
 # opt freq B3LYP/6-31G(d) empiricaldispersion=gd3bj scf=xqc\\CID_14126
 7497_JID_2329_neutraal\\0,1\C,0.5498365704,0.0304142213,0.3205343477\C
 ,0.1743920232,-0.870005951,1.4997188342\C,1.1912303601,-0.8823242827,2
 .6643474162\C,1.141215518,0.4600783344,3.4591347157\C,-0.0781627526,0.
 390021141,4.3961416981\C,-0.430092159,-1.0964769035,4.3858707804\O,-1.
 5230580014,-1.5597533212,4.6531752831\C,0.6972931936,-1.8833910122,3.7
 571233993\O,0.279445998,-3.1520668838,3.329661308\O,-1.1719505574,1.14

 Normal termination of Gaussian 16 at Wed Dec  9 17:33:17 2020.

 --------------------------------------------------------------------
 #N Geom=AllCheck Guess=TCheck SCRF=Check GenChk RB3LYP/6-31G(d) Freq
 --------------------------------------------------------------------

 Structure from the checkpoint file:  "JID_2329.chk"
 -------------------------------
 CID_141267497_JID_2329_neutraal
 -------------------------------
 Charge =  0 Multiplicity = 1

 SCF Done:  E(RB3LYP) =  -578.293892314     A.U. after    1 cycles

  Exact polarizability: 108.884   0.408  94.437   3.378   1.340  92.182
 Approx polarizability: 144.826   2.110 137.113  10.497   6.702 140.983

                      1                      2                      3
                      A                      A                      A
 Frequencies --     72.7817                85.6626               127.9275
 Red. masses --      5.2755                 4.7654                 2.0673
 Frc consts  --      0.0165                 0.0206                 0.0199
 IR Inten    --      2.5733                 0.2383                 0.5768

                      4                      5                      6
                      A                      A                      A
 Frequencies --    129.4440               167.8778               208.4606
 Red. masses --      2.4349                 2.5525                 2.3742
 Frc consts  --      0.0240                 0.0424                 0.0608
 IR Inten    --      0.2053                 1.3839                 2.1367

                      7                      8                      9
                      A                      A                      A
 Frequencies --    222.8410               233.4796               258.9947
 Red. masses --      3.0321                 1.0882                 2.5812
 Frc consts  --      0.0887                 0.0350                 0.1020
 IR Inten    --      8.3715                 0.9190                 6.3880

                     10                     11                     12
                      A                      A                      A
 Frequencies --    293.9318               321.0464               328.7055
 Red. masses --      4.1509                 2.8795                 2.1904
 Frc consts  --      0.2113                 0.1749                 0.1394
 IR Inten    --     25.4962                 1.3381                 3.3986

                     13                     14                     15
                      A                      A                      A
 Frequencies --    342.7032               382.0990               388.3623
 Red. masses --      2.2119                 1.3317                 2.6645
 Frc consts  --      0.1531                 0.1146                 0.2368
 IR Inten    --     15.5545                48.2662                11.4555

                     16                     17                     18
                      A                      A                      A
 Frequencies --    410.1972               441.9671               505.0984
 Red. masses --      1.4552                 1.7281                 4.0936
 Frc consts  --      0.1443                 0.1989                 0.6153
 IR Inten    --    113.2359                21.4873                11.2633

                     19                     20                     21
                      A                      A                      A
 Frequencies --    556.6376               596.0686               640.6204
 Red. masses --      3.7944                 3.1351                 3.9075
 Frc consts  --      0.6927                 0.6563                 0.9448
 IR Inten    --      0.4804                 2.2465                 4.6755

                     22                     23                     24
                      A                      A                      A
 Frequencies --    698.3986               740.9292               794.4392
 Red. masses --      3.6045                 2.7063                 1.2917
 Frc consts  --      1.0359                 0.8754                 0.4803
 IR Inten    --      8.8655                 0.5049                 3.0790

                     25                     26                     27
                      A                      A                      A
 Frequencies --    817.7364               855.0101               936.8975
 Red. masses --      1.2263                 2.6391                 3.7825
 Frc consts  --      0.4831                 1.1367                 1.9562
 IR Inten    --      5.8434                 6.5125                13.3877

                     28                     29                     30
                      A                      A                      A
 Frequencies --    958.2999               972.0800               985.8148
 Red. masses --      1.6612                 2.4054                 2.3037
 Frc consts  --      0.8988                 1.3392                 1.3191
 IR Inten    --      4.8581                 2.2362                 2.4402

                     31                     32                     33
                      A                      A                      A
 Frequencies --   1024.1697              1053.3455              1058.7681
 Red. masses --      2.1065                 2.9144                 2.0411
 Frc consts  --      1.3018                 1.9052                 1.3481
 IR Inten    --      3.0156                97.8898                 9.0252

                     34                     35                     36
                      A                      A                      A
 Frequencies --   1067.8580              1101.0186              1115.4504
 Red. masses --      2.8681                 2.0417                 1.7757
 Frc consts  --      1.9269                 1.4583                 1.3018
 IR Inten    --     15.4364                 9.5048                30.9388

                     37                     38                     39
                      A                      A                      A
 Frequencies --   1139.9985              1184.6285              1204.9949
 Red. masses --      1.6211                 2.3054                 2.1806
 Frc consts  --      1.2413                 1.9062                 1.8655
 IR Inten    --     38.8316                 2.3735                24.4244

                     40                     41                     42
                      A                      A                      A
 Frequencies --   1212.5350              1241.8905              1252.5823
 Red. masses --      2.0810                 1.6094                 1.3743
 Frc consts  --      1.8027                 1.4624                 1.2704
 IR Inten    --      7.6025                30.4098                21.3701

                     43                     44                     45
                      A                      A                      A
 Frequencies --   1283.1804              1323.9685              1339.4099
 Red. masses --      1.5427                 1.2072                 1.2948
 Frc consts  --      1.4966                 1.2468                 1.3686
 IR Inten    --     12.3647                 4.8757                 8.6135

                     46                     47                     48
                      A                      A                      A
 Frequencies --   1346.2040              1372.0866              1388.2332
 Red. masses --      1.3624                 1.4576                 1.4952
 Frc consts  --      1.4547                 1.6168                 1.6978
 IR Inten    --     11.3555                10.7702                 5.5271

                     49                     50                     51
                      A                      A                      A
 Frequencies --   1390.1330              1409.8926              1419.5234
 Red. masses --      1.5247                 1.4477                 1.4534
 Frc consts  --      1.7359                 1.6955                 1.7255
 IR Inten    --      0.4661                42.5047                10.0883

                     52                     53                     54
                      A                      A                      A
 Frequencies --   1437.3532              1445.3014              1449.5561
 Red. masses --      1.4035                 1.2601                 1.2430
 Frc consts  --      1.7084                 1.5508                 1.5388
 IR Inten    --     49.0141                 3.9719                10.7189

                     55                     56                     57
                      A                      A                      A
 Frequencies --   1504.4172              1519.6010              1524.0301
 Red. masses --      1.0813                 1.0644                 1.0555
 Frc consts  --      1.4418                 1.4482                 1.4444
 IR Inten    --      3.5361                 2.0656                 6.1604

                     58                     59                     60
                      A                      A                      A
 Frequencies --   1532.0770              1535.3035              1538.4046
 Red. masses --      1.0696                 1.0418                 1.0426
 Frc consts  --      1.4792                 1.4468                 1.4538
 IR Inten    --      9.7555                 2.7842                 2.7382

                     61                     62                     63
                      A                      A                      A
 Frequencies --   1547.2782              1825.6498              2959.8165
 Red. masses --      1.0709                12.6566                 1.0803
 Frc consts  --      1.5105                24.8543                 5.5762
 IR Inten    --      1.3686               159.1011                23.0878

                     64                     65                     66
                      A                      A                      A
 Frequencies --   2992.5723              3025.3267              3053.6762
 Red. masses --      1.0825                 1.0641                 1.0445
 Frc consts  --      5.7117                 5.7384                 5.7386
 IR Inten    --     43.8431                29.1233                 7.1736

                     67                     68                     69
                      A                      A                      A
 Frequencies --   3055.4746              3059.4580              3063.1841
 Red. masses --      1.0587                 1.0420                 1.0910
 Frc consts  --      5.8237                 5.7468                 6.0317
 IR Inten    --     23.4984                20.7335                40.5325

                     70                     71                     72
                      A                      A                      A
 Frequencies --   3069.0599              3100.7748              3118.8084
 Red. masses --      1.0683                 1.0972                 1.1013
 Frc consts  --      5.9289                 6.2156                 6.3112
 IR Inten    --     31.6413                 2.2492                17.7490

                     73                     74                     75
                      A                      A                      A
 Frequencies --   3120.0760              3125.8074              3138.7955
 Red. masses --      1.1010                 1.1019                 1.0965
 Frc consts  --      6.3149                 6.3435                 6.3650
 IR Inten    --     73.3042                26.5302                11.4257

                     76                     77                     78
                      A                      A                      A
 Frequencies --   3141.7243              3634.0776              3688.4407
 Red. masses --      1.1017                 1.0654                 1.0656
 Frc consts  --      6.4070                 8.2897                 8.5412
 IR Inten    --     21.7118                45.4620                28.4717

 - Thermochemistry -
 -------------------
 Temperature   298.150 Kelvin.  Pressure   1.00000 Atm.
 Atom     1 has atomic number  6 and mass  12.00000

 Molecular mass:   172.10994 amu.
 Principal axes and moments of inertia in atomic units:
                           1         2         3
     Eigenvalues --  1418.920342271.922812827.44889
           X            0.99998   0.00325  -0.00616
           Y           -0.00347   0.99935  -0.03584
           Z            0.00604   0.03586   0.99934
 This molecule is an asymmetric top.
 Rotational symmetry number  1.
 Warning -- assumption of classical behavior for rotation
           may cause significant error
 Rotational temperatures (Kelvin)      0.06104     0.03812     0.03063
 Rotational constants (GHZ):           1.27191     0.79437     0.63829
 Zero-point vibrational energy     643653.3 (Joules/Mol)
                                  153.83683 (Kcal/Mol)
 Warning -- explicit consideration of  20 degrees of freedom as
           vibrations may cause significant error
 Vibrational temperatures:    104.72   123.25   184.06   186.24   241.54
          (Kelvin)            299.93   320.62   335.93   372.64   422.90
                              461.91   472.93   493.07   549.76   558.77
                              590.18   635.89   726.72   800.88   857.61
                              921.71  1004.84  1066.03  1143.02  1176.54
                             1230.17  1347.99  1378.78  1398.61  1418.37
                             1473.55  1515.53  1523.33  1536.41  1584.12
                             1604.88  1640.20  1704.42  1733.72  1744.57
                             1786.80  1802.19  1846.21  1904.90  1927.11
                             1936.89  1974.13  1997.36  2000.09  2028.52
                             2042.38  2068.03  2079.47  2085.59  2164.52
                             2186.37  2192.74  2204.32  2208.96  2213.42
                             2226.19  2626.70  4258.52  4305.64  4352.77
                             4393.56  4396.15  4401.88  4407.24  4415.69
                             4461.32  4487.27  4489.09  4497.34  4516.03
                             4520.24  5228.63  5306.84

 Zero-point correction=                           0.245155 (Hartree/Particle)
 Thermal correction to Energy=                    0.258069
 Thermal correction to Enthalpy=                  0.259013
 Thermal correction to Gibbs Free Energy=         0.207107
 Sum of electronic and zero-point Energies=           -578.048738
 Sum of electronic and thermal Energies=              -578.035824
 Sum of electronic and thermal Enthalpies=            -578.034879
 Sum of electronic and thermal Free Energies=         -578.086785

                     E (Thermal)             CV                S
                      KCal/Mol        Cal/Mol-Kelvin    Cal/Mol-Kelvin
 Total                  161.941             49.527            109.245
 Electronic               0.000              0.000              0.000
 Translational            0.889              2.981             41.336
 Rotational               0.889              2.981             30.589
 Vibrational            160.163             43.565             37.319
 Vibration     1          0.599              1.967              4.077
 Vibration     2          0.601              1.959              3.757
 Vibration     3          0.611              1.925              2.977
 Vibration     4          0.612              1.924              2.954
 Vibration     5          0.625              1.882              2.459
 Vibration     6          0.642              1.828              2.057
 Vibration     7          0.649              1.806              1.936
 Vibration     8          0.654              1.790              1.852
 Vibration     9          0.668              1.748              1.669
 Vibration    10          0.689              1.685              1.451
 Vibration    11          0.707              1.633              1.305
 Vibration    12          0.712              1.618              1.266
 Vibration    13          0.722              1.590              1.200
 Vibration    14          0.752              1.508              1.031
 Vibration    15          0.757              1.495              1.006
 Vibration    16          0.774              1.448              0.926
 Vibration    17          0.802              1.379              0.820
 Vibration    18          0.860              1.239              0.645
 Vibration    19          0.912              1.125              0.531
 Vibration    20          0.954              1.040              0.456

 Optimization completed.
    -- Stationary point found.

 1\1\GINC-NODE352\Freq\RB3LYP\6-31G(d)\C9H16O3\VSC10255\09-Dec-2020\0\\
 #N Geom=AllCheck Guess=TCheck SCRF=Check GenChk RB3LYP/6-31G(d) Freq\\
 CID_141267497_JID_2329_neutraal\\0,1\C,0.5498365704,0.0304142213,0.320
 5343477\C,0.1743920232,-0.870005951,1.4997188342\C,1.1912303601,-0.882
 3242827,2.6643474162\C,1.141215518,0.4600783344,3.4591347157\C,-0.0781
 627526,0.390021141,4.3961416981\C,-0.430092159,-1.0964769035,4.3858707
 804\O,-1.5230580014,-1.5597533212,4.6531752831\C,0.6972931936,-1.88339
 10122,3.7571233993\O,0.279445998,-3.1520668838,3.329661308\O,-1.171950

 Normal termination of Gaussian 16 at Wed Dec  9 17:41:27 2020.

 ----------------------------------------------------------------------
 # B3LYP/6-311++G(d,p) empiricaldispersion=gd3bj scf=xqc pop=npa geom=c
 heck
 ----------------------------------------------------------------------

 ---------------------------------------
 CID_141267497_JID_2329_Energie_neutraal
 ---------------------------------------
 Structure from the checkpoint file:  "JID_2329.chk"
 Charge =  0 Multiplicity = 1

 SCF Done:  E(RB3LYP) =  -578.478556535     A.U. after   15 cycles
 Normal termination of Gaussian 16 at Wed Dec  9 17:45:38 2020.

 ----------------------------------------------------------------------
 # B3LYP/6-311++G(d,p) empiricaldispersion=gd3bj scf=xqc pop=npa geom=c
 heck
 ----------------------------------------------------------------------

 -------------------------------------
 CID_141267497_JID_2329_Energie_kation
 -------------------------------------
 Structure from the checkpoint file:  "JID_2329.chk"
 Charge =  1 Multiplicity = 2

 SCF Done:  E(UB3LYP) =  -578.129360647     A.U. after   28 cycles
 Normal termination of Gaussian 16 at Wed Dec  9 17:52:57 2020.
 Gaussian 16:  ES64L-G16RevA.03 25-Dec-2016

 ------------------------------------
 CID_141267497_JID_2329_Energie_anion
 ------------------------------------
 Structure from the checkpoint file:  "JID_2329.chk"
 Charge = -1 Multiplicity = 2

                         Standard orientation:
 ---------------------------------------------------------------------
 Center     Atomic      Atomic             Coordinates (Angstroms)
 Number     Number       Type             X           Y           Z
 ---------------------------------------------------------------------
      1          6           0        1.421063    2.062162   -1.219922
      2          6           0        0.683531    0.726869   -1.096514
      3          6           0        0.601454    0.153828    0.337139
      4          6           0       -0.399688    0.976498    1.207289
      5          6           0       -1.818284    0.508151    0.835792
      6          6           0       -1.559869   -0.796325    0.083995
      7          8           0       -2.320700   -1.305910   -0.717324
      8          6           0       -0.125598   -1.227970    0.289187
      9          8           0        0.293004   -2.144806   -0.686027
     10          8           0       -2.468434    1.430947   -0.023779
     11          6           0        1.972641    0.057467    1.025775
     12          6           0        3.029553   -0.752640    0.268668
     13          1           0        0.972667    2.837289   -0.588482
     14          1           0        1.381059    2.421440   -2.253733
     15          1           0        2.476704    1.974690   -0.942516
     16          1           0       -0.336078    0.857860   -1.480633
     17          1           0        1.159351   -0.020858   -1.738534
     18          1           0       -0.213525    0.780151    2.269520
     19          1           0       -0.300611    2.053043    1.051393
     20          1           0       -2.431871    0.312021    1.730027
     21          1           0       -0.039943   -1.679936    1.294765
     22          1           0       -0.498987   -2.345988   -1.220613
     23          1           0       -3.106753    0.912743   -0.545838
     24          1           0        2.346854    1.073033    1.209826
     25          1           0        1.819521   -0.389251    2.018500
     26          1           0        3.284232   -0.287265   -0.689232
     27          1           0        3.950666   -0.823009    0.857531
     28          1           0        2.676936   -1.766052    0.056607
 ---------------------------------------------------------------------

 SCF Done:  E(UB3LYP) =  -578.474825285     A.U. after   30 cycles

 The electronic state is 2-A.
 Alpha  occ. eigenvalues --  -18.99733 -18.99556 -18.96320 -10.08745 -10.08696
 Alpha  occ. eigenvalues --  -10.07751 -10.05981 -10.05297 -10.04750 -10.04461
 Alpha  occ. eigenvalues --  -10.04386 -10.04253  -0.92018  -0.89972  -0.87900
 Alpha  occ. eigenvalues --   -0.72137  -0.64806  -0.63491  -0.57161  -0.55271
 Alpha  occ. eigenvalues --   -0.51187  -0.48548  -0.43742  -0.40987  -0.39394
 Alpha  occ. eigenvalues --   -0.36800  -0.36071  -0.33836  -0.32946  -0.32389
 Alpha  occ. eigenvalues --   -0.30172  -0.29537  -0.28078  -0.27456  -0.27046
 Alpha  occ. eigenvalues --   -0.25572  -0.24656  -0.23657  -0.23490  -0.23064
 Alpha  occ. eigenvalues --   -0.21884  -0.20611  -0.19891  -0.19610  -0.15722
 Alpha  occ. eigenvalues --   -0.14614  -0.11004   0.05295
 Alpha virt. eigenvalues --    0.07688   0.08718   0.09249   0.10086   0.10809
 Alpha virt. eigenvalues --    0.11152   0.11767   0.12020   0.12458   0.13091
 Alpha virt. eigenvalues --    0.14443   0.14630   0.15064   0.15824   0.16148

  Beta  occ. eigenvalues --  -18.99727 -18.99507 -18.95921 -10.08770 -10.08737
  Beta  occ. eigenvalues --  -10.07249 -10.05960 -10.05293 -10.04722 -10.04453
  Beta  occ. eigenvalues --  -10.04367 -10.04233  -0.91651  -0.89882  -0.87398
  Beta  occ. eigenvalues --   -0.72005  -0.64606  -0.63461  -0.57092  -0.54922
  Beta  occ. eigenvalues --   -0.51130  -0.48399  -0.43429  -0.40864  -0.39206
  Beta  occ. eigenvalues --   -0.36539  -0.35876  -0.33605  -0.32672  -0.32159
  Beta  occ. eigenvalues --   -0.30103  -0.29510  -0.27818  -0.27385  -0.26897
  Beta  occ. eigenvalues --   -0.25390  -0.24403  -0.23540  -0.23428  -0.22218
  Beta  occ. eigenvalues --   -0.21535  -0.20147  -0.19545  -0.19393  -0.15565
  Beta  occ. eigenvalues --   -0.14501  -0.10716
  Beta virt. eigenvalues --    0.07611   0.08834   0.09419   0.09710   0.11256
  Beta virt. eigenvalues --    0.11451   0.11772   0.12197   0.12259   0.13178
  Beta virt. eigenvalues --    0.13366   0.14666   0.14898   0.15026   0.15826

 Mulliken charges and spin densities:
               1          2
     1  C   -0.394833  -0.213289
     2  C   -0.451210  -0.300820
     3  C    1.007923   0.634865
     4  C    0.634289  -1.073501
     5  C   -0.160944  -0.237928
     6  C    0.252893   0.013160
     7  O   -0.424869   0.141137
     8  C   -0.639325  -0.121870
     9  O   -0.234573  -0.007938
    10  O   -0.217363  -0.009503
    11  C   -0.325761   0.109240
    12  C   -0.251088  -0.456773
    13  H    0.087320   0.053155
    14  H    0.120957  -0.005640
    15  H    0.126986   0.006095
    16  H    0.241663  -0.031467
    17  H    0.176410  -0.008513
    18  H   -0.289743   0.453435
    19  H    0.166552  -0.020163
    20  H   -0.528684   0.747456
    21  H   -0.268561   0.495224
    22  H    0.254866   0.000971
    23  H    0.210866   0.031468
    24  H    0.078206   0.055317
    25  H   -0.283414   0.427811
    26  H    0.044460   0.075433
    27  H   -0.112030   0.238129
    28  H    0.179006   0.004508
 Sum of Mulliken charges =  -1.00000   1.00000

 Dipole moment (field-independent basis, Debye):
    X=              3.3501    Y=              2.2102    Z=             -4.2021  Tot=              5.8108
 Quadrupole moment (field-independent basis, Debye-Ang):
   XX=           -113.1211   YY=           -101.8971   ZZ=           -104.6642
   XY=              3.7174   XZ=              1.4025   YZ=              0.1409

 Summary of Natural Population Analysis:

                                       Natural Population
                Natural  -----------------------------------------------
    Atom  No    Charge         Core      Valence    Rydberg      Total
 -----------------------------------------------------------------------
      C    1   -0.28496      0.99967     2.28075    0.00455     3.28496
      C    2   -0.19918      0.99958     2.19058    0.00901     3.19918
      C    3   -0.03489      0.99955     2.02085    0.01450     3.03489
      C    4   -0.19610      0.99959     2.18507    0.01144     3.19610
      C    5    0.02342      0.99951     1.96189    0.01518     2.97658
      C    6    0.34058      0.99963     1.63788    0.02192     2.65942
      O    7   -0.28623      0.99987     3.27887    0.00749     4.28623
      C    8    0.02090      0.99942     1.96203    0.01765     2.97910
      O    9   -0.37771      0.99989     3.37119    0.00664     4.37771
      O   10   -0.37341      0.99989     3.36668    0.00683     4.37341
      C   11   -0.18852      0.99959     2.17873    0.01020     3.18852
      C   12   -0.28973      0.99966     2.28407    0.00601     3.28973
      H   13    0.09595      0.00000     0.40311    0.00094     0.40405
      H   14    0.09429      0.00000     0.40481    0.00090     0.40571
      H   15    0.09264      0.00000     0.40646    0.00090     0.40736
      H   16    0.10780      0.00000     0.39091    0.00130     0.39220
      H   17    0.10280      0.00000     0.39608    0.00113     0.39720
      H   18    0.10507      0.00000     0.39270    0.00223     0.39493
      H   19    0.10406      0.00000     0.39485    0.00109     0.39594
      H   20    0.09090      0.00000     0.40429    0.00481     0.40910
      H   21    0.09640      0.00000     0.40036    0.00324     0.40360
      H   22    0.23717      0.00000     0.25969    0.00314     0.26283
      H   23    0.23326      0.00000     0.26380    0.00294     0.26674
      H   24    0.09141      0.00000     0.40753    0.00106     0.40859
      H   25    0.10054      0.00000     0.39800    0.00146     0.39946
      H   26    0.09236      0.00000     0.40687    0.00078     0.40764
      H   27    0.09321      0.00000     0.40607    0.00071     0.40679
      H   28    0.10797      0.00000     0.39091    0.00112     0.39203
 =======================================================================
   * Total *    0.00000     11.99584    34.84500    0.15915    47.00000

 Normal termination of Gaussian 16 at Wed Dec  9 18:00:37 2020.
