 Gaussian 16, Revision A.03,

 -----------------------------------------------------------
 # opt freq B3LYP/6-31G(d) empiricaldispersion=gd3bj scf=xqc
 -----------------------------------------------------------

 -------------------------------
 CID_61562770_JID_10778_neutraal
 -------------------------------
 Symbolic Z-matrix:
 Charge =  0 Multiplicity = 1

 SCF Done:  E(RB3LYP) =  -897.806924887     A.U. after   15 cycles
 SCF Done:  E(RB3LYP) =  -897.812268750     A.U. after   13 cycles
 SCF Done:  E(RB3LYP) =  -897.812592024     A.U. after   14 cycles
 SCF Done:  E(RB3LYP) =  -897.813283055     A.U. after   12 cycles
 SCF Done:  E(RB3LYP) =  -897.813742252     A.U. after   13 cycles
 SCF Done:  E(RB3LYP) =  -897.814008235     A.U. after   13 cycles
 SCF Done:  E(RB3LYP) =  -897.814096926     A.U. after   11 cycles
 SCF Done:  E(RB3LYP) =  -897.814111279     A.U. after   10 cycles
 SCF Done:  E(RB3LYP) =  -897.814116052     A.U. after    9 cycles
 SCF Done:  E(RB3LYP) =  -897.814117706     A.U. after    8 cycles
 SCF Done:  E(RB3LYP) =  -897.814118155     A.U. after    9 cycles
 Optimization completed.
    -- Stationary point found.
 Normal termination of Gaussian 16 at Sat Dec 12 16:28:52 2020.

 --------------------------------------------------------------------
 #N Geom=AllCheck Guess=TCheck SCRF=Check GenChk RB3LYP/6-31G(d) Freq
 --------------------------------------------------------------------

 Structure from the checkpoint file:  "JID_10778.chk"
 -------------------------------
 CID_61562770_JID_10778_neutraal
 -------------------------------
 Charge =  0 Multiplicity = 1

 SCF Done:  E(RB3LYP) =  -897.814118155     A.U. after    1 cycles

  Exact polarizability: 262.053  -3.576 166.437 -19.642  24.746 129.587
 Approx polarizability: 381.431 -14.724 257.334 -47.791  59.577 208.113

                      1                      2                      3
                      A                      A                      A
 Frequencies --     19.2051                36.4664                41.9356
 Red. masses --      5.0824                 3.1150                 5.8183
 Frc consts  --      0.0011                 0.0024                 0.0060
 IR Inten    --      0.3816                 0.1440                 0.2155

                      4                      5                      6
                      A                      A                      A
 Frequencies --     70.6168                71.2581                80.3997
 Red. masses --      2.2422                 2.4069                 4.0675
 Frc consts  --      0.0066                 0.0072                 0.0155
 IR Inten    --      0.7702                 0.3011                 0.6494

                      7                      8                      9
                      A                      A                      A
 Frequencies --     87.3938                98.2177               165.5680
 Red. masses --      5.2306                 5.3913                 4.8946
 Frc consts  --      0.0235                 0.0306                 0.0791
 IR Inten    --      1.5674                 1.2311                 0.7021

                     10                     11                     12
                      A                      A                      A
 Frequencies --    193.7786               206.4229               241.6402
 Red. masses --      3.2093                 3.0237                 3.1372
 Frc consts  --      0.0710                 0.0759                 0.1079
 IR Inten    --      1.1598                 1.5133                 0.2491

                     13                     14                     15
                      A                      A                      A
 Frequencies --    267.0053               269.2442               278.2158
 Red. masses --      3.7435                 1.4852                 4.5240
 Frc consts  --      0.1572                 0.0634                 0.2063
 IR Inten    --      0.6975                 0.8612                 1.5709

                     16                     17                     18
                      A                      A                      A
 Frequencies --    327.1585               349.6259               357.2856
 Red. masses --      2.9804                11.6079                 5.0236
 Frc consts  --      0.1880                 0.8360                 0.3778
 IR Inten    --      0.9222                 2.3803                 1.4661

                     19                     20                     21
                      A                      A                      A
 Frequencies --    370.0216               390.9126               416.6415
 Red. masses --      3.9645                 2.0280                 3.0177
 Frc consts  --      0.3198                 0.1826                 0.3086
 IR Inten    --      1.7206                 1.1435                 4.5193

                     22                     23                     24
                      A                      A                      A
 Frequencies --    451.1392               466.7964               470.9771
 Red. masses --      7.9964                 3.5986                 5.0158
 Frc consts  --      0.9589                 0.4620                 0.6555
 IR Inten    --      0.1819                 0.7677                 2.0235

                     25                     26                     27
                      A                      A                      A
 Frequencies --    511.6284               579.0817               585.4549
 Red. masses --      3.4540                 3.9036                 6.1110
 Frc consts  --      0.5327                 0.7712                 1.2341
 IR Inten    --      0.7718                 3.8404                 5.0365

                     28                     29                     30
                      A                      A                      A
 Frequencies --    620.3667               637.1338               666.5078
 Red. masses --      5.3721                 1.1437                 3.4518
 Frc consts  --      1.2181                 0.2735                 0.9035
 IR Inten    --      7.5096                 1.0851                 0.9833

                     31                     32                     33
                      A                      A                      A
 Frequencies --    686.6353               691.7872               730.0375
 Red. masses --      1.7008                 2.9219                 4.2592
 Frc consts  --      0.4725                 0.8239                 1.3374
 IR Inten    --    166.0442                51.1564                 4.9696

                     34                     35                     36
                      A                      A                      A
 Frequencies --    733.4670               769.0594               785.0012
 Red. masses --      6.3232                 2.1424                10.0879
 Frc consts  --      2.0042                 0.7466                 3.6626
 IR Inten    --      4.4566                 4.2961                 0.1391

                     37                     38                     39
                      A                      A                      A
 Frequencies --    790.6378               809.9671               815.9669
 Red. masses --      1.3463                 1.3890                 1.5375
 Frc consts  --      0.4958                 0.5369                 0.6031
 IR Inten    --      6.0298                66.7208                30.7892

                     40                     41                     42
                      A                      A                      A
 Frequencies --    831.3926               839.8168               849.0945
 Red. masses --      1.3019                 1.6413                 1.9488
 Frc consts  --      0.5302                 0.6820                 0.8278
 IR Inten    --      8.4381                 2.1696                 6.1966

                     43                     44                     45
                      A                      A                      A
 Frequencies --    888.9254               900.6216               915.0664
 Red. masses --      1.5239                 3.2895                 1.7583
 Frc consts  --      0.7095                 1.5720                 0.8675
 IR Inten    --     18.1875                 1.2389                 5.7098

                     46                     47                     48
                      A                      A                      A
 Frequencies --    929.7467               943.7208               960.5366
 Red. masses --      1.2908                 2.6255                 1.6794
 Frc consts  --      0.6574                 1.3777                 0.9129
 IR Inten    --      0.1253                 5.2219                26.1927

                     49                     50                     51
                      A                      A                      A
 Frequencies --    966.3841              1015.9324              1021.2918
 Red. masses --      2.7421                 2.0325                 2.4104
 Frc consts  --      1.5088                 1.2360                 1.4813
 IR Inten    --      1.8596                 2.5479                 4.3955

                     52                     53                     54
                      A                      A                      A
 Frequencies --   1062.6223              1070.2783              1087.1803
 Red. masses --      1.9183                 1.7517                 1.3646
 Frc consts  --      1.2762                 1.1822                 0.9503
 IR Inten    --      2.1486                 3.4485                 5.1498

                     55                     56                     57
                      A                      A                      A
 Frequencies --   1132.2785              1148.3387              1153.6981
 Red. masses --      1.7596                 1.7352                 1.1741
 Frc consts  --      1.3292                 1.3481                 0.9207
 IR Inten    --      9.1483                16.6762                 2.5351

                     58                     59                     60
                      A                      A                      A
 Frequencies --   1158.3041              1180.0709              1186.2542
 Red. masses --      2.6034                 1.4052                 1.8095
 Frc consts  --      2.0579                 1.1530                 1.5003
 IR Inten    --     31.0461                 2.3994                34.4331

                     61                     62                     63
                      A                      A                      A
 Frequencies --   1212.4313              1219.5581              1239.3743
 Red. masses --      1.4397                 1.8386                 3.7743
 Frc consts  --      1.2469                 1.6112                 3.4158
 IR Inten    --      3.6980                30.5970                11.0551

                     64                     65                     66
                      A                      A                      A
 Frequencies --   1242.7633              1273.3099              1277.9449
 Red. masses --      1.8923                 1.8602                 1.4531
 Frc consts  --      1.7219                 1.7770                 1.3982
 IR Inten    --      5.7774                 9.0888                19.8392

                     67                     68                     69
                      A                      A                      A
 Frequencies --   1285.0542              1293.8408              1307.2825
 Red. masses --      1.5757                 1.3167                 2.5604
 Frc consts  --      1.5331                 1.2987                 2.5781
 IR Inten    --     22.2113                 1.7515                 2.4062

                     70                     71                     72
                      A                      A                      A
 Frequencies --   1321.2385              1358.4008              1368.5425
 Red. masses --      1.4249                 1.6959                 3.6133
 Frc consts  --      1.4656                 1.8437                 3.9872
 IR Inten    --      2.0092                11.5489               303.1256

                     73                     74                     75
                      A                      A                      A
 Frequencies --   1378.2718              1386.5925              1407.0207
 Red. masses --      1.3840                 4.3106                 1.7922
 Frc consts  --      1.5491                 4.8830                 2.0905
 IR Inten    --     23.0795                48.0237                 5.2923

                     76                     77                     78
                      A                      A                      A
 Frequencies --   1419.3126              1441.4571              1447.3919
 Red. masses --      1.3837                 1.4423                 1.4686
 Frc consts  --      1.6423                 1.7657                 1.8128
 IR Inten    --      0.1048                 6.3073                 3.3939

                     79                     80                     81
                      A                      A                      A
 Frequencies --   1481.6850              1498.1811              1506.7830
 Red. masses --      2.1315                 1.0893                 1.1652
 Frc consts  --      2.7570                 1.4405                 1.5586
 IR Inten    --     31.9914                 1.1679                37.6917

                     82                     83                     84
                      A                      A                      A
 Frequencies --   1516.9080              1526.4687              1530.7336
 Red. masses --      1.1067                 1.0776                 1.1122
 Frc consts  --      1.5004                 1.4794                 1.5355
 IR Inten    --      9.7093                22.7518                 4.3770

                     85                     86                     87
                      A                      A                      A
 Frequencies --   1534.5109              1539.2020              1551.7281
 Red. masses --      2.9233                 1.3502                 1.0910
 Frc consts  --      4.0556                 1.8846                 1.5478
 IR Inten    --     28.5916                 7.3802                 3.4631

                     88                     89                     90
                      A                      A                      A
 Frequencies --   1571.5076              1657.5040              1680.7042
 Red. masses --      3.1031                 6.5598                 6.2602
 Frc consts  --      4.5153                10.6182                10.4189
 IR Inten    --     52.5919                 3.3770                15.9039

                     91                     92                     93
                      A                      A                      A
 Frequencies --   1818.0981              1819.1902              2958.7582
 Red. masses --      9.7113                 9.9678                 1.0728
 Frc consts  --     18.9131                19.4359                 5.5332
 IR Inten    --    116.4827              1054.1778                69.7898

                     94                     95                     96
                      A                      A                      A
 Frequencies --   3021.2862              3047.0834              3051.7485
 Red. masses --      1.0822                 1.0413                 1.0636
 Frc consts  --      5.8201                 5.6965                 5.8362
 IR Inten    --     16.0576                18.9463                49.6485

                     97                     98                     99
                      A                      A                      A
 Frequencies --   3061.1697              3085.6129              3112.8618
 Red. masses --      1.0844                 1.0999                 1.0987
 Frc consts  --      5.9871                 6.1701                 6.2726
 IR Inten    --     30.2752                29.7667                46.3154

                    100                    101                    102
                      A                      A                      A
 Frequencies --   3135.4152              3136.9212              3144.7816
 Red. masses --      1.1033                 1.0866                 1.0541
 Frc consts  --      6.3903                 6.3000                 6.1421
 IR Inten    --     27.0887                32.6270                22.4017

                    103                    104                    105
                      A                      A                      A
 Frequencies --   3156.5501              3187.0914              3206.2623
 Red. masses --      1.0583                 1.0877                 1.0933
 Frc consts  --      6.2126                 6.5096                 6.6220
 IR Inten    --      7.6776                 9.7018                13.7148

                    106                    107                    108
                      A                      A                      A
 Frequencies --   3217.8632              3221.1244              3239.9766
 Red. masses --      1.0896                 1.1187                 1.1157
 Frc consts  --      6.6473                 6.8387                 6.9006
 IR Inten    --      2.9125                 5.7478                16.1625

                    109                    110                    111
                      A                      A                      A
 Frequencies --   3477.1283              3582.0115              3583.2312
 Red. masses --      1.0728                 1.0767                 1.0765
 Frc consts  --      7.6422                 8.1395                 8.1433
 IR Inten    --      0.7254                55.1698                 0.6728

 - Thermochemistry -
 -------------------
 Temperature   298.150 Kelvin.  Pressure   1.00000 Atm.
 Atom     1 has atomic number  6 and mass  12.00000

 Molecular mass:   273.14773 amu.
 Principal axes and moments of inertia in atomic units:
                           1         2         3
     Eigenvalues --  3159.98319********************
           X            0.99989   0.01380   0.00575
           Y           -0.01376   0.99988  -0.00659
           Z           -0.00584   0.00651   0.99996
 This molecule is an asymmetric top.
 Rotational symmetry number  1.
 Warning -- assumption of classical behavior for rotation
           may cause significant error
 Rotational temperatures (Kelvin)      0.02741     0.00844     0.00744
 Rotational constants (GHZ):           0.57112     0.17593     0.15496
 Zero-point vibrational energy     862041.5 (Joules/Mol)
                                  206.03286 (Kcal/Mol)
 Warning -- explicit consideration of  28 degrees of freedom as
           vibrations may cause significant error
 Vibrational temperatures:     27.63    52.47    60.34   101.60   102.52
          (Kelvin)            115.68   125.74   141.31   238.22   278.80
                              297.00   347.67   384.16   387.38   400.29
                              470.71   503.03   514.05   532.38   562.44
                              599.45   649.09   671.62   677.63   736.12
                              833.17   842.34   892.57   916.69   958.96
                              987.92   995.33  1050.36  1055.30  1106.50
                             1129.44  1137.55  1165.36  1173.99  1196.19
                             1208.31  1221.66  1278.97  1295.79  1316.58
                             1337.70  1357.80  1382.00  1390.41  1461.70
                             1469.41  1528.88  1539.89  1564.21  1629.10
                             1652.20  1659.91  1666.54  1697.86  1706.76
                             1744.42  1754.67  1783.18  1788.06  1832.01
                             1838.68  1848.91  1861.55  1880.89  1900.97
                             1954.44  1969.03  1983.03  1995.00  2024.39
                             2042.07  2073.94  2082.47  2131.81  2155.55
                             2167.92  2182.49  2196.25  2202.38  2207.82
                             2214.57  2232.59  2261.05  2384.78  2418.16
                             2615.84  2617.41  4256.99  4346.96  4384.07
                             4390.79  4404.34  4439.51  4478.71  4511.16
                             4513.33  4524.64  4541.57  4585.51  4613.10
                             4629.79  4634.48  4661.60  5002.81  5153.72
                             5155.47

 Zero-point correction=                           0.328334 (Hartree/Particle)
 Thermal correction to Energy=                    0.346919
 Thermal correction to Enthalpy=                  0.347864
 Thermal correction to Gibbs Free Energy=         0.279703
 Sum of electronic and zero-point Energies=           -897.485784
 Sum of electronic and thermal Energies=              -897.467199
 Sum of electronic and thermal Enthalpies=            -897.466255
 Sum of electronic and thermal Free Energies=         -897.534415

                     E (Thermal)             CV                S
                      KCal/Mol        Cal/Mol-Kelvin    Cal/Mol-Kelvin
 Total                  217.695             71.536            143.456
 Electronic               0.000              0.000              0.000
 Translational            0.889              2.981             42.713
 Rotational               0.889              2.981             34.289
 Vibrational            215.918             65.575             66.453
 Vibration     1          0.593              1.986              6.715
 Vibration     2          0.594              1.982              5.442
 Vibration     3          0.595              1.980              5.165
 Vibration     4          0.598              1.968              4.136
 Vibration     5          0.598              1.968              4.118
 Vibration     6          0.600              1.962              3.881
 Vibration     7          0.601              1.958              3.718
 Vibration     8          0.604              1.950              3.489
 Vibration     9          0.624              1.885              2.485
 Vibration    10          0.635              1.849              2.191
 Vibration    11          0.641              1.831              2.075
 Vibration    12          0.658              1.777              1.791
 Vibration    13          0.672              1.734              1.616
 Vibration    14          0.674              1.730              1.601
 Vibration    15          0.679              1.714              1.545
 Vibration    16          0.711              1.621              1.274
 Vibration    17          0.727              1.576              1.168
 Vibration    18          0.732              1.560              1.134
 Vibration    19          0.742              1.534              1.080
 Vibration    20          0.759              1.490              0.997
 Vibration    21          0.780              1.434              0.903
 Vibration    22          0.810              1.358              0.792
 Vibration    23          0.824              1.324              0.747
 Vibration    24          0.828              1.314              0.735
 Vibration    25          0.867              1.224              0.630
 Vibration    26          0.936              1.077              0.487
 Vibration    27          0.942              1.063              0.475
 Vibration    28          0.980              0.989              0.416

                           ! Non-Optimized Parameters !
 Normal termination of Gaussian 16 at Sat Dec 12 16:48:07 2020.

 ----------------------------------------------------------------------
 # B3LYP/6-311++G(d,p) empiricaldispersion=gd3bj scf=xqc pop=npa geom=c
 heck
 ----------------------------------------------------------------------

 ---------------------------------------
 CID_61562770_JID_10778_Energie_neutraal
 ---------------------------------------
 Structure from the checkpoint file:  "JID_10778.chk"
 Charge =  0 Multiplicity = 1

 SCF Done:  E(RB3LYP) =  -898.066808443     A.U. after   16 cycles
 Normal termination of Gaussian 16 at Sat Dec 12 16:56:16 2020.

 ----------------------------------------------------------------------
 # B3LYP/6-311++G(d,p) empiricaldispersion=gd3bj scf=xqc pop=npa geom=c
 heck
 ----------------------------------------------------------------------

 -------------------------------------
 CID_61562770_JID_10778_Energie_kation
 -------------------------------------
 Structure from the checkpoint file:  "JID_10778.chk"
 Charge =  1 Multiplicity = 2

 SCF Done:  E(UB3LYP) =  -897.780214228     A.U. after   25 cycles
 Normal termination of Gaussian 16 at Sat Dec 12 17:13:17 2020.
 Gaussian 16:  ES64L-G16RevA.03 25-Dec-2016

 ----------------------------------------------------------------------
 # B3LYP/6-311++G(d,p) empiricaldispersion=gd3bj scf=xqc pop=npa geom=c
 heck
 ----------------------------------------------------------------------

 ------------------------------------
 CID_61562770_JID_10778_Energie_anion
 ------------------------------------
 Structure from the checkpoint file:  "JID_10778.chk"
 Charge = -1 Multiplicity = 2

                         Standard orientation:
 ---------------------------------------------------------------------
 Center     Atomic      Atomic             Coordinates (Angstroms)
 Number     Number       Type             X           Y           Z
 ---------------------------------------------------------------------
      1          6           0        4.160949    3.183025    0.145643
      2          6           0        3.948746    1.852203   -0.569281
      3          7           0        2.612301    1.332557   -0.285223
      4          6           0        2.275796    0.077830   -0.959531
      5          6           0        3.102763   -1.140670   -0.459697
      6          6           0        3.058381   -1.337477    1.041509
      7          6           0        1.859214   -1.970746    1.708941
      8          6           0        3.165603   -2.720804    1.635192
      9          6           0        0.774738   -0.186852   -0.882592
     10          6           0       -0.079597    0.687126   -0.213899
     11          6           0       -1.448860    0.426554   -0.128665
     12          6           0       -1.988231   -0.718813   -0.730967
     13          6           0       -1.141641   -1.585790   -1.425810
     14          6           0        0.220694   -1.320264   -1.498989
     15          7           0       -3.360975   -0.940607   -0.618128
     16          6           0       -4.269637   -0.134227    0.036805
     17          8           0       -5.455549   -0.394002    0.093143
     18          6           0       -3.682341    1.121886    0.690582
     19          8           0       -4.376145    1.914795    1.296265
     20          7           0       -2.319624    1.283892    0.544403
     21          1           0        3.391911    3.903185   -0.150538
     22          1           0        5.145707    3.600399   -0.089583
     23          1           0        4.105771    3.056781    1.234406
     24          1           0        4.021884    1.996974   -1.654646
     25          1           0        4.758746    1.153824   -0.291720
     26          1           0        2.514835    1.200304    0.721023
     27          1           0        2.526483    0.227050   -2.019567
     28          1           0        2.749136   -2.050898   -0.957265
     29          1           0        4.145538   -1.010881   -0.775941
     30          1           0        3.556823   -0.555563    1.612947
     31          1           0        1.539748   -1.583627    2.672402
     32          1           0        1.044169   -2.300048    1.072581
     33          1           0        3.231755   -3.560337    0.947644
     34          1           0        3.742480   -2.848938    2.546631
     35          1           0        0.324595    1.593747    0.222751
     36          1           0       -1.558362   -2.465534   -1.908914
     37          1           0        0.857619   -2.005625   -2.049421
     38          1           0       -3.763210   -1.765487   -1.049337
     39          1           0       -1.943454    2.119554    0.978482
 ---------------------------------------------------------------------

 SCF Done:  E(UB3LYP) =  -898.073450523     A.U. after   33 cycles
 SCF Done:  E(UB3LYP) =  -898.073450523     a.u. after    1 cycles

 The electronic state is 2-A.
 Alpha  occ. eigenvalues --  -18.95970 -18.95956 -14.24278 -14.24115 -14.20870
 Alpha  occ. eigenvalues --  -10.13839 -10.13816 -10.11859 -10.11807 -10.11417
 Alpha  occ. eigenvalues --  -10.10753 -10.09429 -10.08911 -10.08412 -10.08240
 Alpha  occ. eigenvalues --  -10.07803 -10.07602 -10.07375 -10.06992 -10.06415
 Alpha  occ. eigenvalues --   -0.93312  -0.90306  -0.85688  -0.82677  -0.81134
 Alpha  occ. eigenvalues --   -0.77599  -0.74775  -0.68804  -0.64837  -0.64233
 Alpha  occ. eigenvalues --   -0.63051  -0.57001  -0.55997  -0.53332  -0.52164
 Alpha  occ. eigenvalues --   -0.51749  -0.50559  -0.47712  -0.45339  -0.43090
 Alpha  occ. eigenvalues --   -0.41892  -0.41384  -0.40748  -0.38974  -0.38706
 Alpha  occ. eigenvalues --   -0.36994  -0.35846  -0.34857  -0.33955  -0.33552
 Alpha  occ. eigenvalues --   -0.33153  -0.32051  -0.31039  -0.29971  -0.29427
 Alpha  occ. eigenvalues --   -0.28933  -0.28381  -0.28142  -0.27819  -0.27814
 Alpha  occ. eigenvalues --   -0.26750  -0.26551  -0.25158  -0.24621  -0.21598
 Alpha  occ. eigenvalues --   -0.20355  -0.19999  -0.19541  -0.15673  -0.14107
 Alpha  occ. eigenvalues --   -0.13645  -0.12774  -0.10329   0.03620
 Alpha virt. eigenvalues --    0.04985   0.06360   0.06458   0.07375   0.08160
 Alpha virt. eigenvalues --    0.08382   0.08679   0.08721   0.09360   0.09903
 Alpha virt. eigenvalues --    0.10061   0.10814   0.11059   0.11602   0.12027

  Beta  occ. eigenvalues --  -18.95655 -18.95650 -14.24256 -14.24086 -14.20866
  Beta  occ. eigenvalues --  -10.13626 -10.13603 -10.11881 -10.11828 -10.11419
  Beta  occ. eigenvalues --  -10.10732 -10.09421 -10.08904 -10.08411 -10.08225
  Beta  occ. eigenvalues --  -10.07783 -10.07582 -10.07262 -10.06970 -10.06298
  Beta  occ. eigenvalues --   -0.92831  -0.89826  -0.85488  -0.82662  -0.80955
  Beta  occ. eigenvalues --   -0.77589  -0.74641  -0.68753  -0.64679  -0.64126
  Beta  occ. eigenvalues --   -0.62996  -0.56555  -0.55910  -0.53190  -0.52062
  Beta  occ. eigenvalues --   -0.51725  -0.50346  -0.47669  -0.45253  -0.42971
  Beta  occ. eigenvalues --   -0.41815  -0.41347  -0.40488  -0.38927  -0.38632
  Beta  occ. eigenvalues --   -0.36959  -0.35803  -0.34267  -0.33759  -0.33466
  Beta  occ. eigenvalues --   -0.33074  -0.31992  -0.30922  -0.29688  -0.29212
  Beta  occ. eigenvalues --   -0.28739  -0.28335  -0.28020  -0.27211  -0.27106
  Beta  occ. eigenvalues --   -0.26699  -0.26375  -0.25037  -0.24582  -0.21443
  Beta  occ. eigenvalues --   -0.20287  -0.19332  -0.18592  -0.15377  -0.14061
  Beta  occ. eigenvalues --   -0.12882  -0.12421  -0.09699
  Beta virt. eigenvalues --    0.05480   0.06388   0.06641   0.07421   0.08173
  Beta virt. eigenvalues --    0.08306   0.08468   0.08788   0.09417   0.09759
  Beta virt. eigenvalues --    0.09946   0.10368   0.10850   0.11122   0.11556

 Mulliken charges and spin densities:
               1          2
     1  C    0.255876  -0.807961
     2  C    0.059857  -0.086049
     3  N   -0.011325   0.047055
     4  C   -0.148100   0.013240
     5  C    0.125298  -0.447395
     6  C   -0.258821   0.248499
     7  C   -0.308013  -0.108601
     8  C   -0.196845  -0.273334
     9  C    0.336506   0.033712
    10  C   -0.518439   0.109950
    11  C    0.212409   0.020601
    12  C    0.488444  -0.021878
    13  C   -0.609012   0.111446
    14  C   -0.767679   0.002648
    15  N   -0.247736  -0.007263
    16  C    0.119655   0.146609
    17  O   -0.393508   0.109801
    18  C    0.024739   0.139328
    19  O   -0.386834   0.106800
    20  N   -0.210272  -0.003709
    21  H    0.104497   0.044113
    22  H   -0.159083   0.293278
    23  H   -0.083654   0.210595
    24  H   -0.135286   0.266153
    25  H   -0.066159   0.177126
    26  H    0.257633  -0.086820
    27  H    0.176820   0.009282
    28  H    0.105476   0.024901
    29  H   -0.094908   0.251542
    30  H   -0.039634   0.273091
    31  H    0.148141   0.005252
    32  H    0.180894  -0.009892
    33  H    0.099796   0.017178
    34  H    0.013041   0.125436
    35  H    0.153233   0.021285
    36  H    0.119788  -0.000629
    37  H    0.059395   0.043387
    38  H    0.305491  -0.001981
    39  H    0.288318   0.003206
 Sum of Mulliken charges =  -1.00000   1.00000

 Dipole moment (field-independent basis, Debye):
    X=              7.2798    Y=             -4.1403    Z=             -2.0952  Tot=              8.6329
 Quadrupole moment (field-independent basis, Debye-Ang):
   XX=           -254.8596   YY=           -144.8034   ZZ=           -137.5034
   XY=              5.5730   XZ=             11.9666   YZ=              2.1311

 Summary of Natural Population Analysis:

                                       Natural Population
                Natural  -----------------------------------------------
    Atom  No    Charge         Core      Valence    Rydberg      Total
 -----------------------------------------------------------------------
      C    1   -0.28584      0.99967     2.28171    0.00446     3.28584
      C    2   -0.08565      0.99964     2.07528    0.01073     3.08565
      N    3   -0.34258      0.99974     2.83162    0.01122     3.84258
      C    4   -0.00838      0.99956     1.99608    0.01274     3.00838
      C    5   -0.19545      0.99960     2.18532    0.01054     3.19545
      C    6   -0.12261      0.99959     2.11131    0.01171     3.12261
      C    7   -0.19874      0.99962     2.19069    0.00843     3.19874
      C    8   -0.19828      0.99962     2.19096    0.00769     3.19828
      C    9   -0.01826      0.99950     2.00763    0.01113     3.01826
      C   10   -0.09524      0.99948     2.08804    0.00773     3.09524
      C   11    0.06943      0.99946     1.92076    0.01036     2.93057
      C   12    0.06249      0.99946     1.92830    0.00975     2.93751
      C   13   -0.09514      0.99955     2.08763    0.00796     3.09514
      C   14   -0.11021      0.99952     2.10284    0.00784     3.11021
      N   15   -0.29925      0.99965     2.79072    0.00888     3.79925
      C   16    0.31660      0.99969     1.65578    0.02792     2.68340
      O   17   -0.27651      0.99988     3.26930    0.00733     4.27651
      C   18    0.35403      0.99969     1.62467    0.02161     2.64597
      O   19   -0.28268      0.99988     3.27287    0.00993     4.28268
      N   20   -0.30478      0.99966     2.79424    0.01088     3.80478
      H   21    0.09977      0.00000     0.39901    0.00121     0.40023
      H   22    0.09912      0.00000     0.39991    0.00097     0.40088
      H   23    0.09425      0.00000     0.40451    0.00124     0.40575
      H   24    0.08979      0.00000     0.40894    0.00128     0.41021
      H   25    0.07871      0.00000     0.41952    0.00177     0.42129
      H   26    0.17052      0.00000     0.32635    0.00313     0.32948
      H   27    0.09634      0.00000     0.40190    0.00177     0.40366
      H   28    0.09968      0.00000     0.39923    0.00109     0.40032
      H   29    0.10039      0.00000     0.39851    0.00110     0.39961
      H   30    0.10124      0.00000     0.39753    0.00122     0.39876
      H   31    0.10090      0.00000     0.39817    0.00093     0.39910
      H   32    0.10974      0.00000     0.38908    0.00118     0.39026
      H   33    0.09849      0.00000     0.40071    0.00080     0.40151
      H   34    0.10008      0.00000     0.39916    0.00076     0.39992
      H   35    0.10618      0.00000     0.39236    0.00147     0.39382
      H   36    0.09447      0.00000     0.40423    0.00130     0.40553
      H   37    0.09474      0.00000     0.40390    0.00136     0.40526
      H   38    0.19033      0.00000     0.30636    0.00332     0.30967
      H   39    0.19288      0.00000     0.30456    0.00256     0.30712
 =======================================================================
   * Total *    0.00057     19.99243    52.75970    0.24729    72.99943

 Normal termination of Gaussian 16 at Sat Dec 12 17:36:26 2020.
