 Gaussian 16, Revision A.03,

 -----------------------------------------------------------
 # opt freq B3LYP/6-31G(d) empiricaldispersion=gd3bj scf=xqc
 -----------------------------------------------------------

 -------------------------------
 CID_138520206_JID_3533_neutraal
 -------------------------------
 Symbolic Z-matrix:
 Charge =  0 Multiplicity = 1

 SCF Done:  E(RB3LYP) =  -632.414829665     A.U. after   15 cycles
 SCF Done:  E(RB3LYP) =  -632.418789942     A.U. after   12 cycles
 SCF Done:  E(RB3LYP) =  -632.418829287     A.U. after   12 cycles
 SCF Done:  E(RB3LYP) =  -632.419273361     A.U. after   12 cycles
 SCF Done:  E(RB3LYP) =  -632.419549554     A.U. after   11 cycles
 SCF Done:  E(RB3LYP) =  -632.419714551     A.U. after   12 cycles
 SCF Done:  E(RB3LYP) =  -632.420140572     A.U. after   11 cycles
 SCF Done:  E(RB3LYP) =  -632.419879833     A.U. after   13 cycles
 SCF Done:  E(RB3LYP) =  -632.421361397     A.U. after   11 cycles
 SCF Done:  E(RB3LYP) =  -632.421937979     A.U. after   11 cycles
 SCF Done:  E(RB3LYP) =  -632.422503357     A.U. after   10 cycles
 SCF Done:  E(RB3LYP) =  -632.422509588     A.U. after   10 cycles
 SCF Done:  E(RB3LYP) =  -632.422510682     A.U. after    8 cycles
 SCF Done:  E(RB3LYP) =  -632.422510895     A.U. after    8 cycles
 SCF Done:  E(RB3LYP) =  -632.422510972     A.U. after    7 cycles
 Optimization completed.
    -- Stationary point found.
 Normal termination of Gaussian 16 at Wed Dec  9 23:39:00 2020.

 --------------------------------------------------------------------
 #N Geom=AllCheck Guess=TCheck SCRF=Check GenChk RB3LYP/6-31G(d) Freq
 --------------------------------------------------------------------

 Structure from the checkpoint file:  "JID_3533.chk"
 -------------------------------
 CID_138520206_JID_3533_neutraal
 -------------------------------
 Charge =  0 Multiplicity = 1

 SCF Done:  E(RB3LYP) =  -632.422510972     A.U. after    1 cycles

  Exact polarizability: 114.053  -1.002 124.531   6.819   0.843  76.830
 Approx polarizability: 149.568 -11.667 183.475  15.069  -6.141 120.040

                      1                      2                      3
                      A                      A                      A
 Frequencies --     31.6582                47.9188                69.5541
 Red. masses --      4.2569                 4.3631                 4.3130
 Frc consts  --      0.0025                 0.0059                 0.0123
 IR Inten    --      1.1202                 0.3145                 2.7662

                      4                      5                      6
                      A                      A                      A
 Frequencies --     82.2121               128.5048               133.5133
 Red. masses --      3.4172                 2.9465                 5.0843
 Frc consts  --      0.0136                 0.0287                 0.0534
 IR Inten    --      0.4629                 0.6157                 1.3968

                      7                      8                      9
                      A                      A                      A
 Frequencies --    157.3946               223.9888               241.3713
 Red. masses --      2.7512                 2.9415                 1.9458
 Frc consts  --      0.0402                 0.0869                 0.0668
 IR Inten    --      1.7702                 7.7472                 1.3406

                     10                     11                     12
                      A                      A                      A
 Frequencies --    250.9798               292.7745               370.8345
 Red. masses --      1.5118                 2.9597                 2.2783
 Frc consts  --      0.0561                 0.1495                 0.1846
 IR Inten    --      1.7028                 2.5049                 7.8180

                     13                     14                     15
                      A                      A                      A
 Frequencies --    395.3472               439.2252               467.2415
 Red. masses --      2.7591                 2.0644                 2.1247
 Frc consts  --      0.2541                 0.2346                 0.2733
 IR Inten    --      8.5063                 2.1250                 4.5277

                     16                     17                     18
                      A                      A                      A
 Frequencies --    497.6172               526.7417               533.4190
 Red. masses --      1.7550                 2.5702                 3.1080
 Frc consts  --      0.2561                 0.4202                 0.5210
 IR Inten    --      2.7870                 3.8175                 6.5864

                     19                     20                     21
                      A                      A                      A
 Frequencies --    631.6851               657.9567               725.9898
 Red. masses --      3.1835                 3.6857                 6.3777
 Frc consts  --      0.7484                 0.9401                 1.9805
 IR Inten    --      2.6638                 8.8614                16.5791

                     22                     23                     24
                      A                      A                      A
 Frequencies --    801.4530               820.9612               834.1769
 Red. masses --      2.9596                 4.0690                 3.0909
 Frc consts  --      1.1200                 1.6158                 1.2672
 IR Inten    --     12.0594                25.5154                 3.5282

                     25                     26                     27
                      A                      A                      A
 Frequencies --    851.9855               897.7948               904.4010
 Red. masses --      4.6251                 2.3856                 2.7306
 Frc consts  --      1.9780                 1.1329                 1.3159
 IR Inten    --     13.3563                 5.7508                16.4506

                     28                     29                     30
                      A                      A                      A
 Frequencies --    933.9821               966.0558               989.3225
 Red. masses --      1.6043                 2.0839                 2.4471
 Frc consts  --      0.8245                 1.1459                 1.4112
 IR Inten    --     30.7564                27.7294                10.4909

                     31                     32                     33
                      A                      A                      A
 Frequencies --    990.8217              1015.3224              1035.6657
 Red. masses --      1.5536                 1.9330                 1.0828
 Frc consts  --      0.8986                 1.1741                 0.6843
 IR Inten    --     42.9208                 7.7912                17.7385

                     34                     35                     36
                      A                      A                      A
 Frequencies --   1071.2055              1075.9783              1094.5953
 Red. masses --      2.5980                 2.0020                 3.1042
 Frc consts  --      1.7564                 1.3656                 2.1913
 IR Inten    --    114.3312                30.4789                28.9448

                     37                     38                     39
                      A                      A                      A
 Frequencies --   1101.9215              1123.2678              1136.7005
 Red. masses --      3.2144                 1.8597                 1.9775
 Frc consts  --      2.2996                 1.3825                 1.5054
 IR Inten    --     81.3322                25.0130                31.8198

                     40                     41                     42
                      A                      A                      A
 Frequencies --   1189.7272              1203.2568              1244.5851
 Red. masses --      2.2402                 1.8168                 1.2128
 Frc consts  --      1.8682                 1.5498                 1.1068
 IR Inten    --      2.5004                 9.5316                 1.6762

                     43                     44                     45
                      A                      A                      A
 Frequencies --   1301.2057              1321.9524              1328.4485
 Red. masses --      2.8820                 1.3473                 1.2755
 Frc consts  --      2.8750                 1.3872                 1.3263
 IR Inten    --    255.8615                 3.9947                 9.3921

                     46                     47                     48
                      A                      A                      A
 Frequencies --   1330.3795              1355.4801              1367.6207
 Red. masses --      1.3127                 1.2572                 1.4548
 Frc consts  --      1.3689                 1.3610                 1.6031
 IR Inten    --     67.5732                14.7383                26.4829

                     49                     50                     51
                      A                      A                      A
 Frequencies --   1373.0168              1390.9651              1408.9453
 Red. masses --      1.4093                 1.2954                 1.2989
 Frc consts  --      1.5654                 1.4766                 1.5192
 IR Inten    --      8.7927                25.2644                13.0853

                     52                     53                     54
                      A                      A                      A
 Frequencies --   1423.9406              1435.5686              1436.6588
 Red. masses --      1.2922                 1.2931                 1.2789
 Frc consts  --      1.5438                 1.5701                 1.5552
 IR Inten    --      3.8682                 3.9874                 7.9104

                     55                     56                     57
                      A                      A                      A
 Frequencies --   1460.6057              1502.5490              1505.4690
 Red. masses --      1.2654                 1.1056                 1.0881
 Frc consts  --      1.5906                 1.4706                 1.4529
 IR Inten    --     25.2122                13.1957                13.2496

                     58                     59                     60
                      A                      A                      A
 Frequencies --   1515.9496              1521.8533              1529.4889
 Red. masses --      1.0492                 1.0727                 1.0633
 Frc consts  --      1.4207                 1.4637                 1.4656
 IR Inten    --      2.4659                 4.8747                 3.4573

                     61                     62                     63
                      A                      A                      A
 Frequencies --   1553.6622              1704.9842              1804.4081
 Red. masses --      1.1061                 4.5502                10.1387
 Frc consts  --      1.5731                 7.7933                19.4492
 IR Inten    --      0.5872                14.7854               223.3631

                     64                     65                     66
                      A                      A                      A
 Frequencies --   3008.3628              3040.3199              3047.3580
 Red. masses --      1.0704                 1.0661                 1.0420
 Frc consts  --      5.7076                 5.8059                 5.7015
 IR Inten    --     84.8827                24.1757                46.6321

                     67                     68                     69
                      A                      A                      A
 Frequencies --   3059.5406              3084.0634              3099.9919
 Red. masses --      1.0668                 1.0867                 1.0617
 Frc consts  --      5.8838                 6.0900                 6.0116
 IR Inten    --     23.6790                20.0483                17.0909

                     70                     71                     72
                      A                      A                      A
 Frequencies --   3113.4000              3116.3106              3122.2678
 Red. masses --      1.1002                 1.0974                 1.0977
 Frc consts  --      6.2831                 6.2788                 6.3047
 IR Inten    --     40.5037                 6.6265                43.6172

                     73                     74                     75
                      A                      A                      A
 Frequencies --   3132.5666              3151.1919              3172.4436
 Red. masses --      1.1019                 1.0951                 1.1063
 Frc consts  --      6.3706                 6.4072                 6.5602
 IR Inten    --     29.3786                19.2061                 8.4419

                     76                     77                     78
                      A                      A                      A
 Frequencies --   3179.8662              3214.4727              3268.2497
 Red. masses --      1.0589                 1.0941                 1.1160
 Frc consts  --      6.3083                 6.6607                 7.0231
 IR Inten    --      4.9339                 3.9146                 6.4963

 - Thermochemistry -
 -------------------
 Temperature   298.150 Kelvin.  Pressure   1.00000 Atm.
 Atom     1 has atomic number  6 and mass  12.00000

 Molecular mass:   185.10519 amu.
 Principal axes and moments of inertia in atomic units:
                           1         2         3
     Eigenvalues --  1470.408733171.011614094.49160
           X            0.99999   0.00155  -0.00357
           Y           -0.00149   0.99988   0.01512
           Z            0.00360  -0.01511   0.99988
 This molecule is an asymmetric top.
 Rotational symmetry number  1.
 Warning -- assumption of classical behavior for rotation
           may cause significant error
 Rotational temperatures (Kelvin)      0.05890     0.02731     0.02115
 Rotational constants (GHZ):           1.22737     0.56914     0.44077
 Zero-point vibrational energy     631464.8 (Joules/Mol)
                                  150.92370 (Kcal/Mol)
 Warning -- explicit consideration of  18 degrees of freedom as
           vibrations may cause significant error
 Vibrational temperatures:     45.55    68.94   100.07   118.28   184.89
          (Kelvin)            192.10   226.46   322.27   347.28   361.10
                              421.24   533.55   568.82   631.95   672.26
                              715.96   757.86   767.47   908.85   946.65
                             1044.54  1153.11  1181.18  1200.19  1225.82
                             1291.73  1301.23  1343.79  1389.94  1423.41
                             1425.57  1460.82  1490.09  1541.23  1548.09
                             1574.88  1585.42  1616.13  1635.46  1711.75
                             1731.22  1790.68  1872.14  1901.99  1911.34
                             1914.12  1950.23  1967.70  1975.46  2001.29
                             2027.16  2048.73  2065.46  2067.03  2101.49
                             2161.83  2166.03  2181.11  2189.61  2200.59
                             2235.37  2453.09  2596.14  4328.36  4374.34
                             4384.47  4402.00  4437.28  4460.20  4479.49
                             4483.68  4492.25  4507.06  4533.86  4564.44
                             4575.12  4624.91  4702.28

 Zero-point correction=                           0.240512 (Hartree/Particle)
 Thermal correction to Energy=                    0.253687
 Thermal correction to Enthalpy=                  0.254631
 Thermal correction to Gibbs Free Energy=         0.199612
 Sum of electronic and zero-point Energies=           -632.181999
 Sum of electronic and thermal Energies=              -632.168824
 Sum of electronic and thermal Enthalpies=            -632.167880
 Sum of electronic and thermal Free Energies=         -632.222899

                     E (Thermal)             CV                S
                      KCal/Mol        Cal/Mol-Kelvin    Cal/Mol-Kelvin
 Total                  159.191             48.642            115.797
 Electronic               0.000              0.000              0.000
 Translational            0.889              2.981             41.553
 Rotational               0.889              2.981             31.324
 Vibrational            157.414             42.681             42.920
 Vibration     1          0.594              1.983              5.723
 Vibration     2          0.595              1.978              4.901
 Vibration     3          0.598              1.969              4.166
 Vibration     4          0.600              1.961              3.837
 Vibration     5          0.611              1.925              2.968
 Vibration     6          0.613              1.920              2.895
 Vibration     7          0.621              1.894              2.581
 Vibration     8          0.649              1.805              1.927
 Vibration     9          0.658              1.777              1.793
 Vibration    10          0.663              1.761              1.724
 Vibration    11          0.688              1.687              1.458
 Vibration    12          0.743              1.532              1.076
 Vibration    13          0.762              1.480              0.980
 Vibration    14          0.799              1.385              0.829
 Vibration    15          0.825              1.323              0.745
 Vibration    16          0.853              1.255              0.664
 Vibration    17          0.882              1.191              0.595
 Vibration    18          0.888              1.176              0.580

 Optimization completed.
    -- Stationary point found.
 Normal termination of Gaussian 16 at Wed Dec  9 23:46:22 2020.

 ----------------------------------------------------------------------
 # B3LYP/6-311++G(d,p) empiricaldispersion=gd3bj scf=xqc pop=npa geom=c
 heck
 ----------------------------------------------------------------------

 ---------------------------------------
 CID_138520206_JID_3533_Energie_neutraal
 ---------------------------------------
 Structure from the checkpoint file:  "JID_3533.chk"
 Charge =  0 Multiplicity = 1

 SCF Done:  E(RB3LYP) =  -632.606043512     A.U. after   14 cycles
 Normal termination of Gaussian 16 at Wed Dec  9 23:49:32 2020.

 ----------------------------------------------------------------------
 # B3LYP/6-311++G(d,p) empiricaldispersion=gd3bj scf=xqc pop=npa geom=c
 heck
 ----------------------------------------------------------------------

 -------------------------------------
 CID_138520206_JID_3533_Energie_kation
 -------------------------------------
 Structure from the checkpoint file:  "JID_3533.chk"
 Charge =  1 Multiplicity = 2

 SCF Done:  E(UB3LYP) =  -632.294757683     A.U. after   23 cycles
 Normal termination of Gaussian 16 at Wed Dec  9 23:56:55 2020.
 Gaussian 16:  ES64L-G16RevA.03 25-Dec-2016

 ----------------------------------------------------------------------
 # B3LYP/6-311++G(d,p) empiricaldispersion=gd3bj scf=xqc pop=npa geom=c
 heck
 ----------------------------------------------------------------------

 ------------------------------------
 CID_138520206_JID_3533_Energie_anion
 ------------------------------------
 Structure from the checkpoint file:  "JID_3533.chk"
 Charge = -1 Multiplicity = 2

                         Standard orientation:
 ---------------------------------------------------------------------
 Center     Atomic      Atomic             Coordinates (Angstroms)
 Number     Number       Type             X           Y           Z
 ---------------------------------------------------------------------
      1          6           0       -2.626535    2.167539    0.083018
      2          6           0       -1.648572    1.027074   -0.162643
      3          6           0       -1.224486    0.277827    1.137014
      4          7           0       -1.385909   -1.150205    0.835103
      5          6           0       -2.454149   -1.130130   -0.137110
      6          8           0       -2.245387    0.006856   -0.985326
      7          6           0       -0.180299   -1.867370    0.414220
      8          6           0        0.549618   -1.403131   -0.852794
      9          8           0        1.230146   -0.142802   -0.652188
     10          6           0        2.431311   -0.202771   -0.031816
     11          8           0        2.969934   -1.238989    0.306586
     12          6           0        3.022951    1.135653    0.204392
     13          6           0        2.440012    2.291310   -0.123379
     14          1           0       -2.936738    2.622759   -0.862453
     15          1           0       -2.164728    2.944137    0.705542
     16          1           0       -3.522442    1.803729    0.599121
     17          1           0       -0.770099    1.390652   -0.704287
     18          1           0       -0.202489    0.505244    1.443086
     19          1           0       -1.900366    0.548978    1.958737
     20          1           0       -3.419930   -1.031740    0.381757
     21          1           0       -2.466915   -2.030403   -0.757135
     22          1           0        0.529222   -1.861244    1.247043
     23          1           0       -0.466336   -2.915058    0.259141
     24          1           0        1.286039   -2.154760   -1.148150
     25          1           0       -0.146356   -1.209152   -1.669187
     26          1           0        3.993728    1.099679    0.689450
     27          1           0        2.921009    3.242573    0.084625
     28          1           0        1.471120    2.319523   -0.611003
 ---------------------------------------------------------------------

 SCF Done:  E(UB3LYP) =  -632.606301661     A.U. after   33 cycles
 SCF Done:  E(UB3LYP) =  -632.606301661     a.u. after    1 cycles

 The electronic state is 2-A.
 Alpha  occ. eigenvalues --  -19.01928 -19.01410 -18.94442 -14.20392 -10.13449
 Alpha  occ. eigenvalues --  -10.12858 -10.10929 -10.10198 -10.08717 -10.08557
 Alpha  occ. eigenvalues --  -10.05730 -10.01794 -10.01292  -0.95683  -0.94148
 Alpha  occ. eigenvalues --   -0.86462  -0.80600  -0.67204  -0.65347  -0.62284
 Alpha  occ. eigenvalues --   -0.58543  -0.55618  -0.49577  -0.47916  -0.46652
 Alpha  occ. eigenvalues --   -0.42890  -0.40331  -0.38135  -0.36802  -0.35627
 Alpha  occ. eigenvalues --   -0.33734  -0.33445  -0.32200  -0.31163  -0.30467
 Alpha  occ. eigenvalues --   -0.29445  -0.28895  -0.28032  -0.27101  -0.26231
 Alpha  occ. eigenvalues --   -0.25530  -0.24417  -0.22399  -0.21921  -0.21263
 Alpha  occ. eigenvalues --   -0.17507  -0.15295  -0.13820  -0.12815  -0.12013
 Alpha  occ. eigenvalues --    0.05013
 Alpha virt. eigenvalues --    0.06858   0.07865   0.09089   0.09699   0.10273
 Alpha virt. eigenvalues --    0.11139   0.11368   0.11742   0.12413   0.13058
 Alpha virt. eigenvalues --    0.13885   0.14319   0.15244   0.15337   0.15718

  Beta  occ. eigenvalues --  -19.01893 -19.01409 -18.94127 -14.20392 -10.13434
  Beta  occ. eigenvalues --  -10.12627 -10.10926 -10.10200 -10.08704 -10.08548
  Beta  occ. eigenvalues --  -10.05706 -10.01677 -10.00904  -0.95456  -0.94136
  Beta  occ. eigenvalues --   -0.86005  -0.80591  -0.67183  -0.65119  -0.61822
  Beta  occ. eigenvalues --   -0.58502  -0.55478  -0.49390  -0.47795  -0.46008
  Beta  occ. eigenvalues --   -0.42765  -0.40228  -0.38096  -0.36737  -0.35480
  Beta  occ. eigenvalues --   -0.33596  -0.33289  -0.31896  -0.31012  -0.30354
  Beta  occ. eigenvalues --   -0.29391  -0.28821  -0.27806  -0.26460  -0.26054
  Beta  occ. eigenvalues --   -0.25355  -0.24353  -0.22190  -0.21878  -0.21140
  Beta  occ. eigenvalues --   -0.16657  -0.15278  -0.12545  -0.12084  -0.11575
  Beta virt. eigenvalues --    0.07233   0.08252   0.09355   0.09730   0.10279
  Beta virt. eigenvalues --    0.10906   0.11235   0.11573   0.11802   0.12447
  Beta virt. eigenvalues --    0.13286   0.13825   0.14304   0.15192   0.15413

 Mulliken charges and spin densities:
               1          2
     1  C    0.610268  -1.248906
     2  C   -1.374084   1.228438
     3  C    0.370233  -0.663490
     4  N   -0.020556   0.134987
     5  C    0.256119  -0.626489
     6  O   -0.077442   0.017414
     7  C   -0.237376  -0.187782
     8  C   -0.180246   0.048363
     9  O   -0.026713  -0.000297
    10  C   -0.191262   0.157523
    11  O   -0.355054   0.099179
    12  C    0.178222   0.003494
    13  C   -0.701669   0.420487
    14  H    0.015261   0.125595
    15  H   -0.133675   0.278808
    16  H   -0.137366   0.274368
    17  H    0.295250  -0.001651
    18  H    0.147075   0.008308
    19  H    0.024667   0.176568
    20  H   -0.226186   0.385081
    21  H    0.041918   0.120089
    22  H    0.197221   0.017644
    23  H   -0.116060   0.237753
    24  H    0.168331   0.009685
    25  H    0.182365   0.015737
    26  H    0.141952  -0.005421
    27  H    0.069500   0.003541
    28  H    0.079307  -0.029029
 Sum of Mulliken charges =  -1.00000   1.00000

 Dipole moment (field-independent basis, Debye):
    X=             -2.5812    Y=             -1.3832    Z=             -1.1508  Tot=              3.1465
 Quadrupole moment (field-independent basis, Debye-Ang):
   XX=           -135.9551   YY=           -108.9526   ZZ=            -96.3217
   XY=              2.7660   XZ=              1.5499   YZ=              1.4356

 Summary of Natural Population Analysis:

                                       Natural Population
                Natural  -----------------------------------------------
    Atom  No    Charge         Core      Valence    Rydberg      Total
 -----------------------------------------------------------------------
      C    1   -0.29478      0.99964     2.28896    0.00618     3.29478
      C    2    0.04645      0.99958     1.93991    0.01406     2.95355
      C    3   -0.10152      0.99961     2.09058    0.01133     3.10152
      N    4   -0.27877      0.99974     2.76588    0.01315     3.77877
      C    5    0.07428      0.99962     1.90975    0.01636     2.92572
      O    6   -0.31269      0.99989     3.30509    0.00771     4.31269
      C    7   -0.09858      0.99960     2.08653    0.01245     3.09858
      C    8   -0.03357      0.99956     2.02146    0.01255     3.03357
      O    9   -0.29364      0.99986     3.28418    0.00960     4.29364
      C   10    0.41216      0.99966     1.56464    0.02354     2.58784
      O   11   -0.29956      0.99987     3.29450    0.00519     4.29956
      C   12   -0.14146      0.99953     2.13244    0.00950     3.14146
      C   13   -0.09139      0.99959     2.08320    0.00859     3.09139
      H   14    0.10022      0.00000     0.39885    0.00092     0.39978
      H   15    0.10117      0.00000     0.39772    0.00111     0.39883
      H   16    0.09637      0.00000     0.40224    0.00139     0.40363
      H   17    0.09796      0.00000     0.40049    0.00155     0.40204
      H   18    0.11234      0.00000     0.38649    0.00117     0.38766
      H   19    0.09067      0.00000     0.40808    0.00125     0.40933
      H   20    0.07832      0.00000     0.42029    0.00139     0.42168
      H   21    0.08667      0.00000     0.41216    0.00117     0.41333
      H   22    0.10756      0.00000     0.39144    0.00100     0.39244
      H   23    0.09420      0.00000     0.40479    0.00102     0.40580
      H   24    0.09648      0.00000     0.40217    0.00136     0.40352
      H   25    0.09451      0.00000     0.40428    0.00122     0.40549
      H   26    0.09033      0.00000     0.40797    0.00171     0.40967
      H   27    0.07983      0.00000     0.41900    0.00117     0.42017
      H   28    0.08646      0.00000     0.41217    0.00137     0.41354
 =======================================================================
   * Total *   -0.00000     12.99575    36.83527    0.16898    50.00000

 Normal termination of Gaussian 16 at Thu Dec 10 00:07:28 2020.
