 Gaussian 16, Revision A.03,

 -----------------------------------------------------------
 # opt freq B3LYP/6-31G(d) empiricaldispersion=gd3bj scf=xqc
 -----------------------------------------------------------

 -----------------------------
 CID_3034695_JID_8620_neutraal
 -----------------------------
 Symbolic Z-matrix:
 Charge =  0 Multiplicity = 1

 SCF Done:  E(RB3LYP) =  -1162.03453610     A.U. after   15 cycles
 SCF Done:  E(RB3LYP) =  -1162.04157989     A.U. after   13 cycles
 SCF Done:  E(RB3LYP) =  -1162.04250975     A.U. after   12 cycles
 SCF Done:  E(RB3LYP) =  -1162.04271048     A.U. after   11 cycles
 SCF Done:  E(RB3LYP) =  -1162.04264357     A.U. after   11 cycles
 SCF Done:  E(RB3LYP) =  -1162.04276962     A.U. after   11 cycles
 SCF Done:  E(RB3LYP) =  -1162.04278214     A.U. after   10 cycles
 SCF Done:  E(RB3LYP) =  -1162.04279070     A.U. after   10 cycles
 SCF Done:  E(RB3LYP) =  -1162.04279382     A.U. after   10 cycles
 SCF Done:  E(RB3LYP) =  -1162.04279478     A.U. after    9 cycles
 SCF Done:  E(RB3LYP) =  -1162.04279498     A.U. after    7 cycles
 SCF Done:  E(RB3LYP) =  -1162.04279502     A.U. after    7 cycles
 SCF Done:  E(RB3LYP) =  -1162.04279503     A.U. after    7 cycles
 Optimization completed.
    -- Stationary point found.
 Normal termination of Gaussian 16 at Sun Dec 13 20:09:34 2020.

 --------------------------------------------------------------------
 #N Geom=AllCheck Guess=TCheck SCRF=Check GenChk RB3LYP/6-31G(d) Freq
 --------------------------------------------------------------------

 Structure from the checkpoint file:  "JID_8620.chk"
 -----------------------------
 CID_3034695_JID_8620_neutraal
 -----------------------------
 Charge =  0 Multiplicity = 1

 SCF Done:  E(RB3LYP) =  -1162.04279503     A.U. after    1 cycles

  Exact polarizability: 192.277   6.349 182.832   2.387 -19.685 124.767
 Approx polarizability: 253.928  15.390 323.791   0.653 -56.217 206.217

                      1                      2                      3
                      A                      A                      A
 Frequencies --     15.6908                36.4884                46.8973
 Red. masses --      6.9035                 5.5726                 6.3164
 Frc consts  --      0.0010                 0.0044                 0.0082
 IR Inten    --      1.6348                 4.2126                 4.3029

                      4                      5                      6
                      A                      A                      A
 Frequencies --     72.4818               107.4277               119.8314
 Red. masses --      5.8628                 2.7083                 4.3709
 Frc consts  --      0.0181                 0.0184                 0.0370
 IR Inten    --      1.2177                 1.1801                 1.1203

                      7                      8                      9
                      A                      A                      A
 Frequencies --    140.7082               159.1359               190.8373
 Red. masses --      1.2612                 3.8723                 6.2807
 Frc consts  --      0.0147                 0.0578                 0.1348
 IR Inten    --      0.0325                 0.7452                 6.6523

                     10                     11                     12
                      A                      A                      A
 Frequencies --    205.7751               214.4941               225.4946
 Red. masses --      4.9361                 4.4183                 3.6998
 Frc consts  --      0.1231                 0.1198                 0.1108
 IR Inten    --      1.7512                 0.3999                 1.0117

                     13                     14                     15
                      A                      A                      A
 Frequencies --    261.7215               276.2911               301.2996
 Red. masses --      1.0762                 3.8217                 4.9229
 Frc consts  --      0.0434                 0.1719                 0.2633
 IR Inten    --      0.2459                 1.2375                 4.3750

                     16                     17                     18
                      A                      A                      A
 Frequencies --    338.9541               363.1577               388.8832
 Red. masses --      4.1280                 4.6732                 5.1522
 Frc consts  --      0.2794                 0.3631                 0.4591
 IR Inten    --     22.2050                 0.5055                 4.7696

                     19                     20                     21
                      A                      A                      A
 Frequencies --    433.8607               450.6586               512.3387
 Red. masses --      3.5021                 4.6227                 5.8887
 Frc consts  --      0.3884                 0.5531                 0.9107
 IR Inten    --      0.3675                 2.1723                 5.3412

                     22                     23                     24
                      A                      A                      A
 Frequencies --    526.1432               540.1044               554.8948
 Red. masses --      1.7077                 5.1115                 3.9938
 Frc consts  --      0.2785                 0.8785                 0.7245
 IR Inten    --     46.2405                10.3877                 4.4199

                     25                     26                     27
                      A                      A                      A
 Frequencies --    618.8089               636.9010               668.8770
 Red. masses --      2.6867                 4.4113                 1.9546
 Frc consts  --      0.6061                 1.0543                 0.5152
 IR Inten    --      4.8577                 2.0674                73.7923

                     28                     29                     30
                      A                      A                      A
 Frequencies --    683.7220               692.7625               702.3640
 Red. masses --      3.9188                 5.1862                 2.2724
 Frc consts  --      1.0793                 1.4665                 0.6605
 IR Inten    --      3.3125                18.2810                20.9238

                     31                     32                     33
                      A                      A                      A
 Frequencies --    723.8885               766.8445               790.8929
 Red. masses --      1.9496                 4.9674                 1.2183
 Frc consts  --      0.6019                 1.7211                 0.4490
 IR Inten    --     43.2578                 9.9094                 1.2389

                     34                     35                     36
                      A                      A                      A
 Frequencies --    801.4646               826.9254               878.3783
 Red. masses --      4.3351                 1.7527                 4.2055
 Frc consts  --      1.6407                 0.7061                 1.9118
 IR Inten    --      2.0789                 3.7309                 5.9190

                     37                     38                     39
                      A                      A                      A
 Frequencies --    933.2485               937.6214               949.1315
 Red. masses --      5.2387                 1.4210                 1.4389
 Frc consts  --      2.6883                 0.7360                 0.7637
 IR Inten    --      6.3824                 1.0279                 5.3410

                     40                     41                     42
                      A                      A                      A
 Frequencies --    988.6774               997.0626              1025.2607
 Red. masses --      1.3176                 2.1504                 5.8551
 Frc consts  --      0.7588                 1.2596                 3.6262
 IR Inten    --      0.7201                16.7764                 2.9032

                     43                     44                     45
                      A                      A                      A
 Frequencies --   1029.1951              1060.9879              1089.3717
 Red. masses --      4.3968                 1.6951                 1.7445
 Frc consts  --      2.7440                 1.1242                 1.2198
 IR Inten    --     26.8660                 3.8038                 4.4821

                     46                     47                     48
                      A                      A                      A
 Frequencies --   1121.1997              1128.2716              1143.3243
 Red. masses --      1.8365                 1.4859                 2.0190
 Frc consts  --      1.3602                 1.1144                 1.5550
 IR Inten    --     21.6455                14.7624                17.9887

                     49                     50                     51
                      A                      A                      A
 Frequencies --   1151.4005              1184.6501              1186.5749
 Red. masses --      2.0658                 2.9783                 1.2735
 Frc consts  --      1.6136                 2.4626                 1.0564
 IR Inten    --     33.0287                20.8860                 0.8591

                     52                     53                     54
                      A                      A                      A
 Frequencies --   1211.3778              1221.0502              1235.9230
 Red. masses --      1.1500                 1.5346                 2.4321
 Frc consts  --      0.9943                 1.3481                 2.1888
 IR Inten    --     25.1833                 6.3078               210.9504

                     55                     56                     57
                      A                      A                      A
 Frequencies --   1238.3370              1256.8134              1299.0008
 Red. masses --      2.7317                 2.5548                 4.3534
 Frc consts  --      2.4681                 2.3777                 4.3281
 IR Inten    --     51.8307                16.6994               166.6901

                     58                     59                     60
                      A                      A                      A
 Frequencies --   1322.8364              1334.4870              1364.0125
 Red. masses --      3.6276                 1.8218                 1.6331
 Frc consts  --      3.7401                 1.9115                 1.7902
 IR Inten    --    384.5691                33.9111                 5.5853

                     61                     62                     63
                      A                      A                      A
 Frequencies --   1384.1168              1424.9509              1436.6211
 Red. masses --      2.9918                 1.5417                 1.5572
 Frc consts  --      3.3769                 1.8444                 1.8935
 IR Inten    --     10.8249                13.7138                45.5299

                     64                     65                     66
                      A                      A                      A
 Frequencies --   1447.0408              1486.5404              1497.3029
 Red. masses --      1.8975                 1.7896                 1.6770
 Frc consts  --      2.3410                 2.3301                 2.2151
 IR Inten    --     24.5779                13.5296                29.8843

                     67                     68                     69
                      A                      A                      A
 Frequencies --   1508.1193              1512.0541              1519.4493
 Red. masses --      1.6149                 1.0481                 1.4303
 Frc consts  --      2.1641                 1.4119                 1.9456
 IR Inten    --    153.2505                 5.7877                55.8683

                     70                     71                     72
                      A                      A                      A
 Frequencies --   1525.3189              1538.1626              1547.9538
 Red. masses --      1.0502                 2.3368                 1.0834
 Frc consts  --      1.4397                 3.2574                 1.5295
 IR Inten    --      8.5094                 4.0855                 5.3153

                     73                     74                     75
                      A                      A                      A
 Frequencies --   1631.8920              1648.5892              1666.7173
 Red. masses --      4.2756                 5.5762                 5.8614
 Frc consts  --      6.7086                 8.9291                 9.5935
 IR Inten    --     17.7421                 6.3451                20.1578

                     76                     77                     78
                      A                      A                      A
 Frequencies --   1798.6778              3068.1141              3072.4353
 Red. masses --     11.6258                 1.0484                 1.0725
 Frc consts  --     22.1606                 5.8148                 5.9650
 IR Inten    --    194.7731                14.2266                22.9893

                     79                     80                     81
                      A                      A                      A
 Frequencies --   3074.7518              3136.1164              3148.4101
 Red. masses --      1.0296                 1.1034                 1.1074
 Frc consts  --      5.7349                 6.3939                 6.4674
 IR Inten    --     40.8262                26.3713                21.6263

                     82                     83                     84
                      A                      A                      A
 Frequencies --   3169.7785              3181.5908              3201.7881
 Red. masses --      1.1012                 1.1070                 1.0891
 Frc consts  --      6.5187                 6.6023                 6.5781
 IR Inten    --      2.7540                18.2504                12.6625

                     85                     86                     87
                      A                      A                      A
 Frequencies --   3204.9879              3236.2245              3246.2174
 Red. masses --      1.0899                 1.0923                 1.0924
 Frc consts  --      6.5960                 6.7401                 6.7822
 IR Inten    --      2.0276                 4.6913                 3.1577

                     88                     89                     90
                      A                      A                      A
 Frequencies --   3295.6574              3317.5761              3669.0569
 Red. masses --      1.0911                 1.1082                 1.0811
 Frc consts  --      6.9822                 7.1865                 8.5745
 IR Inten    --      1.9852                 0.0541                88.0828

 - Thermochemistry -
 -------------------
 Temperature   298.150 Kelvin.  Pressure   1.00000 Atm.
 Atom     1 has atomic number  6 and mass  12.00000

 Molecular mass:   262.07760 amu.
 Principal axes and moments of inertia in atomic units:
                           1         2         3
     Eigenvalues --  2742.048098288.380699324.49742
           X            0.99990   0.00097   0.01410
           Y           -0.00130   0.99972   0.02369
           Z           -0.01407  -0.02371   0.99962
 This molecule is an asymmetric top.
 Rotational symmetry number  1.
 Warning -- assumption of classical behavior for rotation
           may cause significant error
 Rotational temperatures (Kelvin)      0.03159     0.01045     0.00929
 Rotational constants (GHZ):           0.65817     0.21774     0.19355
 Zero-point vibrational energy     671592.1 (Joules/Mol)
                                  160.51436 (Kcal/Mol)
 Warning -- explicit consideration of  25 degrees of freedom as
           vibrations may cause significant error
 Vibrational temperatures:     22.58    52.50    67.47   104.29   154.56
          (Kelvin)            172.41   202.45   228.96   274.57   296.06
                              308.61   324.44   376.56   397.52   433.50
                              487.68   522.50   559.52   624.23   648.40
                              737.14   757.00   777.09   798.37   890.33
                              916.36   962.36   983.72   996.73  1010.55
                             1041.51  1103.32  1137.92  1153.13  1189.76
                             1263.79  1342.74  1349.03  1365.59  1422.49
                             1434.55  1475.12  1480.78  1526.52  1567.36
                             1613.16  1623.33  1644.99  1656.61  1704.45
                             1707.22  1742.90  1756.82  1778.22  1781.69
                             1808.27  1868.97  1903.27  1920.03  1962.51
                             1991.44  2050.19  2066.98  2081.97  2138.80
                             2154.28  2169.85  2175.51  2186.15  2194.59
                             2213.07  2227.16  2347.93  2371.95  2398.03
                             2587.90  4414.33  4420.55  4423.88  4512.17
                             4529.86  4560.60  4577.60  4606.66  4611.26
                             4656.21  4670.58  4741.72  4773.25  5278.95

 Zero-point correction=                           0.255796 (Hartree/Particle)
 Thermal correction to Energy=                    0.272537
 Thermal correction to Enthalpy=                  0.273481
 Thermal correction to Gibbs Free Energy=         0.209443
 Sum of electronic and zero-point Energies=          -1161.786999
 Sum of electronic and thermal Energies=             -1161.770258
 Sum of electronic and thermal Enthalpies=           -1161.769314
 Sum of electronic and thermal Free Energies=        -1161.833352

                     E (Thermal)             CV                S
                      KCal/Mol        Cal/Mol-Kelvin    Cal/Mol-Kelvin
 Total                  171.019             62.826            134.778
 Electronic               0.000              0.000              0.000
 Translational            0.889              2.981             42.590
 Rotational               0.889              2.981             33.716
 Vibrational            169.242             56.865             58.473
 Vibration     1          0.593              1.986              7.116
 Vibration     2          0.594              1.982              5.441
 Vibration     3          0.595              1.979              4.944
 Vibration     4          0.599              1.967              4.085
 Vibration     5          0.606              1.943              3.315
 Vibration     6          0.609              1.933              3.103
 Vibration     7          0.615              1.913              2.794
 Vibration     8          0.621              1.892              2.560
 Vibration     9          0.634              1.853              2.220
 Vibration    10          0.640              1.832              2.081
 Vibration    11          0.644              1.819              2.005
 Vibration    12          0.650              1.802              1.915
 Vibration    13          0.669              1.743              1.650
 Vibration    14          0.678              1.717              1.557
 Vibration    15          0.693              1.671              1.410
 Vibration    16          0.719              1.598              1.217
 Vibration    17          0.737              1.548              1.109
 Vibration    18          0.757              1.494              1.004
 Vibration    19          0.795              1.396              0.846
 Vibration    20          0.809              1.359              0.794
 Vibration    21          0.867              1.223              0.628
 Vibration    22          0.881              1.192              0.596
 Vibration    23          0.895              1.161              0.565
 Vibration    24          0.910              1.129              0.534
 Vibration    25          0.979              0.992              0.418

 Optimization completed.
    -- Stationary point found.
 Normal termination of Gaussian 16 at Sun Dec 13 20:22:28 2020.

 ----------------------------------------------------------------------
 # B3LYP/6-311++G(d,p) empiricaldispersion=gd3bj scf=xqc pop=npa geom=c
 heck
 ----------------------------------------------------------------------

 -------------------------------------
 CID_3034695_JID_8620_Energie_neutraal
 -------------------------------------
 Structure from the checkpoint file:  "JID_8620.chk"
 Charge =  0 Multiplicity = 1

 SCF Done:  E(RB3LYP) =  -1162.27822373     A.U. after   16 cycles
 Normal termination of Gaussian 16 at Sun Dec 13 20:28:48 2020.

 ----------------------------------------------------------------------
 # B3LYP/6-311++G(d,p) empiricaldispersion=gd3bj scf=xqc pop=npa geom=c
 heck
 ----------------------------------------------------------------------

 -----------------------------------
 CID_3034695_JID_8620_Energie_kation
 -----------------------------------
 Structure from the checkpoint file:  "JID_8620.chk"
 Charge =  1 Multiplicity = 2

 SCF Done:  E(UB3LYP) =  -1162.01222395     A.U. after   25 cycles
 Normal termination of Gaussian 16 at Sun Dec 13 20:42:56 2020.
 Gaussian 16:  ES64L-G16RevA.03 25-Dec-2016

 ----------------------------------------------------------------------
 # B3LYP/6-311++G(d,p) empiricaldispersion=gd3bj scf=xqc pop=npa geom=c
 heck
 ----------------------------------------------------------------------

 ----------------------------------
 CID_3034695_JID_8620_Energie_anion
 ----------------------------------
 Structure from the checkpoint file:  "JID_8620.chk"
 Charge = -1 Multiplicity = 2

                         Standard orientation:
 ---------------------------------------------------------------------
 Center     Atomic      Atomic             Coordinates (Angstroms)
 Number     Number       Type             X           Y           Z
 ---------------------------------------------------------------------
      1          6           0        2.401662    1.281435    1.996294
      2          6           0        1.443555    0.234390    1.428600
      3          6           0        0.175896    0.771940    0.778476
      4          6           0       -0.936849   -0.065634    0.708816
      5          6           0       -2.124497    0.361665    0.108205
      6          6           0       -2.204384    1.652526   -0.429907
      7          6           0       -1.097399    2.493068   -0.360600
      8          6           0        0.087447    2.057953    0.236072
      9          6           0       -3.263731   -0.592224    0.077367
     10          8           0       -3.236451   -1.716352    0.541625
     11          8           0       -4.355189   -0.074059   -0.531370
     12          6           0       -5.488439   -0.950367   -0.595304
     13          7           0        2.137019   -0.700145    0.516498
     14          6           0        2.177304   -2.077171    0.728403
     15          6           0        2.815094   -2.640148   -0.324444
     16          7           0        3.154332   -1.598416   -1.171903
     17          6           0        2.740929   -0.384834   -0.681182
     18         16           0        2.962928    1.097858   -1.442644
     19          1           0        2.832426    1.896779    1.205273
     20          1           0        3.218997    0.782881    2.526150
     21          1           0        1.865715    1.922099    2.703571
     22          1           0        1.124197   -0.406921    2.256392
     23          1           0       -0.903751   -1.071242    1.117655
     24          1           0       -3.125722    1.984558   -0.893848
     25          1           0       -1.149847    3.492722   -0.781165
     26          1           0        0.946871    2.715685    0.263832
     27          1           0       -5.240278   -1.858346   -1.151257
     28          1           0       -5.814668   -1.229885    0.409996
     29          1           0       -6.266353   -0.385175   -1.109112
     30          1           0        1.747267   -2.522259    1.611403
     31          1           0        3.055294   -3.668639   -0.539870
     32          1           0        3.637133   -1.660379   -2.055701
 ---------------------------------------------------------------------

 SCF Done:  E(UB3LYP) =  -1162.28028089     A.U. after   32 cycles

 The electronic state is 2-A.
 Alpha  occ. eigenvalues --  -88.67915 -19.04233 -18.96625 -14.27679 -14.27391
 Alpha  occ. eigenvalues --  -10.17554 -10.15109 -10.12864 -10.12261 -10.11945
 Alpha  occ. eigenvalues --  -10.11813 -10.06888 -10.05993 -10.04923 -10.04686
 Alpha  occ. eigenvalues --  -10.04515 -10.04461 -10.03941  -7.76678  -5.73143
 Alpha  occ. eigenvalues --   -5.72442  -5.72222  -0.97962  -0.94603  -0.88469
 Alpha  occ. eigenvalues --   -0.82917  -0.73878  -0.70058  -0.68291  -0.64354
 Alpha  occ. eigenvalues --   -0.62293  -0.60473  -0.59522  -0.56386  -0.53636
 Alpha  occ. eigenvalues --   -0.51012  -0.49585  -0.46857  -0.44302  -0.43988
 Alpha  occ. eigenvalues --   -0.41237  -0.37697  -0.37345  -0.37137  -0.36918
 Alpha  occ. eigenvalues --   -0.36389  -0.35965  -0.35423  -0.33324  -0.32607
 Alpha  occ. eigenvalues --   -0.31245  -0.30286  -0.29685  -0.28842  -0.28262
 Alpha  occ. eigenvalues --   -0.27038  -0.26613  -0.24651  -0.23960  -0.23542
 Alpha  occ. eigenvalues --   -0.22124  -0.20554  -0.18965  -0.18736  -0.14914
 Alpha  occ. eigenvalues --   -0.13733  -0.13447  -0.10511  -0.09282   0.04005
 Alpha virt. eigenvalues --    0.05493   0.07331   0.07534   0.08286   0.09112
 Alpha virt. eigenvalues --    0.09283   0.10097   0.10325   0.10467   0.10844
 Alpha virt. eigenvalues --    0.11316   0.11628   0.11743   0.12441   0.13010

  Beta  occ. eigenvalues --  -88.67912 -19.04170 -18.96384 -14.27669 -14.27378
  Beta  occ. eigenvalues --  -10.17555 -10.14893 -10.12859 -10.12265 -10.11918
  Beta  occ. eigenvalues --  -10.11806 -10.06885 -10.06038 -10.04984 -10.04590
  Beta  occ. eigenvalues --  -10.04374 -10.04321 -10.03645  -7.76674  -5.73141
  Beta  occ. eigenvalues --   -5.72438  -5.72213  -0.97727  -0.94586  -0.88097
  Beta  occ. eigenvalues --   -0.82893  -0.73645  -0.69996  -0.68225  -0.64019
  Beta  occ. eigenvalues --   -0.62113  -0.60282  -0.59491  -0.56337  -0.53584
  Beta  occ. eigenvalues --   -0.50604  -0.49392  -0.46754  -0.44135  -0.43948
  Beta  occ. eigenvalues --   -0.41153  -0.37659  -0.37277  -0.36889  -0.36813
  Beta  occ. eigenvalues --   -0.36196  -0.35936  -0.35230  -0.33167  -0.32507
  Beta  occ. eigenvalues --   -0.31143  -0.30205  -0.29647  -0.28219  -0.27887
  Beta  occ. eigenvalues --   -0.27008  -0.26581  -0.24500  -0.23721  -0.23014
  Beta  occ. eigenvalues --   -0.21986  -0.20516  -0.18716  -0.18137  -0.14673
  Beta  occ. eigenvalues --   -0.12916  -0.12484  -0.10334  -0.09244
  Beta virt. eigenvalues --    0.06660   0.07340   0.07694   0.08522   0.08788
  Beta virt. eigenvalues --    0.09219   0.09527   0.10147   0.10393   0.10585
  Beta virt. eigenvalues --    0.10818   0.11380   0.11675   0.11681   0.12407

 Mulliken charges and spin densities:
               1          2
     1  C   -0.464091  -0.000375
     2  C   -0.674379   0.020448
     3  C    0.599731   0.015158
     4  C   -0.218677   0.114422
     5  C    0.116169   0.032619
     6  C   -0.360635   0.162940
     7  C   -0.402098  -0.059225
     8  C   -0.128671   0.204397
     9  C   -0.037842   0.066345
    10  O   -0.353995   0.084285
    11  O   -0.122121   0.011633
    12  C   -0.232245  -0.006199
    13  N    0.426658   0.010484
    14  C    0.161039  -0.068033
    15  C    0.651021  -0.891452
    16  N   -0.077318   0.056742
    17  C    0.170229  -0.361047
    18  S   -0.526142  -0.172189
    19  H    0.170047  -0.004323
    20  H    0.078179   0.058947
    21  H    0.116398   0.008833
    22  H    0.180312  -0.004562
    23  H    0.184183  -0.013345
    24  H    0.144562  -0.004986
    25  H    0.138561   0.004065
    26  H    0.102807  -0.015732
    27  H    0.165299   0.002239
    28  H    0.159066   0.003888
    29  H    0.116977  -0.000592
    30  H    0.021754   0.117288
    31  H   -1.192386   1.383541
    32  H    0.087609   0.243784
 Sum of Mulliken charges =  -1.00000   1.00000

 Dipole moment (field-independent basis, Debye):
    X=             -2.2114    Y=              2.8335    Z=              2.9839  Tot=              4.6715
 Quadrupole moment (field-independent basis, Debye-Ang):
   XX=           -165.6964   YY=           -157.8821   ZZ=           -129.8032
   XY=              6.1738   XZ=             14.9193   YZ=             -0.5234

 Summary of Natural Population Analysis:

                                       Natural Population
                Natural  -----------------------------------------------
    Atom  No    Charge         Core      Valence    Rydberg      Total
 -----------------------------------------------------------------------
      C    1   -0.29390      0.99965     2.28893    0.00533     3.29390
      C    2   -0.01221      0.99959     1.99523    0.01739     3.01221
      C    3    0.01216      0.99948     1.97870    0.00966     2.98784
      C    4   -0.07475      0.99955     2.06057    0.01463     3.07475
      C    5   -0.05966      0.99946     2.05039    0.00981     3.05966
      C    6   -0.05338      0.99954     2.04533    0.00850     3.05338
      C    7   -0.12202      0.99958     2.11370    0.00874     3.12202
      C    8   -0.05075      0.99958     2.03627    0.01490     3.05075
      C    9    0.42398      0.99964     1.55262    0.02376     2.57602
      O   10   -0.30178      0.99988     3.29676    0.00514     4.30178
      O   11   -0.28068      0.99986     3.27247    0.00835     4.28068
      C   12   -0.10484      0.99961     2.09651    0.00872     3.10484
      N   13   -0.22151      0.99960     2.70796    0.01396     3.72151
      C   14   -0.02121      0.99954     2.01028    0.01138     3.02121
      C   15   -0.02403      0.99956     2.01213    0.01235     3.02403
      N   16   -0.28091      0.99965     2.76945    0.01181     3.78091
      C   17    0.12864      0.99962     1.85023    0.02150     2.87136
      S   18   -0.15604      4.99960     3.14283    0.01361     8.15604
      H   19    0.11537      0.00000     0.38327    0.00136     0.38463
      H   20    0.09737      0.00000     0.40165    0.00099     0.40263
      H   21    0.10214      0.00000     0.39690    0.00096     0.39786
      H   22    0.09793      0.00000     0.40023    0.00184     0.40207
      H   23    0.10380      0.00000     0.39436    0.00184     0.39620
      H   24    0.10074      0.00000     0.39830    0.00096     0.39926
      H   25    0.09244      0.00000     0.40610    0.00146     0.40756
      H   26    0.09773      0.00000     0.40066    0.00161     0.40227
      H   27    0.08839      0.00000     0.41039    0.00123     0.41161
      H   28    0.08726      0.00000     0.41149    0.00125     0.41274
      H   29    0.08290      0.00000     0.41624    0.00085     0.41710
      H   30    0.10771      0.00000     0.39126    0.00103     0.39229
      H   31    0.11221      0.00000     0.38277    0.00502     0.38779
      H   32    0.20976      0.00000     0.28772    0.00252     0.29024
 =======================================================================
   * Total *    0.00286     21.99298    46.76171    0.24246    68.99714

 Normal termination of Gaussian 16 at Sun Dec 13 21:00:57 2020.
