 Gaussian 16, Revision A.03,

 -----------------------------------------------------------
 # opt freq B3LYP/6-31G(d) empiricaldispersion=gd3bj scf=xqc
 -----------------------------------------------------------

 -------------------------------
 CID_61984131_JID_10374_neutraal
 -------------------------------
 Symbolic Z-matrix:
 Charge =  0 Multiplicity = 1

 SCF Done:  E(RB3LYP) =  -807.432925655     A.U. after   15 cycles
 SCF Done:  E(RB3LYP) =  -807.456872759     A.U. after   15 cycles
 SCF Done:  E(RB3LYP) =  -807.465712585     A.U. after   13 cycles
 SCF Done:  E(RB3LYP) =  -807.464983599     A.U. after   13 cycles
 SCF Done:  E(RB3LYP) =  -807.465845677     A.U. after   14 cycles
 SCF Done:  E(RB3LYP) =  -807.468618104     A.U. after   14 cycles
 SCF Done:  E(RB3LYP) =  -807.468279717     A.U. after   12 cycles
 SCF Done:  E(RB3LYP) =  -807.468850350     A.U. after   12 cycles
 SCF Done:  E(RB3LYP) =  -807.467453384     A.U. after   13 cycles
 SCF Done:  E(RB3LYP) =  -807.469007766     A.U. after   11 cycles
 SCF Done:  E(RB3LYP) =  -807.469169690     A.U. after    9 cycles
 SCF Done:  E(RB3LYP) =  -807.469170100     A.U. after    9 cycles
 SCF Done:  E(RB3LYP) =  -807.469170412     A.U. after    8 cycles
 SCF Done:  E(RB3LYP) =  -807.469170466     A.U. after    7 cycles
 SCF Done:  E(RB3LYP) =  -807.469170477     A.U. after    6 cycles
 Optimization completed.
    -- Stationary point found.
 Normal termination of Gaussian 16 at Mon Dec 14 14:18:27 2020.

 --------------------------------------------------------------------
 #N Geom=AllCheck Guess=TCheck SCRF=Check GenChk RB3LYP/6-31G(d) Freq
 --------------------------------------------------------------------

 Structure from the checkpoint file:  "JID_10374.chk"
 -------------------------------
 CID_61984131_JID_10374_neutraal
 -------------------------------
 Charge =  0 Multiplicity = 1

 SCF Done:  E(RB3LYP) =  -807.469170477     A.U. after    1 cycles

  Exact polarizability: 253.339  24.321 157.845  20.951 -26.823 174.851
 Approx polarizability: 404.923  54.142 238.900  49.549 -53.095 284.934

                      1                      2                      3
                      A                      A                      A
 Frequencies --     19.0593                30.0255                32.4376
 Red. masses --      3.2032                 1.2496                 2.7751
 Frc consts  --      0.0007                 0.0007                 0.0017
 IR Inten    --      1.3539                 0.2601                 1.9176

                      4                      5                      6
                      A                      A                      A
 Frequencies --     48.8415                54.2318                74.7957
 Red. masses --      3.3154                 4.2924                 3.7821
 Frc consts  --      0.0047                 0.0074                 0.0125
 IR Inten    --      0.3272                 1.0063                 0.7569

                      7                      8                      9
                      A                      A                      A
 Frequencies --     83.4132                88.8465               106.7471
 Red. masses --      3.2636                 3.8135                 3.6390
 Frc consts  --      0.0134                 0.0177                 0.0244
 IR Inten    --      2.5224                 2.7048                 1.5630

                     10                     11                     12
                      A                      A                      A
 Frequencies --    155.5280               187.5952               200.9928
 Red. masses --      3.6271                 4.3652                 3.3947
 Frc consts  --      0.0517                 0.0905                 0.0808
 IR Inten    --      1.2221                 2.5622                 0.7614

                     13                     14                     15
                      A                      A                      A
 Frequencies --    233.6260               266.8299               284.8370
 Red. masses --      1.6199                 3.4768                 1.4872
 Frc consts  --      0.0521                 0.1458                 0.0711
 IR Inten    --     38.6232                 1.1128                 0.5564

                     16                     17                     18
                      A                      A                      A
 Frequencies --    292.1795               308.3020               336.2736
 Red. masses --      1.7334                 2.4287                 2.8743
 Frc consts  --      0.0872                 0.1360                 0.1915
 IR Inten    --      9.8495                 8.9988                 0.9933

                     19                     20                     21
                      A                      A                      A
 Frequencies --    350.9541               367.7359               403.7943
 Red. masses --      2.8390                 3.7298                 3.4942
 Frc consts  --      0.2060                 0.2972                 0.3357
 IR Inten    --      1.1072                 2.7636                 1.5229

                     22                     23                     24
                      A                      A                      A
 Frequencies --    411.0060               425.9186               443.6031
 Red. masses --      4.3521                 3.1701                 3.9214
 Frc consts  --      0.4332                 0.3388                 0.4547
 IR Inten    --      1.6867                 0.8899                 1.0210

                     25                     26                     27
                      A                      A                      A
 Frequencies --    476.4083               514.9680               538.7056
 Red. masses --      3.7144                 3.6324                 5.3606
 Frc consts  --      0.4967                 0.5675                 0.9166
 IR Inten    --      1.3194                 4.0013                 1.5288

                     28                     29                     30
                      A                      A                      A
 Frequencies --    551.9454               571.4251               584.4143
 Red. masses --      3.6767                 4.2766                 4.0444
 Frc consts  --      0.6599                 0.8228                 0.8138
 IR Inten    --     10.0815                 2.7546                 6.5295

                     31                     32                     33
                      A                      A                      A
 Frequencies --    632.6320               658.5018               694.1044
 Red. masses --      4.9128                 6.6425                 4.3107
 Frc consts  --      1.1585                 1.6970                 1.2236
 IR Inten    --      2.3127                 0.0458                 3.6796

                     34                     35                     36
                      A                      A                      A
 Frequencies --    716.0271               737.4305               764.3674
 Red. masses --      4.4286                 3.0286                 4.2948
 Frc consts  --      1.3378                 0.9704                 1.4784
 IR Inten    --      1.4161                 7.8144                 1.5833

                     37                     38                     39
                      A                      A                      A
 Frequencies --    774.6342               832.1778               837.2930
 Red. masses --      1.3173                 2.4392                 2.1248
 Frc consts  --      0.4657                 0.9952                 0.8777
 IR Inten    --     42.1168                 8.9968                13.5367

                     40                     41                     42
                      A                      A                      A
 Frequencies --    850.9419               854.9121               871.7975
 Red. masses --      2.4551                 1.6125                 1.2664
 Frc consts  --      1.0474                 0.6944                 0.5671
 IR Inten    --      0.5381                10.4196               134.8389

                     43                     44                     45
                      A                      A                      A
 Frequencies --    890.5775               941.0348               949.3125
 Red. masses --      1.5081                 1.3077                 1.4740
 Frc consts  --      0.7047                 0.6823                 0.7826
 IR Inten    --      1.0738                 0.3351                 4.9041

                     46                     47                     48
                      A                      A                      A
 Frequencies --    952.7221               970.3194               982.2490
 Red. masses --      3.0571                 1.4330                 2.4714
 Frc consts  --      1.6349                 0.7949                 1.4049
 IR Inten    --      1.3607                 1.3416                17.6720

                     49                     50                     51
                      A                      A                      A
 Frequencies --    985.4337               998.4161              1018.9306
 Red. masses --      1.2747                 1.9825                 1.4360
 Frc consts  --      0.7293                 1.1644                 0.8784
 IR Inten    --      0.3199                11.1644                 5.3523

                     52                     53                     54
                      A                      A                      A
 Frequencies --   1019.0456              1041.8997              1074.5427
 Red. masses --      2.1759                 2.7417                 2.1903
 Frc consts  --      1.3313                 1.7535                 1.4901
 IR Inten    --     31.1558                 3.2746                 0.1492

                     55                     56                     57
                      A                      A                      A
 Frequencies --   1075.3609              1088.5286              1118.5439
 Red. masses --      1.5241                 2.1756                 2.7910
 Frc consts  --      1.0384                 1.5188                 2.0574
 IR Inten    --      4.2715                12.8791                23.6355

                     58                     59                     60
                      A                      A                      A
 Frequencies --   1146.9506              1150.3982              1165.4742
 Red. masses --      1.4641                 1.6015                 1.3703
 Frc consts  --      1.1348                 1.2488                 1.0967
 IR Inten    --      2.3203                12.7506                 6.0030

                     61                     62                     63
                      A                      A                      A
 Frequencies --   1193.9530              1196.2290              1199.6778
 Red. masses --      1.1646                 1.0938                 2.1766
 Frc consts  --      0.9781                 0.9221                 1.8457
 IR Inten    --      4.0584                 0.3896                24.3814

                     64                     65                     66
                      A                      A                      A
 Frequencies --   1217.8490              1231.5644              1246.5321
 Red. masses --      1.1570                 2.2558                 3.0051
 Frc consts  --      1.0110                 2.0159                 2.7511
 IR Inten    --      0.1670                 4.2539                 1.3213

                     67                     68                     69
                      A                      A                      A
 Frequencies --   1263.5602              1296.9685              1310.7201
 Red. masses --      1.6013                 3.0845                 1.1974
 Frc consts  --      1.5063                 3.0570                 1.2120
 IR Inten    --      8.2411                26.4480                 8.9248

                     70                     71                     72
                      A                      A                      A
 Frequencies --   1313.3110              1319.6240              1345.0974
 Red. masses --      1.9710                 2.3663                 1.9614
 Frc consts  --      2.0030                 2.4278                 2.0909
 IR Inten    --     12.0056                18.4457                 1.4748

                     73                     74                     75
                      A                      A                      A
 Frequencies --   1354.7147              1368.7347              1426.2226
 Red. masses --      2.6380                 2.3125                 1.4740
 Frc consts  --      2.8525                 2.5526                 1.7666
 IR Inten    --      0.1968                 5.6355                22.1519

                     76                     77                     78
                      A                      A                      A
 Frequencies --   1438.0994              1442.7936              1460.5923
 Red. masses --      1.4713                 1.2543                 2.6829
 Frc consts  --      1.7928                 1.5384                 3.3722
 IR Inten    --     62.5584                 1.2682                 0.7930

                     79                     80                     81
                      A                      A                      A
 Frequencies --   1480.6618              1497.1141              1514.5333
 Red. masses --      1.1857                 2.3406                 1.0555
 Frc consts  --      1.5316                 3.0909                 1.4265
 IR Inten    --      1.9898                 8.3821                22.2366

                     82                     83                     84
                      A                      A                      A
 Frequencies --   1515.7341              1522.9079              1524.7460
 Red. masses --      1.0459                 1.0835                 1.1053
 Frc consts  --      1.4157                 1.4805                 1.5140
 IR Inten    --      4.5477                 0.2415                 3.7230

                     85                     86                     87
                      A                      A                      A
 Frequencies --   1526.6764              1537.4567              1548.4174
 Red. masses --      1.1026                 2.6379                 1.0671
 Frc consts  --      1.5141                 3.6737                 1.5074
 IR Inten    --      4.1737                19.0536                 1.2894

                     88                     89                     90
                      A                      A                      A
 Frequencies --   1568.1892              1625.6728              1630.1063
 Red. masses --      2.4536                 5.7614                 5.7327
 Frc consts  --      3.5550                 8.9711                 8.9751
 IR Inten    --     66.7240                 0.3450                 3.6904

                     91                     92                     93
                      A                      A                      A
 Frequencies --   1662.0170              1676.5864              1689.9755
 Red. masses --      5.7562                 5.8019                 1.0863
 Frc consts  --      9.3683                 9.6088                 1.8279
 IR Inten    --      1.8957                 7.2070                25.8181

                     94                     95                     96
                      A                      A                      A
 Frequencies --   2356.7342              2950.5372              2954.9298
 Red. masses --     11.9278                 1.0736                 1.0607
 Frc consts  --     39.0328                 5.5066                 5.4567
 IR Inten    --      0.1840                50.4354                80.1426

                     97                     98                     99
                      A                      A                      A
 Frequencies --   2991.7027              3039.4021              3050.0108
 Red. masses --      1.0689                 1.0382                 1.0852
 Frc consts  --      5.6366                 5.6510                 5.9482
 IR Inten    --     49.4639                36.4391                20.3334

                    100                    101                    102
                      A                      A                      A
 Frequencies --   3074.2579              3079.2457              3091.5179
 Red. masses --      1.0919                 1.0749                 1.0994
 Frc consts  --      6.0803                 6.0051                 6.1909
 IR Inten    --     12.7120                65.5093                24.2260

                    103                    104                    105
                      A                      A                      A
 Frequencies --   3120.5569              3137.5586              3169.9412
 Red. masses --      1.1012                 1.1015                 1.0884
 Frc consts  --      6.3181                 6.3886                 6.4439
 IR Inten    --     16.9395                24.0455                20.8901

                    106                    107                    108
                      A                      A                      A
 Frequencies --   3176.8718              3182.0639              3192.3419
 Red. masses --      1.0892                 1.0862                 1.0891
 Frc consts  --      6.4766                 6.4799                 6.5395
 IR Inten    --     17.4936                 2.8899                10.8950

                    109                    110                    111
                      A                      A                      A
 Frequencies --   3206.0423              3206.4783              3217.0824
 Red. masses --      1.0937                 1.0915                 1.0961
 Frc consts  --      6.6236                 6.6119                 6.6841
 IR Inten    --     28.8569                13.9340                17.1858

                    112                    113                    114
                      A                      A                      A
 Frequencies --   3224.8138              3461.0635              3551.7399
 Red. masses --      1.0925                 1.0495                 1.0927
 Frc consts  --      6.6941                 7.4072                 8.1218
 IR Inten    --      6.3900                 6.4306                 1.0183

 - Thermochemistry -
 -------------------
 Temperature   298.150 Kelvin.  Pressure   1.00000 Atm.
 Atom     1 has atomic number  6 and mass  12.00000

 Molecular mass:   264.16265 amu.
 Principal axes and moments of inertia in atomic units:
                           1         2         3
     Eigenvalues --  4419.612006418.359867492.63863
           X            0.99961   0.02753  -0.00365
           Y           -0.02765   0.99877  -0.04104
           Z            0.00251   0.04113   0.99915
 This molecule is an asymmetric top.
 Rotational symmetry number  1.
 Warning -- assumption of classical behavior for rotation
           may cause significant error
 Rotational temperatures (Kelvin)      0.01960     0.01349     0.01156
 Rotational constants (GHZ):           0.40835     0.28118     0.24087
 Zero-point vibrational energy     890152.8 (Joules/Mol)
                                  212.75163 (Kcal/Mol)
 Warning -- explicit consideration of  30 degrees of freedom as
           vibrations may cause significant error
 Vibrational temperatures:     27.42    43.20    46.67    70.27    78.03
          (Kelvin)            107.61   120.01   127.83   153.59   223.77
                              269.91   289.18   336.14   383.91   409.82
                              420.38   443.58   483.82   504.94   529.09
                              580.97   591.35   612.80   638.25   685.45
                              740.92   775.08   794.13   822.15   840.84
                              910.22   947.44   998.66  1030.20  1061.00
                             1099.75  1114.53  1197.32  1204.68  1224.32
                             1230.03  1254.32  1281.34  1353.94  1365.85
                             1370.75  1396.07  1413.24  1417.82  1436.50
                             1466.01  1466.18  1499.06  1546.03  1547.20
                             1566.15  1609.34  1650.21  1655.17  1676.86
                             1717.83  1721.11  1726.07  1752.21  1771.95
                             1793.48  1817.98  1866.05  1885.83  1889.56
                             1898.64  1935.30  1949.13  1969.30  2052.02
                             2069.10  2075.86  2101.47  2130.34  2154.01
                             2179.08  2180.80  2191.12  2193.77  2196.55
                             2212.06  2227.83  2256.27  2338.98  2345.36
                             2391.27  2412.23  2431.50  3390.81  4245.16
                             4251.48  4304.39  4373.02  4388.29  4423.17
                             4430.35  4448.00  4489.79  4514.25  4560.84
                             4570.81  4578.28  4593.07  4612.78  4613.41
                             4628.66  4639.79  4979.70  5110.16

 Zero-point correction=                           0.339041 (Hartree/Particle)
 Thermal correction to Energy=                    0.358635
 Thermal correction to Enthalpy=                  0.359580
 Thermal correction to Gibbs Free Energy=         0.288636
 Sum of electronic and zero-point Energies=           -807.130129
 Sum of electronic and thermal Energies=              -807.110535
 Sum of electronic and thermal Enthalpies=            -807.109591
 Sum of electronic and thermal Free Energies=         -807.180534

                     E (Thermal)             CV                S
                      KCal/Mol        Cal/Mol-Kelvin    Cal/Mol-Kelvin
 Total                  225.047             73.678            149.313
 Electronic               0.000              0.000              0.000
 Translational            0.889              2.981             42.614
 Rotational               0.889              2.981             33.718
 Vibrational            223.270             67.716             72.981
 Vibration     1          0.593              1.986              6.730
 Vibration     2          0.594              1.984              5.828
 Vibration     3          0.594              1.983              5.674
 Vibration     4          0.595              1.978              4.864
 Vibration     5          0.596              1.976              4.657
 Vibration     6          0.599              1.966              4.023
 Vibration     7          0.600              1.961              3.809
 Vibration     8          0.602              1.957              3.685
 Vibration     9          0.606              1.944              3.327
 Vibration    10          0.620              1.896              2.603
 Vibration    11          0.632              1.857              2.251
 Vibration    12          0.638              1.838              2.124
 Vibration    13          0.654              1.789              1.851
 Vibration    14          0.672              1.734              1.617
 Vibration    15          0.683              1.702              1.504
 Vibration    16          0.688              1.688              1.461
 Vibration    17          0.698              1.658              1.371
 Vibration    18          0.717              1.603              1.230
 Vibration    19          0.728              1.573              1.162
 Vibration    20          0.740              1.539              1.089
 Vibration    21          0.769              1.462              0.949
 Vibration    22          0.775              1.446              0.923
 Vibration    23          0.788              1.414              0.872
 Vibration    24          0.803              1.375              0.815
 Vibration    25          0.833              1.302              0.720
 Vibration    26          0.870              1.217              0.622
 Vibration    27          0.894              1.164              0.568
 Vibration    28          0.907              1.135              0.540
 Vibration    29          0.928              1.093              0.502
 Vibration    30          0.941              1.065              0.477

 Optimization completed.
    -- Stationary point found.
 Normal termination of Gaussian 16 at Mon Dec 14 14:41:43 2020.

 ----------------------------------------------------------------------
 # B3LYP/6-311++G(d,p) empiricaldispersion=gd3bj scf=xqc pop=npa geom=c
 heck
 ----------------------------------------------------------------------

 ---------------------------------------
 CID_61984131_JID_10374_Energie_neutraal
 ---------------------------------------
 Structure from the checkpoint file:  "JID_10374.chk"
 Charge =  0 Multiplicity = 1

 SCF Done:  E(RB3LYP) =  -807.687195702     A.U. after   15 cycles
 Normal termination of Gaussian 16 at Mon Dec 14 14:50:50 2020.

 ----------------------------------------------------------------------
 # B3LYP/6-311++G(d,p) empiricaldispersion=gd3bj scf=xqc pop=npa geom=c
 heck
 ----------------------------------------------------------------------

 -------------------------------------
 CID_61984131_JID_10374_Energie_kation
 -------------------------------------
 Structure from the checkpoint file:  "JID_10374.chk"
 Charge =  1 Multiplicity = 2

 SCF Done:  E(UB3LYP) =  -807.418122560     A.U. after   28 cycles
 Normal termination of Gaussian 16 at Mon Dec 14 15:13:49 2020.
 Gaussian 16:  ES64L-G16RevA.03 25-Dec-2016

 ----------------------------------------------------------------------
 # B3LYP/6-311++G(d,p) empiricaldispersion=gd3bj scf=xqc pop=npa geom=c
 heck
 ----------------------------------------------------------------------

 ------------------------------------
 CID_61984131_JID_10374_Energie_anion
 ------------------------------------
 Structure from the checkpoint file:  "JID_10374.chk"
 Charge = -1 Multiplicity = 2

                         Standard orientation:
 ---------------------------------------------------------------------
 Center     Atomic      Atomic             Coordinates (Angstroms)
 Number     Number       Type             X           Y           Z
 ---------------------------------------------------------------------
      1          6           0       -3.580416    0.295262    2.415674
      2          6           0       -2.458285    0.794774    1.538594
      3          6           0       -2.691906    1.219149    0.228194
      4          6           0       -1.646643    1.640465   -0.595106
      5          6           0       -0.331457    1.664455   -0.118486
      6          6           0       -0.097710    1.286063    1.211121
      7          6           0       -1.141197    0.845502    2.015939
      8          7           0        0.784176    2.037071   -0.934543
      9          6           0        0.483069    3.007403   -1.978978
     10          6           0        1.507194    0.878531   -1.505120
     11          6           0        2.141414   -0.023074   -0.474295
     12          6           0        3.381718    0.320168    0.068287
     13          6           0        4.002276   -0.480045    1.025566
     14          6           0        3.379226   -1.654305    1.454438
     15          6           0        2.141123   -2.011771    0.932871
     16          6           0        1.505002   -1.203186   -0.027297
     17          6           0        0.202166   -1.555702   -0.490182
     18          6           0       -0.934580   -1.811716   -0.819979
     19          6           0       -2.313156   -2.051852   -1.239016
     20          7           0       -2.481437   -3.399132   -1.808118
     21          1           0       -4.556560    0.461166    1.948671
     22          1           0       -3.484337   -0.780690    2.611155
     23          1           0       -3.585113    0.798158    3.390070
     24          1           0       -3.707169    1.210493   -0.162725
     25          1           0       -1.862854    1.937781   -1.616145
     26          1           0        0.914151    1.334379    1.597052
     27          1           0       -0.932321    0.542923    3.039597
     28          1           0        1.424025    3.396809   -2.383031
     29          1           0       -0.095987    2.594344   -2.825552
     30          1           0       -0.081043    3.839608   -1.549727
     31          1           0        2.300107    1.293773   -2.137330
     32          1           0        0.841684    0.288350   -2.156078
     33          1           0        3.860707    1.237013   -0.265708
     34          1           0        4.967612   -0.192252    1.432060
     35          1           0        3.856416   -2.287702    2.196786
     36          1           0        1.639786   -2.914261    1.267164
     37          1           0       -2.968599   -1.970970   -0.361612
     38          1           0       -2.610731   -1.227980   -1.913334
     39          1           0       -3.441187   -3.498676   -2.136813
     40          1           0       -1.884780   -3.488543   -2.629216
 ---------------------------------------------------------------------

 SCF Done:  E(UB3LYP) =  -807.682233783     A.U. after   33 cycles
 SCF Done:  E(UB3LYP) =  -807.682233783     a.u. after    1 cycles

 The electronic state is 2-A.
 Alpha  occ. eigenvalues --  -14.21628 -14.17976 -10.10019 -10.09993 -10.09659
 Alpha  occ. eigenvalues --  -10.09539 -10.07945 -10.07385 -10.07105 -10.06998
 Alpha  occ. eigenvalues --  -10.06940 -10.06894 -10.06642 -10.06571 -10.06411
 Alpha  occ. eigenvalues --  -10.06306 -10.05998 -10.05638 -10.03767 -10.03492
 Alpha  occ. eigenvalues --   -0.83804  -0.77073  -0.75239  -0.74788  -0.67215
 Alpha  occ. eigenvalues --   -0.66739  -0.65523  -0.64369  -0.62138  -0.60218
 Alpha  occ. eigenvalues --   -0.59107  -0.55635  -0.53826  -0.50792  -0.50150
 Alpha  occ. eigenvalues --   -0.48705  -0.46633  -0.42384  -0.40852  -0.38967
 Alpha  occ. eigenvalues --   -0.38129  -0.36979  -0.36850  -0.35565  -0.35066
 Alpha  occ. eigenvalues --   -0.34359  -0.33960  -0.33154  -0.32606  -0.32133
 Alpha  occ. eigenvalues --   -0.31834  -0.31279  -0.29749  -0.29252  -0.28872
 Alpha  occ. eigenvalues --   -0.28402  -0.28306  -0.26614  -0.25424  -0.24999
 Alpha  occ. eigenvalues --   -0.24273  -0.23973  -0.23435  -0.19037  -0.15859
 Alpha  occ. eigenvalues --   -0.15394  -0.14818  -0.14304  -0.13048  -0.11383
 Alpha  occ. eigenvalues --   -0.11040   0.04256
 Alpha virt. eigenvalues --    0.06506   0.06952   0.07300   0.07589   0.08187
 Alpha virt. eigenvalues --    0.08683   0.08838   0.08996   0.09376   0.09934
 Alpha virt. eigenvalues --    0.09987   0.10430   0.10944   0.11370   0.11847

  Beta  occ. eigenvalues --  -14.21611 -14.17901 -10.10013 -10.09993 -10.09661
  Beta  occ. eigenvalues --  -10.09532 -10.07940 -10.07373 -10.06989 -10.06947
  Beta  occ. eigenvalues --  -10.06933 -10.06886 -10.06572 -10.06556 -10.06419
  Beta  occ. eigenvalues --  -10.06332 -10.05943 -10.05435 -10.03681 -10.03449
  Beta  occ. eigenvalues --   -0.83777  -0.76921  -0.75146  -0.74639  -0.67153
  Beta  occ. eigenvalues --   -0.66516  -0.65352  -0.64341  -0.61898  -0.60185
  Beta  occ. eigenvalues --   -0.59036  -0.55484  -0.53793  -0.50777  -0.49891
  Beta  occ. eigenvalues --   -0.48596  -0.46587  -0.42305  -0.40775  -0.38842
  Beta  occ. eigenvalues --   -0.38103  -0.36897  -0.36792  -0.35455  -0.35013
  Beta  occ. eigenvalues --   -0.34267  -0.33921  -0.33095  -0.32582  -0.32049
  Beta  occ. eigenvalues --   -0.31812  -0.31173  -0.29703  -0.29208  -0.28848
  Beta  occ. eigenvalues --   -0.28339  -0.28188  -0.26249  -0.25376  -0.24815
  Beta  occ. eigenvalues --   -0.24198  -0.23914  -0.23367  -0.18309  -0.15789
  Beta  occ. eigenvalues --   -0.15323  -0.14670  -0.13977  -0.12937  -0.11030
  Beta  occ. eigenvalues --   -0.10579
  Beta virt. eigenvalues --    0.06467   0.07042   0.07392   0.07747   0.08111
  Beta virt. eigenvalues --    0.08559   0.08853   0.08956   0.09158   0.09639
  Beta virt. eigenvalues --    0.09929   0.10098   0.10507   0.11101   0.11359

 Mulliken charges and spin densities:
               1          2
     1  C    0.300809  -0.922956
     2  C   -0.249351   0.546774
     3  C    0.038524  -0.315666
     4  C    0.066434  -0.268031
     5  C   -0.090458  -0.111389
     6  C   -0.109791   0.160769
     7  C   -0.642613   0.171551
     8  N    0.245070   0.010330
     9  C   -0.118124  -0.148987
    10  C   -1.098294  -0.005218
    11  C    0.614341   0.081622
    12  C   -0.316266  -0.018487
    13  C   -0.342914   0.115631
    14  C   -0.416616   0.018353
    15  C   -0.310444   0.049000
    16  C    0.386286   0.109609
    17  C    0.084066  -0.006162
    18  C   -0.309296   0.343329
    19  C    0.867956  -1.291058
    20  N   -0.306437   0.017108
    21  H   -0.106227   0.244048
    22  H    0.158124   0.017084
    23  H    0.089658   0.042737
    24  H   -0.249704   0.421730
    25  H   -0.006270   0.146682
    26  H    0.175777   0.022091
    27  H    0.165144   0.007538
    28  H    0.102241   0.025577
    29  H    0.030040   0.094881
    30  H    0.117569   0.028420
    31  H    0.133671   0.006958
    32  H    0.107771   0.021870
    33  H    0.123600   0.006238
    34  H    0.129843  -0.011377
    35  H    0.123695   0.006026
    36  H    0.148065   0.005774
    37  H   -0.123896   0.349934
    38  H   -0.159777   0.319320
    39  H   -0.270032   0.508818
    40  H    0.017828   0.199529
 Sum of Mulliken charges =  -1.00000   1.00000

 Dipole moment (field-independent basis, Debye):
    X=              5.2706    Y=              5.9107    Z=              2.7718  Tot=              8.3904
 Quadrupole moment (field-independent basis, Debye-Ang):
   XX=           -181.4512   YY=           -167.9097   ZZ=           -144.4878
   XY=            -11.9840   XZ=            -11.9303   YZ=            -13.5479

 Summary of Natural Population Analysis:

                                       Natural Population
                Natural  -----------------------------------------------
    Atom  No    Charge         Core      Valence    Rydberg      Total
 -----------------------------------------------------------------------
      C    1   -0.29271      0.99964     2.28705    0.00603     3.29271
      C    2   -0.02448      0.99951     2.01619    0.00878     3.02448
      C    3   -0.09953      0.99952     2.08939    0.01062     3.09953
      C    4   -0.11361      0.99951     2.10448    0.00963     3.11361
      C    5    0.08396      0.99945     1.90370    0.01288     2.91604
      C    6   -0.09795      0.99951     2.08850    0.00993     3.09795
      C    7   -0.09537      0.99951     2.08757    0.00829     3.09537
      N    8   -0.27271      0.99968     2.76158    0.01144     3.77271
      C    9   -0.17558      0.99965     2.16930    0.00663     3.17558
      C   10   -0.08916      0.99956     2.07834    0.01126     3.08916
      C   11    0.00278      0.99948     1.98700    0.01074     2.99722
      C   12   -0.10562      0.99951     2.09775    0.00836     3.10562
      C   13   -0.07205      0.99957     2.06356    0.00891     3.07205
      C   14   -0.11061      0.99957     2.10235    0.00868     3.11061
      C   15   -0.07222      0.99954     2.06477    0.00791     3.07222
      C   16   -0.03192      0.99942     2.02253    0.00996     3.03192
      C   17   -0.02162      0.99927     2.01308    0.00928     3.02162
      C   18    0.03109      0.99924     1.96181    0.00786     2.96891
      C   19   -0.12606      0.99958     2.11439    0.01209     3.12606
      N   20   -0.41244      0.99977     2.90196    0.01071     3.91244
      H   21    0.10213      0.00000     0.39705    0.00082     0.39787
      H   22    0.10476      0.00000     0.39436    0.00089     0.39524
      H   23    0.09911      0.00000     0.40012    0.00077     0.40089
      H   24    0.09912      0.00000     0.39964    0.00124     0.40088
      H   25    0.10050      0.00000     0.39719    0.00231     0.39950
      H   26    0.10906      0.00000     0.38917    0.00178     0.39094
      H   27    0.09589      0.00000     0.40291    0.00120     0.40411
      H   28    0.09217      0.00000     0.40695    0.00088     0.40783
      H   29    0.08100      0.00000     0.41743    0.00157     0.41900
      H   30    0.09812      0.00000     0.40104    0.00083     0.40188
      H   31    0.09390      0.00000     0.40494    0.00116     0.40610
      H   32    0.09624      0.00000     0.40242    0.00134     0.40376
      H   33    0.09440      0.00000     0.40428    0.00132     0.40560
      H   34    0.09121      0.00000     0.40784    0.00095     0.40879
      H   35    0.09408      0.00000     0.40499    0.00093     0.40592
      H   36    0.10027      0.00000     0.39879    0.00094     0.39973
      H   37    0.10448      0.00000     0.39345    0.00207     0.39552
      H   38    0.09150      0.00000     0.40582    0.00268     0.40850
      H   39    0.17538      0.00000     0.31914    0.00548     0.32462
      H   40    0.17251      0.00000     0.32554    0.00196     0.32749
 =======================================================================
   * Total *    0.00000     19.99051    50.78837    0.22113    71.00000

 Normal termination of Gaussian 16 at Mon Dec 14 15:41:24 2020.
