 Gaussian 16, Revision A.03,

 -----------------------------------------------------------
 # opt freq B3LYP/6-31G(d) empiricaldispersion=gd3bj scf=xqc
 -----------------------------------------------------------

 -------------------------------
 CID_113954258_JID_9806_neutraal
 -------------------------------
 Symbolic Z-matrix:
 Charge =  0 Multiplicity = 1

 SCF Done:  E(RB3LYP) =  -1276.67288693     A.U. after   15 cycles
 SCF Done:  E(RB3LYP) =  -1276.68620552     A.U. after   12 cycles
 SCF Done:  E(RB3LYP) =  -1276.68758636     A.U. after   12 cycles
 SCF Done:  E(RB3LYP) =  -1276.68830960     A.U. after   12 cycles
 SCF Done:  E(RB3LYP) =  -1276.68903118     A.U. after   12 cycles
 SCF Done:  E(RB3LYP) =  -1276.68954865     A.U. after   13 cycles
 SCF Done:  E(RB3LYP) =  -1276.69031512     A.U. after   12 cycles
 SCF Done:  E(RB3LYP) =  -1276.69069735     A.U. after   12 cycles
 SCF Done:  E(RB3LYP) =  -1276.69097828     A.U. after   12 cycles
 SCF Done:  E(RB3LYP) =  -1276.69114462     A.U. after   11 cycles
 SCF Done:  E(RB3LYP) =  -1276.69249823     A.U. after   10 cycles
 SCF Done:  E(RB3LYP) =  -1276.69250093     A.U. after    9 cycles
 SCF Done:  E(RB3LYP) =  -1276.69250219     A.U. after    8 cycles
 SCF Done:  E(RB3LYP) =  -1276.69250272     A.U. after    8 cycles
 SCF Done:  E(RB3LYP) =  -1276.69250286     A.U. after    7 cycles
 Optimization completed.
    -- Stationary point found.
 Normal termination of Gaussian 16 at Sat Dec 12 10:30:36 2020.

 --------------------------------------------------------------------
 #N Geom=AllCheck Guess=TCheck SCRF=Check GenChk RB3LYP/6-31G(d) Freq
 --------------------------------------------------------------------

 Structure from the checkpoint file:  "JID_9806.chk"
 -------------------------------
 CID_113954258_JID_9806_neutraal
 -------------------------------
 Charge =  0 Multiplicity = 1

 SCF Done:  E(RB3LYP) =  -1276.69250286     A.U. after    1 cycles

  Exact polarizability: 217.401  -0.318 157.275  14.225  -0.302 122.332
 Approx polarizability: 273.895   1.172 265.567  29.211   5.990 192.598

                      1                      2                      3
                      A                      A                      A
 Frequencies --     18.6958                26.4724                41.5072
 Red. masses --      4.8367                 3.8475                 4.3915
 Frc consts  --      0.0010                 0.0016                 0.0045
 IR Inten    --      0.0076                 0.1393                 0.2735

                      4                      5                      6
                      A                      A                      A
 Frequencies --     45.3735                75.4009                85.4952
 Red. masses --      4.1813                 3.6224                 4.1213
 Frc consts  --      0.0051                 0.0121                 0.0177
 IR Inten    --      1.3555                 0.9806                 1.1025

                      7                      8                      9
                      A                      A                      A
 Frequencies --     95.3354               105.9020               117.7782
 Red. masses --      2.9420                 5.7235                 4.8861
 Frc consts  --      0.0158                 0.0378                 0.0399
 IR Inten    --      1.7050                 1.6841                 1.3333

                     10                     11                     12
                      A                      A                      A
 Frequencies --    147.4484               157.3736               201.0106
 Red. masses --      2.2492                 4.5357                 2.1893
 Frc consts  --      0.0288                 0.0662                 0.0521
 IR Inten    --      0.4991                 1.5587                 1.9387

                     13                     14                     15
                      A                      A                      A
 Frequencies --    210.5726               214.1560               273.3748
 Red. masses --      3.1830                 2.7502                 9.4551
 Frc consts  --      0.0832                 0.0743                 0.4163
 IR Inten    --      0.2097                 2.1280                 1.3543

                     16                     17                     18
                      A                      A                      A
 Frequencies --    279.8333               297.5480               316.0653
 Red. masses --      2.4347                 3.9932                 6.6634
 Frc consts  --      0.1123                 0.2083                 0.3922
 IR Inten    --      0.2882                 0.9933                 1.7077

                     19                     20                     21
                      A                      A                      A
 Frequencies --    350.6797               371.2023               407.5890
 Red. masses --      2.6755                 5.3620                 2.2300
 Frc consts  --      0.1939                 0.4353                 0.2183
 IR Inten    --      2.3796                 3.6380                 2.6609

                     22                     23                     24
                      A                      A                      A
 Frequencies --    431.8048               451.3787               502.6331
 Red. masses --      3.9746                 5.8905                 4.6426
 Frc consts  --      0.4366                 0.7071                 0.6911
 IR Inten    --      5.2283                28.8097                13.2114

                     25                     26                     27
                      A                      A                      A
 Frequencies --    531.2447               554.8403               562.9476
 Red. masses --      5.3042                 4.2788                 1.6861
 Frc consts  --      0.8820                 0.7761                 0.3148
 IR Inten    --     20.3853                 9.3045                31.2401

                     28                     29                     30
                      A                      A                      A
 Frequencies --    603.1126               604.4907               640.2605
 Red. masses --      1.9906                 6.1276                 2.0784
 Frc consts  --      0.4266                 1.3192                 0.5020
 IR Inten    --    146.9162               101.2760                13.2717

                     31                     32                     33
                      A                      A                      A
 Frequencies --    647.8703               662.7782               705.1757
 Red. masses --      2.6194                 1.6035                 3.9425
 Frc consts  --      0.6478                 0.4150                 1.1551
 IR Inten    --     13.4312                 2.2604                40.8353

                     34                     35                     36
                      A                      A                      A
 Frequencies --    718.3242               761.7828               770.6323
 Red. masses --      4.4975                 4.5245                 1.5314
 Frc consts  --      1.3673                 1.5470                 0.5358
 IR Inten    --    261.2368                54.1451                 2.2559

                     37                     38                     39
                      A                      A                      A
 Frequencies --    797.1378               807.4534               815.6082
 Red. masses --      1.2176                 1.2712                 1.4046
 Frc consts  --      0.4558                 0.4883                 0.5505
 IR Inten    --     12.3073                 4.1549                 3.5596

                     40                     41                     42
                      A                      A                      A
 Frequencies --    869.3029               873.8609               907.1055
 Red. masses --      1.3804                 1.8121                 2.0636
 Frc consts  --      0.6146                 0.8153                 1.0004
 IR Inten    --     10.9767                30.8901                 2.4349

                     43                     44                     45
                      A                      A                      A
 Frequencies --    940.9227               943.7818               973.7862
 Red. masses --      2.2209                 2.4123                 5.3550
 Frc consts  --      1.1585                 1.2660                 2.9918
 IR Inten    --     11.9998                13.5403                 3.2131

                     46                     47                     48
                      A                      A                      A
 Frequencies --    980.8634               985.4223               989.3948
 Red. masses --      1.3542                 2.2270                 3.9364
 Frc consts  --      0.7676                 1.2741                 2.2703
 IR Inten    --      1.9776                 1.8928                24.2077

                     49                     50                     51
                      A                      A                      A
 Frequencies --   1010.3739              1066.6830              1094.2342
 Red. masses --      2.6585                 2.1603                 2.3983
 Frc consts  --      1.5990                 1.4482                 1.6919
 IR Inten    --     98.8043                 6.8894                50.8706

                     52                     53                     54
                      A                      A                      A
 Frequencies --   1104.5162              1126.3204              1130.6633
 Red. masses --      1.9661                 3.5238                 2.3613
 Frc consts  --      1.4132                 2.6338                 1.7786
 IR Inten    --     10.8533               122.6366                19.4095

                     55                     56                     57
                      A                      A                      A
 Frequencies --   1139.2060              1142.0670              1178.3601
 Red. masses --      2.0941                 1.3608                 2.3003
 Frc consts  --      1.6012                 1.0457                 1.8819
 IR Inten    --     17.0880               155.3629               286.3177

                     58                     59                     60
                      A                      A                      A
 Frequencies --   1211.6329              1215.4514              1227.5772
 Red. masses --      1.6976                 1.6688                 2.7037
 Frc consts  --      1.4684                 1.4526                 2.4005
 IR Inten    --      5.2375                 9.1416                33.5886

                     61                     62                     63
                      A                      A                      A
 Frequencies --   1256.1683              1260.3508              1270.2907
 Red. masses --      1.5564                 1.5191                 1.3094
 Frc consts  --      1.4470                 1.4217                 1.2449
 IR Inten    --     71.8580                 7.6887                 0.2156

                     64                     65                     66
                      A                      A                      A
 Frequencies --   1280.8783              1291.3628              1307.0066
 Red. masses --      1.2012                 1.4721                 1.3027
 Frc consts  --      1.1611                 1.4464                 1.3111
 IR Inten    --      0.2657                 6.4349                 2.6790

                     67                     68                     69
                      A                      A                      A
 Frequencies --   1308.5595              1329.1313              1339.2525
 Red. masses --      2.7177                 3.1288                 1.8448
 Frc consts  --      2.7418                 3.2566                 1.9495
 IR Inten    --      9.7262                79.3325                74.7226

                     70                     71                     72
                      A                      A                      A
 Frequencies --   1375.5382              1383.6643              1403.4053
 Red. masses --      1.4022                 1.2445                 3.2846
 Frc consts  --      1.5632                 1.4039                 3.8115
 IR Inten    --     10.9484                16.6474                 0.6991

                     73                     74                     75
                      A                      A                      A
 Frequencies --   1404.7900              1427.2171              1443.4188
 Red. masses --      1.4823                 1.4212                 1.3026
 Frc consts  --      1.7235                 1.7057                 1.5990
 IR Inten    --     10.4074                13.1890                 5.3342

                     76                     77                     78
                      A                      A                      A
 Frequencies --   1451.6449              1476.0416              1505.3565
 Red. masses --      5.1678                 3.6979                 3.4393
 Frc consts  --      6.4162                 4.7469                 4.5920
 IR Inten    --    190.6637                40.2598                34.1249

                     79                     80                     81
                      A                      A                      A
 Frequencies --   1508.6307              1511.0875              1515.5461
 Red. masses --      1.1334                 1.1139                 1.0829
 Frc consts  --      1.5198                 1.4985                 1.4654
 IR Inten    --      1.2871                 2.5208                 2.3519

                     82                     83                     84
                      A                      A                      A
 Frequencies --   1522.9307              1525.4058              1533.4864
 Red. masses --      1.0518                 1.0646                 1.0643
 Frc consts  --      1.4373                 1.4595                 1.4745
 IR Inten    --      4.8349                 5.0405                 4.8406

                     85                     86                     87
                      A                      A                      A
 Frequencies --   1542.4041              1606.3509              1806.8088
 Red. masses --      1.1385                 4.4922                 9.5732
 Frc consts  --      1.5958                 6.8296                18.4133
 IR Inten    --      1.8783                62.5649               445.1467

                     88                     89                     90
                      A                      A                      A
 Frequencies --   3041.1080              3049.4356              3053.7137
 Red. masses --      1.0594                 1.0624                 1.0659
 Frc consts  --      5.7724                 5.8205                 5.8562
 IR Inten    --     11.8239                47.1108                25.5227

                     91                     92                     93
                      A                      A                      A
 Frequencies --   3058.2935              3072.4365              3073.6191
 Red. masses --      1.0381                 1.0725                 1.0599
 Frc consts  --      5.7206                 5.9652                 5.8993
 IR Inten    --     18.5510                15.4722                51.1928

                     94                     95                     96
                      A                      A                      A
 Frequencies --   3081.9374              3103.4222              3115.7712
 Red. masses --      1.0988                 1.0957                 1.0980
 Frc consts  --      6.1493                 6.2175                 6.2803
 IR Inten    --     27.6416                12.4627                34.6165

                     97                     98                     99
                      A                      A                      A
 Frequencies --   3116.9765              3118.8368              3132.7801
 Red. masses --      1.1016                 1.1028                 1.1037
 Frc consts  --      6.3056                 6.3204                 6.3818
 IR Inten    --     10.3247                15.2212                66.7074

                    100                    101                    102
                      A                      A                      A
 Frequencies --   3143.3397              3157.5100              3296.9701
 Red. masses --      1.0967                 1.0985                 1.0968
 Frc consts  --      6.3845                 6.4529                 7.0245
 IR Inten    --     19.2887                11.6940                 2.5270

                    103                    104                    105
                      A                      A                      A
 Frequencies --   3302.9360              3638.8823              3701.3158
 Red. masses --      1.0980                 1.0807                 1.0642
 Frc consts  --      7.0576                 8.4316                 8.5896
 IR Inten    --      3.3293               119.3202               100.1723

 - Thermochemistry -
 -------------------
 Temperature   298.150 Kelvin.  Pressure   1.00000 Atm.
 Atom     1 has atomic number  6 and mass  12.00000

 Molecular mass:   286.09873 amu.
 Principal axes and moments of inertia in atomic units:
                           1         2         3
     Eigenvalues --  2603.36332********************
           X            0.99993  -0.00862  -0.00848
           Y            0.00745   0.99152  -0.12976
           Z            0.00953   0.12969   0.99151
 This molecule is an asymmetric top.
 Rotational symmetry number  1.
 Warning -- assumption of classical behavior for rotation
           may cause significant error
 Rotational temperatures (Kelvin)      0.03327     0.00805     0.00783
 Rotational constants (GHZ):           0.69323     0.16776     0.16322
 Zero-point vibrational energy     797704.8 (Joules/Mol)
                                  190.65602 (Kcal/Mol)
 Warning -- explicit consideration of  29 degrees of freedom as
           vibrations may cause significant error
 Vibrational temperatures:     26.90    38.09    59.72    65.28   108.49
          (Kelvin)            123.01   137.17   152.37   169.46   212.15
                              226.43   289.21   302.97   308.12   393.33
                              402.62   428.11   454.75   504.55   534.08
                              586.43   621.27   649.43   723.18   764.34
                              798.29   809.96   867.74   869.73   921.19
                              932.14   953.59  1014.59  1033.51  1096.04
                             1108.77  1146.90  1161.75  1173.48  1250.73
                             1257.29  1305.12  1353.78  1357.89  1401.06
                             1411.24  1417.80  1423.52  1453.70  1534.72
                             1574.36  1589.15  1620.52  1626.77  1639.06
                             1643.18  1695.40  1743.27  1748.76  1766.21
                             1807.35  1813.36  1827.67  1842.90  1857.98
                             1880.49  1882.73  1912.32  1926.89  1979.09
                             1990.78  2019.19  2021.18  2053.45  2076.76
                             2088.59  2123.69  2165.87  2170.58  2174.12
                             2180.53  2191.16  2194.72  2206.34  2219.18
                             2311.18  2599.59  4375.48  4387.46  4393.61
                             4400.20  4420.55  4422.25  4434.22  4465.13
                             4482.90  4484.63  4487.31  4507.37  4522.56
                             4542.95  4743.60  4752.19  5235.54  5325.37

 Zero-point correction=                           0.303830 (Hartree/Particle)
 Thermal correction to Energy=                    0.323071
 Thermal correction to Enthalpy=                  0.324016
 Thermal correction to Gibbs Free Energy=         0.253644
 Sum of electronic and zero-point Energies=          -1276.388673
 Sum of electronic and thermal Energies=             -1276.369431
 Sum of electronic and thermal Enthalpies=           -1276.368487
 Sum of electronic and thermal Free Energies=        -1276.438859

                     E (Thermal)             CV                S
                      KCal/Mol        Cal/Mol-Kelvin    Cal/Mol-Kelvin
 Total                  202.730             71.333            148.109
 Electronic               0.000              0.000              0.000
 Translational            0.889              2.981             42.851
 Rotational               0.889              2.981             34.092
 Vibrational            200.953             65.372             71.165
 Vibration     1          0.593              1.986              6.768
 Vibration     2          0.593              1.985              6.078
 Vibration     3          0.594              1.981              5.186
 Vibration     4          0.595              1.979              5.009
 Vibration     5          0.599              1.965              4.007
 Vibration     6          0.601              1.959              3.761
 Vibration     7          0.603              1.953              3.548
 Vibration     8          0.605              1.945              3.343
 Vibration     9          0.608              1.935              3.137
 Vibration    10          0.617              1.905              2.705
 Vibration    11          0.621              1.894              2.581
 Vibration    12          0.638              1.838              2.124
 Vibration    13          0.643              1.825              2.039
 Vibration    14          0.644              1.819              2.008
 Vibration    15          0.676              1.722              1.575
 Vibration    16          0.680              1.711              1.535
 Vibration    17          0.691              1.678              1.431
 Vibration    18          0.703              1.643              1.330
 Vibration    19          0.728              1.574              1.163
 Vibration    20          0.743              1.531              1.075
 Vibration    21          0.772              1.454              0.935
 Vibration    22          0.793              1.401              0.853
 Vibration    23          0.810              1.358              0.792
 Vibration    24          0.858              1.244              0.652
 Vibration    25          0.886              1.181              0.584
 Vibration    26          0.910              1.129              0.534
 Vibration    27          0.919              1.111              0.518
 Vibration    28          0.961              1.025              0.444
 Vibration    29          0.963              1.022              0.442

 Optimization completed.
    -- Stationary point found.
 Normal termination of Gaussian 16 at Sat Dec 12 10:47:06 2020.

 ----------------------------------------------------------------------
 # B3LYP/6-311++G(d,p) empiricaldispersion=gd3bj scf=xqc pop=npa geom=c
 heck
 ----------------------------------------------------------------------

 ---------------------------------------
 CID_113954258_JID_9806_Energie_neutraal
 ---------------------------------------
 Structure from the checkpoint file:  "JID_9806.chk"
 Charge =  0 Multiplicity = 1

 SCF Done:  E(RB3LYP) =  -1276.97668700     A.U. after   17 cycles
 Normal termination of Gaussian 16 at Sat Dec 12 10:54:33 2020.

 ----------------------------------------------------------------------
 # B3LYP/6-311++G(d,p) empiricaldispersion=gd3bj scf=xqc pop=npa geom=c
 heck
 ----------------------------------------------------------------------

 -------------------------------------
 CID_113954258_JID_9806_Energie_kation
 -------------------------------------
 Structure from the checkpoint file:  "JID_9806.chk"
 Charge =  1 Multiplicity = 2

 SCF Done:  E(UB3LYP) =  -1276.66898392     A.U. after   27 cycles
 Normal termination of Gaussian 16 at Sat Dec 12 11:10:57 2020.
 Gaussian 16:  ES64L-G16RevA.03 25-Dec-2016

 ----------------------------------------------------------------------
 # B3LYP/6-311++G(d,p) empiricaldispersion=gd3bj scf=xqc pop=npa geom=c
 heck
 ----------------------------------------------------------------------

 ------------------------------------
 CID_113954258_JID_9806_Energie_anion
 ------------------------------------
 Structure from the checkpoint file:  "JID_9806.chk"
 Charge = -1 Multiplicity = 2

                         Standard orientation:
 ---------------------------------------------------------------------
 Center     Atomic      Atomic             Coordinates (Angstroms)
 Number     Number       Type             X           Y           Z
 ---------------------------------------------------------------------
      1          6           0        0.217585    2.123354   -1.776452
      2          6           0        1.220092    2.078629   -0.621188
      3          7           0        1.344269    0.772227    0.038405
      4          6           0        1.954453   -0.346725   -0.696617
      5          6           0        3.345758   -0.686776   -0.190916
      6          6           0        4.183922   -1.718285   -0.993594
      7          6           0        5.436513   -0.844188   -0.719104
      8          6           0        4.489212    0.342120   -0.398384
      9         16           0        0.383095    0.402375    1.345304
     10          8           0        1.036303   -0.714365    2.035045
     11          8           0        0.067359    1.667088    2.011457
     12          6           0       -1.137631   -0.247651    0.725550
     13          6           0       -1.387229   -1.596903    0.495700
     14          7           0       -2.640952   -1.692355   -0.012046
     15          6           0       -3.212001   -0.437598   -0.109140
     16          6           0       -2.288576    0.487517    0.349122
     17          6           0       -4.571642   -0.335874   -0.619555
     18          8           0       -5.233987   -1.297532   -0.971064
     19          8           0       -5.023015    0.937748   -0.666248
     20          1           0        0.467470    1.395409   -2.556267
     21          1           0        0.220388    3.118431   -2.235313
     22          1           0       -0.797149    1.908631   -1.430911
     23          1           0        2.222215    2.342148   -0.976999
     24          1           0        0.955829    2.803347    0.150226
     25          1           0        1.303545   -1.229052   -0.648026
     26          1           0        1.999761   -0.056647   -1.752884
     27          1           0        3.277128   -0.974446    0.861530
     28          1           0        4.190092   -2.754934   -0.642964
     29          1           0        3.915717   -1.711074   -2.057660
     30          1           0        6.155834   -0.716473   -1.533618
     31          1           0        5.974671   -1.182065    0.172258
     32          1           0        4.313671    0.962221   -1.286395
     33          1           0        4.742420    0.996185    0.440502
     34          1           0       -0.765843   -2.456694    0.692521
     35          1           0       -3.140599   -2.533463   -0.268680
     36          1           0       -2.431104    1.554222    0.430544
     37          1           0       -5.932807    0.887913   -1.013284
 ---------------------------------------------------------------------

 SCF Done:  E(UB3LYP) =  -1276.98059926     A.U. after   33 cycles
 SCF Done:  E(UB3LYP) =  -1276.98059926     a.u. after    1 cycles

 The electronic state is 2-A.
 Alpha  occ. eigenvalues --  -88.95576 -19.03873 -19.00759 -19.00520 -18.96435
 Alpha  occ. eigenvalues --  -14.24006 -14.23924 -10.14659 -10.11623 -10.11150
 Alpha  occ. eigenvalues --  -10.09155 -10.08076 -10.07871 -10.07796 -10.07694
 Alpha  occ. eigenvalues --  -10.07614 -10.07481 -10.07121 -10.04775  -8.01623
 Alpha  occ. eigenvalues --   -5.97919  -5.97893  -5.97716  -1.01122  -0.97480
 Alpha  occ. eigenvalues --   -0.90208  -0.88476  -0.86771  -0.83789  -0.75809
 Alpha  occ. eigenvalues --   -0.68548  -0.67114  -0.64070  -0.63053  -0.57496
 Alpha  occ. eigenvalues --   -0.56911  -0.54318  -0.53211  -0.51636  -0.47454
 Alpha  occ. eigenvalues --   -0.46490  -0.44550  -0.42595  -0.41385  -0.40290
 Alpha  occ. eigenvalues --   -0.38858  -0.38293  -0.36753  -0.35598  -0.34945
 Alpha  occ. eigenvalues --   -0.34499  -0.33782  -0.33366  -0.33195  -0.31347
 Alpha  occ. eigenvalues --   -0.30975  -0.30064  -0.29525  -0.28949  -0.28790
 Alpha  occ. eigenvalues --   -0.28140  -0.27073  -0.26562  -0.25498  -0.24109
 Alpha  occ. eigenvalues --   -0.23440  -0.22230  -0.21875  -0.21456  -0.20268
 Alpha  occ. eigenvalues --   -0.20191  -0.19807  -0.16773  -0.15240  -0.13964
 Alpha  occ. eigenvalues --   -0.11944   0.04294
 Alpha virt. eigenvalues --    0.05471   0.07114   0.07550   0.07881   0.08431
 Alpha virt. eigenvalues --    0.09117   0.09683   0.09908   0.10801   0.11271
 Alpha virt. eigenvalues --    0.11581   0.11827   0.12556   0.12744   0.13157

  Beta  occ. eigenvalues --  -88.95575 -19.03785 -19.00760 -19.00521 -18.96116
  Beta  occ. eigenvalues --  -14.23931 -14.23746 -10.14279 -10.11621 -10.11134
  Beta  occ. eigenvalues --  -10.08982 -10.08061 -10.07871 -10.07781 -10.07683
  Beta  occ. eigenvalues --  -10.07568 -10.07558 -10.07114 -10.04565  -8.01623
  Beta  occ. eigenvalues --   -5.97918  -5.97893  -5.97714  -1.01126  -0.97105
  Beta  occ. eigenvalues --   -0.90211  -0.88021  -0.86350  -0.83795  -0.75797
  Beta  occ. eigenvalues --   -0.68359  -0.67076  -0.63764  -0.62843  -0.57434
  Beta  occ. eigenvalues --   -0.56862  -0.54290  -0.52600  -0.51553  -0.47163
  Beta  occ. eigenvalues --   -0.46457  -0.44520  -0.42345  -0.41353  -0.40275
  Beta  occ. eigenvalues --   -0.38827  -0.38259  -0.36701  -0.35199  -0.34896
  Beta  occ. eigenvalues --   -0.34370  -0.33634  -0.33190  -0.32006  -0.31312
  Beta  occ. eigenvalues --   -0.30807  -0.30035  -0.29101  -0.28702  -0.28347
  Beta  occ. eigenvalues --   -0.28086  -0.26784  -0.26495  -0.25476  -0.24103
  Beta  occ. eigenvalues --   -0.23419  -0.22216  -0.21855  -0.21447  -0.20245
  Beta  occ. eigenvalues --   -0.20015  -0.18617  -0.16482  -0.14943  -0.13283
  Beta  occ. eigenvalues --   -0.10758
  Beta virt. eigenvalues --    0.06071   0.07133   0.07647   0.08051   0.08480
  Beta virt. eigenvalues --    0.09031   0.09683   0.09852   0.10042   0.10907
  Beta virt. eigenvalues --    0.11471   0.11725   0.11974   0.12582   0.12759

 Mulliken charges and spin densities:
               1          2
     1  C   -0.232439  -0.130107
     2  C   -0.402350   0.072535
     3  N    0.294201  -0.007305
     4  C   -0.484644  -0.670742
     5  C   -0.133696   0.853832
     6  C   -0.081867  -0.476988
     7  C    0.012052  -0.295624
     8  C   -0.007558  -0.368508
     9  S    0.392065  -0.064058
    10  O   -0.159362  -0.005384
    11  O   -0.182379   0.005106
    12  C   -0.727679  -0.047700
    13  C    0.055683   0.123694
    14  N   -0.191850   0.090682
    15  C   -0.180097   0.043258
    16  C   -0.334560   0.149980
    17  C    0.340705   0.217603
    18  O   -0.432838   0.111186
    19  O   -0.233484   0.015912
    20  H    0.038670   0.080013
    21  H    0.119238   0.009502
    22  H    0.207190  -0.025812
    23  H    0.086326   0.058247
    24  H    0.180203   0.009444
    25  H    0.158377   0.062039
    26  H    0.009872   0.119303
    27  H    0.183950   0.048692
    28  H    0.013107   0.118766
    29  H   -0.166418   0.288785
    30  H   -0.282979   0.445529
    31  H    0.129140  -0.009955
    32  H   -0.006595   0.110185
    33  H    0.115074   0.044442
    34  H    0.149585   0.023705
    35  H    0.311138   0.001369
    36  H    0.177240  -0.001891
    37  H    0.266981   0.000266
 Sum of Mulliken charges =  -1.00000   1.00000

 Dipole moment (field-independent basis, Debye):
    X=              2.1911    Y=              1.4544    Z=             -0.7595  Tot=              2.7373
 Quadrupole moment (field-independent basis, Debye-Ang):
   XX=           -210.9027   YY=           -136.6685   ZZ=           -154.1602
   XY=             -3.6596   XZ=              5.7745   YZ=             -8.3871

 Summary of Natural Population Analysis:

                                       Natural Population
                Natural  -----------------------------------------------
    Atom  No    Charge         Core      Valence    Rydberg      Total
 -----------------------------------------------------------------------
      C    1   -0.29610      0.99966     2.29201    0.00444     3.29610
      C    2   -0.08746      0.99962     2.07633    0.01152     3.08746
      N    3   -0.38195      0.99971     2.86771    0.01453     3.88195
      C    4   -0.08630      0.99957     2.07330    0.01343     3.08630
      C    5   -0.11724      0.99959     2.10631    0.01134     3.11724
      C    6   -0.18779      0.99963     2.17988    0.00828     3.18779
      C    7   -0.19051      0.99965     2.18239    0.00846     3.19051
      C    8   -0.18741      0.99963     2.17914    0.00863     3.18741
      S    9    1.13065      4.99904     1.76666    0.10364     6.86935
      O   10   -0.47267      0.99991     3.46674    0.00603     4.47267
      O   11   -0.46830      0.99990     3.46350    0.00490     4.46830
      C   12   -0.21944      0.99936     2.20572    0.01437     3.21944
      C   13    0.03171      0.99954     1.95633    0.01242     2.96829
      N   14   -0.21708      0.99966     2.71003    0.00738     3.71708
      C   15    0.02435      0.99951     1.96345    0.01270     2.97565
      C   16   -0.08194      0.99948     2.07347    0.00899     3.08194
      C   17    0.42760      0.99964     1.54941    0.02335     2.57240
      O   18   -0.31261      0.99988     3.30517    0.00756     4.31261
      O   19   -0.34620      0.99988     3.34045    0.00588     4.34620
      H   20    0.09627      0.00000     0.40248    0.00125     0.40373
      H   21    0.09585      0.00000     0.40329    0.00085     0.40415
      H   22    0.10941      0.00000     0.38916    0.00143     0.39059
      H   23    0.09274      0.00000     0.40601    0.00125     0.40726
      H   24    0.11115      0.00000     0.38768    0.00116     0.38885
      H   25    0.10593      0.00000     0.39267    0.00140     0.39407
      H   26    0.09531      0.00000     0.40333    0.00137     0.40469
      H   27    0.11079      0.00000     0.38775    0.00147     0.38921
      H   28    0.09630      0.00000     0.40290    0.00080     0.40370
      H   29    0.09536      0.00000     0.40323    0.00141     0.40464
      H   30    0.09545      0.00000     0.40316    0.00139     0.40455
      H   31    0.09358      0.00000     0.40544    0.00098     0.40642
      H   32    0.09311      0.00000     0.40569    0.00120     0.40689
      H   33    0.09749      0.00000     0.40159    0.00093     0.40251
      H   34    0.10311      0.00000     0.39565    0.00125     0.39689
      H   35    0.20441      0.00000     0.29378    0.00181     0.29559
      H   36    0.11116      0.00000     0.38791    0.00092     0.38884
      H   37    0.23128      0.00000     0.26573    0.00299     0.26872
 =======================================================================
   * Total *   -0.00000     22.99286    52.69543    0.31171    76.00000

 Normal termination of Gaussian 16 at Sat Dec 12 11:31:42 2020.
