 Gaussian 16, Revision A.03,

 -----------------------------------------------------------
 # opt freq B3LYP/6-31G(d) empiricaldispersion=gd3bj scf=xqc
 -----------------------------------------------------------

 -----------------------------
 CID_80023386_JID_876_neutraal
 -----------------------------
 Symbolic Z-matrix:
 Charge =  0 Multiplicity = 1

 SCF Done:  E(RB3LYP) =  -787.895380351     A.U. after   13 cycles
 SCF Done:  E(RB3LYP) =  -787.897721619     A.U. after   11 cycles
 SCF Done:  E(RB3LYP) =  -787.897839358     A.U. after   12 cycles
 SCF Done:  E(RB3LYP) =  -787.898061189     A.U. after   11 cycles
 SCF Done:  E(RB3LYP) =  -787.898178801     A.U. after   10 cycles
 SCF Done:  E(RB3LYP) =  -787.898189690     A.U. after   10 cycles
 SCF Done:  E(RB3LYP) =  -787.898191819     A.U. after    8 cycles
 SCF Done:  E(RB3LYP) =  -787.898192172     A.U. after    7 cycles
 SCF Done:  E(RB3LYP) =  -787.898192789     A.U. after    8 cycles
 SCF Done:  E(RB3LYP) =  -787.898193357     A.U. after    9 cycles
 SCF Done:  E(RB3LYP) =  -787.898193914     A.U. after    8 cycles
 SCF Done:  E(RB3LYP) =  -787.898194411     A.U. after    8 cycles
 SCF Done:  E(RB3LYP) =  -787.898194506     A.U. after    7 cycles
 SCF Done:  E(RB3LYP) =  -787.898194493     A.U. after    6 cycles
 Optimization completed.
    -- Stationary point found.
 Normal termination of Gaussian 16 at Tue Dec  8 13:12:48 2020.

 --------------------------------------------------------------------
 #N Geom=AllCheck Guess=TCheck SCRF=Check GenChk RB3LYP/6-31G(d) Freq
 --------------------------------------------------------------------

 Structure from the checkpoint file:  "JID_876.chk"
 -----------------------------
 CID_80023386_JID_876_neutraal
 -----------------------------
 Charge =  0 Multiplicity = 1

 SCF Done:  E(RB3LYP) =  -787.898194493     A.U. after    1 cycles

  Exact polarizability: 110.206   6.567 108.265  -4.083   3.578  85.716
 Approx polarizability: 136.700  14.464 163.843  -7.188   4.162 125.607

                      1                      2                      3
                      A                      A                      A
 Frequencies --     18.9986                37.0877                57.9605
 Red. masses --      4.0216                 4.2215                 2.0922
 Frc consts  --      0.0009                 0.0034                 0.0041
 IR Inten    --      0.1393                 0.2763                 0.1620

                      4                      5                      6
                      A                      A                      A
 Frequencies --     70.3955               104.7056               119.9306
 Red. masses --      3.0843                 2.5582                 3.1992
 Frc consts  --      0.0090                 0.0165                 0.0271
 IR Inten    --      0.7778                 1.0949                 5.8582

                      7                      8                      9
                      A                      A                      A
 Frequencies --    157.8733               209.2662               248.9252
 Red. masses --      4.2931                 1.2391                 3.0431
 Frc consts  --      0.0630                 0.0320                 0.1111
 IR Inten    --      2.1305                10.2209                 0.1056

                     10                     11                     12
                      A                      A                      A
 Frequencies --    282.5101               311.0599               334.5498
 Red. masses --      1.6973                 2.4364                 2.0798
 Frc consts  --      0.0798                 0.1389                 0.1372
 IR Inten    --      5.4781                 0.7611                 4.5839

                     13                     14                     15
                      A                      A                      A
 Frequencies --    392.6771               454.8238               535.5526
 Red. masses --      2.1718                 2.2136                 1.8991
 Frc consts  --      0.1973                 0.2698                 0.3209
 IR Inten    --      2.0686                 1.0429                 2.5664

                     16                     17                     18
                      A                      A                      A
 Frequencies --    565.3287               579.0956               650.3152
 Red. masses --      2.0328                 1.7752                 3.9851
 Frc consts  --      0.3828                 0.3507                 0.9930
 IR Inten    --      3.4035                 3.3023                 3.4449

                     19                     20                     21
                      A                      A                      A
 Frequencies --    715.3553               797.4274               821.8884
 Red. masses --      1.2212                 1.6110                 2.3364
 Frc consts  --      0.3682                 0.6036                 0.9299
 IR Inten    --      9.5901                 2.7285                 6.0196

                     22                     23                     24
                      A                      A                      A
 Frequencies --    862.8006               905.7212               932.7437
 Red. masses --      2.1858                 2.2292                 1.3488
 Frc consts  --      0.9587                 1.0774                 0.6914
 IR Inten    --      3.8381                 7.8724                38.8338

                     25                     26                     27
                      A                      A                      A
 Frequencies --    948.3316               982.1349              1003.3994
 Red. masses --      1.8436                 1.7994                 1.6660
 Frc consts  --      0.9769                 1.0227                 0.9883
 IR Inten    --      9.1171                 7.3509                 6.0805

                     28                     29                     30
                      A                      A                      A
 Frequencies --   1012.1261              1029.1627              1043.8446
 Red. masses --      1.7354                 1.4159                 1.2259
 Frc consts  --      1.0474                 0.8836                 0.7870
 IR Inten    --      3.3300                 3.7831                14.1838

                     31                     32                     33
                      A                      A                      A
 Frequencies --   1067.2032              1114.7877              1117.3787
 Red. masses --      2.0017                 1.7368                 2.2629
 Frc consts  --      1.3432                 1.2717                 1.6646
 IR Inten    --      9.6583                 1.2900                12.4587

                     34                     35                     36
                      A                      A                      A
 Frequencies --   1146.2832              1166.2163              1204.5925
 Red. masses --      1.9333                 3.9668                 1.2426
 Frc consts  --      1.4967                 3.1787                 1.0623
 IR Inten    --     12.3608               165.2024                 0.9597

                     37                     38                     39
                      A                      A                      A
 Frequencies --   1235.4746              1258.7507              1286.0857
 Red. masses --      1.1800                 1.1901                 1.1512
 Frc consts  --      1.0612                 1.1110                 1.1219
 IR Inten    --      2.2541                12.0030                 3.6934

                     40                     41                     42
                      A                      A                      A
 Frequencies --   1318.6718              1329.6497              1348.6978
 Red. masses --      1.2170                 1.2630                 1.1512
 Frc consts  --      1.2469                 1.3156                 1.2338
 IR Inten    --      0.9170                33.4505                16.2259

                     43                     44                     45
                      A                      A                      A
 Frequencies --   1351.6774              1400.4824              1403.1426
 Red. masses --      1.2235                 1.4287                 1.3827
 Frc consts  --      1.3170                 1.6510                 1.6039
 IR Inten    --      5.2812                 9.4460                 5.1590

                     46                     47                     48
                      A                      A                      A
 Frequencies --   1411.6646              1427.9948              1454.4322
 Red. masses --      1.4812                 1.3482                 1.3708
 Frc consts  --      1.7392                 1.6198                 1.7085
 IR Inten    --      4.8450                21.0619                 3.3053

                     49                     50                     51
                      A                      A                      A
 Frequencies --   1474.8616              1492.9485              1500.5465
 Red. masses --      1.1985                 1.0772                 1.0768
 Frc consts  --      1.5360                 1.4145                 1.4285
 IR Inten    --      2.5120                 6.0480                 3.2556

                     52                     53                     54
                      A                      A                      A
 Frequencies --   1508.7893              1515.3463              1528.7278
 Red. masses --      1.0885                 1.0985                 1.0917
 Frc consts  --      1.4599                 1.4862                 1.5032
 IR Inten    --     12.3056                 6.7513                 4.2090

                     55                     56                     57
                      A                      A                      A
 Frequencies --   1553.2638              1733.7346              2680.4319
 Red. masses --      1.0890                 4.2931                 1.0384
 Frc consts  --      1.5481                 7.6031                 4.3958
 IR Inten    --     11.6472                 9.3292                24.0005

                     58                     59                     60
                      A                      A                      A
 Frequencies --   2981.9531              3006.9133              3013.9052
 Red. masses --      1.0683                 1.0700                 1.0689
 Frc consts  --      5.5968                 5.7001                 5.7207
 IR Inten    --     36.5156                45.4952                24.6413

                     61                     62                     63
                      A                      A                      A
 Frequencies --   3044.6040              3055.9165              3059.5759
 Red. masses --      1.0802                 1.0637                 1.0699
 Frc consts  --      5.8995                 5.8526                 5.9010
 IR Inten    --     13.5274                33.0137                35.7219

                     64                     65                     66
                      A                      A                      A
 Frequencies --   3062.7537              3083.7770              3090.7583
 Red. masses --      1.0923                 1.0646                 1.0988
 Frc consts  --      6.0372                 5.9651                 6.1842
 IR Inten    --     24.5609                 8.0856                31.3039

                     67                     68                     69
                      A                      A                      A
 Frequencies --   3100.7438              3102.0047              3132.4194
 Red. masses --      1.0939                 1.1016                 1.1063
 Frc consts  --      6.1964                 6.2454                 6.3957
 IR Inten    --     48.0701                27.6083                23.6035

                     70                     71                     72
                      A                      A                      A
 Frequencies --   3142.5050              3169.7621              3242.5681
 Red. masses --      1.0847                 1.0645                 1.1155
 Frc consts  --      6.3110                 6.3013                 6.9105
 IR Inten    --     24.8784                 4.8852                22.1979

 - Thermochemistry -
 -------------------
 Temperature   298.150 Kelvin.  Pressure   1.00000 Atm.
 Atom     1 has atomic number  6 and mass  12.00000

 Molecular mass:   160.09219 amu.
 Principal axes and moments of inertia in atomic units:
                           1         2         3
     Eigenvalues --   976.070733791.268464239.38015
           X            0.99983  -0.01825   0.00181
           Y            0.01822   0.99976   0.01228
           Z           -0.00203  -0.01224   0.99992
 This molecule is an asymmetric top.
 Rotational symmetry number  1.
 Warning -- assumption of classical behavior for rotation
           may cause significant error
 Rotational temperatures (Kelvin)      0.08874     0.02285     0.02043
 Rotational constants (GHZ):           1.84899     0.47603     0.42571
 Zero-point vibrational energy     601171.3 (Joules/Mol)
                                  143.68338 (Kcal/Mol)
 Warning -- explicit consideration of  17 degrees of freedom as
           vibrations may cause significant error
 Vibrational temperatures:     27.33    53.36    83.39   101.28   150.65
          (Kelvin)            172.55   227.14   301.09   358.15   406.47
                              447.55   481.34   564.97   654.39   770.54
                              813.38   833.19   935.66  1029.24  1147.32
                             1182.51  1241.38  1303.13  1342.01  1364.44
                             1413.07  1443.67  1456.22  1480.74  1501.86
                             1535.47  1603.93  1607.66  1649.25  1677.93
                             1733.14  1777.57  1811.06  1850.39  1897.27
                             1913.07  1940.48  1944.76  2014.98  2018.81
                             2031.07  2054.57  2092.60  2122.00  2148.02
                             2158.95  2170.81  2180.25  2199.50  2234.80
                             2494.46  3856.54  4290.37  4326.28  4336.34
                             4380.51  4396.78  4402.05  4406.62  4436.87
                             4446.91  4461.28  4463.09  4506.85  4521.36
                             4560.58  4665.33

 Zero-point correction=                           0.228974 (Hartree/Particle)
 Thermal correction to Energy=                    0.241677
 Thermal correction to Enthalpy=                  0.242622
 Thermal correction to Gibbs Free Energy=         0.187471
 Sum of electronic and zero-point Energies=           -787.669220
 Sum of electronic and thermal Energies=              -787.656517
 Sum of electronic and thermal Enthalpies=            -787.655573
 Sum of electronic and thermal Free Energies=         -787.710724

                     E (Thermal)             CV                S
                      KCal/Mol        Cal/Mol-Kelvin    Cal/Mol-Kelvin
 Total                  151.655             44.724            116.075
 Electronic               0.000              0.000              0.000
 Translational            0.889              2.981             41.121
 Rotational               0.889              2.981             31.129
 Vibrational            149.877             38.762             43.825
 Vibration     1          0.593              1.986              6.736
 Vibration     2          0.594              1.982              5.409
 Vibration     3          0.596              1.974              4.525
 Vibration     4          0.598              1.968              4.142
 Vibration     5          0.605              1.945              3.365
 Vibration     6          0.609              1.933              3.101
 Vibration     7          0.621              1.894              2.575
 Vibration     8          0.642              1.827              2.050
 Vibration     9          0.662              1.765              1.738
 Vibration    10          0.682              1.706              1.518
 Vibration    11          0.700              1.653              1.357
 Vibration    12          0.716              1.607              1.238
 Vibration    13          0.760              1.486              0.990
 Vibration    14          0.813              1.350              0.781
 Vibration    15          0.891              1.171              0.575
 Vibration    16          0.921              1.106              0.513
 Vibration    17          0.936              1.076              0.487

 Optimization completed.
    -- Stationary point found.
 Normal termination of Gaussian 16 at Tue Dec  8 13:23:26 2020.

 ----------------------------------------------------------------------
 # B3LYP/6-311++G(d,p) empiricaldispersion=gd3bj scf=xqc pop=npa geom=c
 heck
 ----------------------------------------------------------------------

 -------------------------------------
 CID_80023386_JID_876_Energie_neutraal
 -------------------------------------
 Structure from the checkpoint file:  "JID_876.chk"
 Charge =  0 Multiplicity = 1

 SCF Done:  E(RB3LYP) =  -788.043785841     A.U. after   14 cycles
 Normal termination of Gaussian 16 at Tue Dec  8 13:31:00 2020.

 ----------------------------------------------------------------------
 # B3LYP/6-311++G(d,p) empiricaldispersion=gd3bj scf=xqc pop=npa geom=c
 heck
 ----------------------------------------------------------------------

 -----------------------------------
 CID_80023386_JID_876_Energie_kation
 -----------------------------------
 Structure from the checkpoint file:  "JID_876.chk"
 Charge =  1 Multiplicity = 2

 SCF Done:  E(UB3LYP) =  -787.733523472     A.U. after   26 cycles
 Normal termination of Gaussian 16 at Tue Dec  8 13:37:56 2020.
 Gaussian 16:  ES64L-G16RevA.03 25-Dec-2016

 ----------------------------------------------------------------------
 # B3LYP/6-311++G(d,p) empiricaldispersion=gd3bj scf=xqc pop=npa geom=c
 heck
 ----------------------------------------------------------------------

 ----------------------------------
 CID_80023386_JID_876_Energie_anion
 ----------------------------------
 Structure from the checkpoint file:  "JID_876.chk"
 Charge = -1 Multiplicity = 2

                         Standard orientation:
 ---------------------------------------------------------------------
 Center     Atomic      Atomic             Coordinates (Angstroms)
 Number     Number       Type             X           Y           Z
 ---------------------------------------------------------------------
      1          6           0       -2.855953    1.962904    0.046004
      2          6           0       -3.442352    0.810948    0.373412
      3          6           0       -3.215249   -0.546770   -0.249224
      4          6           0       -1.902402   -0.787928   -1.008744
      5          8           0       -0.832063   -1.227283   -0.189983
      6          6           0       -0.272768   -0.245242    0.668328
      7          6           0        0.991335   -0.821856    1.293713
      8          6           0        2.015598   -1.332918    0.272448
      9          6           0        2.424467   -0.322348   -0.800416
     10         16           0        3.255236    1.202702   -0.177287
     11          1           0       -2.089729    2.036194   -0.720673
     12          1           0       -3.125473    2.890631    0.542538
     13          1           0       -4.209559    0.828146    1.148628
     14          1           0       -3.288754   -1.323187    0.523894
     15          1           0       -4.052555   -0.743262   -0.936975
     16          1           0       -2.053293   -1.600403   -1.726031
     17          1           0       -1.604316    0.103909   -1.582273
     18          1           0       -0.045361    0.667071    0.091241
     19          1           0       -0.985028    0.048944    1.450986
     20          1           0        1.442180   -0.049719    1.929788
     21          1           0        0.712008   -1.649921    1.955986
     22          1           0        2.910507   -1.675915    0.804193
     23          1           0        1.588909   -2.199847   -0.246071
     24          1           0        3.165642   -0.767995   -1.470692
     25          1           0        1.569780   -0.033820   -1.418160
     26          1           0        2.181705    1.743462    0.436959
 ---------------------------------------------------------------------

 SCF Done:  E(UB3LYP) =  -788.028401947     A.U. after   32 cycles

 The electronic state is 2-A.
 Alpha  occ. eigenvalues --  -88.74258 -19.02181 -10.11490 -10.11143 -10.10249
 Alpha  occ. eigenvalues --  -10.07478 -10.07245 -10.07138 -10.06936 -10.05901
 Alpha  occ. eigenvalues --   -7.82940  -5.79304  -5.78972  -5.78328  -0.93498
 Alpha  occ. eigenvalues --   -0.71839  -0.69718  -0.66251  -0.62242  -0.59177
 Alpha  occ. eigenvalues --   -0.54625  -0.51735  -0.46606  -0.44332  -0.40253
 Alpha  occ. eigenvalues --   -0.38984  -0.38309  -0.35787  -0.34355  -0.34108
 Alpha  occ. eigenvalues --   -0.31695  -0.31340  -0.30328  -0.28775  -0.26758
 Alpha  occ. eigenvalues --   -0.25662  -0.25408  -0.23912  -0.23690  -0.22388
 Alpha  occ. eigenvalues --   -0.21229  -0.16898  -0.15013  -0.14264   0.04586
 Alpha virt. eigenvalues --    0.06575   0.07083   0.07753   0.08439   0.09178
 Alpha virt. eigenvalues --    0.09586   0.09782   0.10604   0.10841   0.11112
 Alpha virt. eigenvalues --    0.11687   0.12189   0.12798   0.13134   0.14309

  Beta  occ. eigenvalues --  -88.74244 -19.02173 -10.11468 -10.11123 -10.10224
  Beta  occ. eigenvalues --  -10.07459 -10.07235 -10.07113 -10.06924 -10.05869
  Beta  occ. eigenvalues --   -7.82924  -5.79276  -5.78963  -5.78317  -0.93483
  Beta  occ. eigenvalues --   -0.71805  -0.69667  -0.66207  -0.62191  -0.59122
  Beta  occ. eigenvalues --   -0.54558  -0.51658  -0.46548  -0.44254  -0.40208
  Beta  occ. eigenvalues --   -0.38935  -0.38264  -0.35738  -0.34308  -0.34073
  Beta  occ. eigenvalues --   -0.31645  -0.31284  -0.30284  -0.28733  -0.26711
  Beta  occ. eigenvalues --   -0.25619  -0.25371  -0.23872  -0.23645  -0.22343
  Beta  occ. eigenvalues --   -0.21186  -0.16854  -0.14973  -0.14229
  Beta virt. eigenvalues --    0.06743   0.07569   0.07758   0.08175   0.09112
  Beta virt. eigenvalues --    0.09485   0.09975   0.10157   0.10766   0.11270
  Beta virt. eigenvalues --    0.11522   0.12145   0.12490   0.13080   0.13341

 Mulliken charges and spin densities:
               1          2
     1  C    1.042303  -1.542322
     2  C   -0.944464   1.191015
     3  C    1.689181  -2.186346
     4  C   -0.370894   0.235543
     5  O   -0.118226   0.050844
     6  C   -0.366869   0.066429
     7  C    0.073623  -0.640643
     8  C   -0.363614   0.150105
     9  C    0.451333  -0.619779
    10  S    0.182902  -0.366970
    11  H   -0.396346   0.499958
    12  H   -0.230307   0.361977
    13  H   -0.838832   1.026718
    14  H    0.149843   0.009821
    15  H   -0.631753   0.805498
    16  H   -0.263709   0.441749
    17  H    0.197084  -0.109525
    18  H    0.765814  -0.648527
    19  H   -0.051006   0.221258
    20  H   -0.053855   0.221067
    21  H    0.005422   0.161493
    22  H   -0.077937   0.192704
    23  H    0.072723   0.098483
    24  H   -0.384007   0.632778
    25  H   -0.208548   0.366105
    26  H   -0.329863   0.380566
 Sum of Mulliken charges =  -1.00000   1.00000

 Dipole moment (field-independent basis, Debye):
    X=              4.2085    Y=             -1.2515    Z=              0.8338  Tot=              4.4691
 Quadrupole moment (field-independent basis, Debye-Ang):
   XX=           -156.8608   YY=           -109.6814   ZZ=           -105.2369
   XY=              2.1241   XZ=              2.9783   YZ=             -3.3782

 Summary of Natural Population Analysis:

                                       Natural Population
                Natural  -----------------------------------------------
    Atom  No    Charge         Core      Valence    Rydberg      Total
 -----------------------------------------------------------------------
      C    1   -0.19693      0.99955     2.19030    0.00708     3.19693
      C    2   -0.08271      0.99957     2.07111    0.01203     3.08271
      C    3   -0.22780      0.99960     2.21859    0.00960     3.22780
      C    4   -0.00580      0.99958     1.99200    0.01422     3.00580
      O    5   -0.30520      0.99988     3.29550    0.00982     4.30520
      C    6   -0.01299      0.99957     2.00032    0.01310     3.01299
      C    7   -0.19967      0.99962     2.19129    0.00876     3.19967
      C    8   -0.19613      0.99961     2.18772    0.00880     3.19613
      C    9   -0.24434      0.99958     2.23381    0.01094     3.24434
      S   10   -0.03238      4.99967     3.01722    0.01549     8.03238
      H   11    0.08943      0.00000     0.40885    0.00172     0.41057
      H   12    0.09589      0.00000     0.40255    0.00156     0.40411
      H   13    0.09481      0.00000     0.40335    0.00184     0.40519
      H   14    0.10576      0.00000     0.39271    0.00153     0.39424
      H   15    0.11059      0.00000     0.38690    0.00251     0.38941
      H   16    0.09227      0.00000     0.40619    0.00154     0.40773
      H   17    0.07802      0.00000     0.42037    0.00160     0.42198
      H   18    0.07612      0.00000     0.42151    0.00237     0.42388
      H   19    0.08826      0.00000     0.41000    0.00174     0.41174
      H   20    0.10008      0.00000     0.39846    0.00145     0.39992
      H   21    0.10037      0.00000     0.39835    0.00128     0.39963
      H   22    0.09765      0.00000     0.40087    0.00148     0.40235
      H   23    0.10575      0.00000     0.39252    0.00174     0.39425
      H   24    0.10578      0.00000     0.39273    0.00148     0.39422
      H   25    0.10386      0.00000     0.39452    0.00162     0.39614
      H   26    0.05930      0.00000     0.43752    0.00318     0.44070
 =======================================================================
   * Total *   -0.00000     13.99623    29.86528    0.13849    44.00000

 Normal termination of Gaussian 16 at Tue Dec  8 13:49:16 2020.
