 Gaussian 16, Revision A.03,

 -----------------------------------------------------------
 # opt freq B3LYP/6-31G(d) empiricaldispersion=gd3bj scf=xqc
 -----------------------------------------------------------

 ------------------------------
 CID_58695995_JID_2550_neutraal
 ------------------------------
 Symbolic Z-matrix:
 Charge =  0 Multiplicity = 1

 SCF Done:  E(RB3LYP) =  -846.691589865     A.U. after   13 cycles
 SCF Done:  E(RB3LYP) =  -846.695152991     A.U. after   11 cycles
 SCF Done:  E(RB3LYP) =  -846.695356869     A.U. after   11 cycles
 SCF Done:  E(RB3LYP) =  -846.696861706     A.U. after   11 cycles
 SCF Done:  E(RB3LYP) =  -846.697159040     A.U. after   11 cycles
 SCF Done:  E(RB3LYP) =  -846.698852039     A.U. after   11 cycles
 SCF Done:  E(RB3LYP) =  -846.699550592     A.U. after   11 cycles
 SCF Done:  E(RB3LYP) =  -846.699792603     A.U. after   11 cycles
 SCF Done:  E(RB3LYP) =  -846.699992555     A.U. after   10 cycles
 SCF Done:  E(RB3LYP) =  -846.700095964     A.U. after   10 cycles
 SCF Done:  E(RB3LYP) =  -846.700155699     A.U. after    9 cycles
 SCF Done:  E(RB3LYP) =  -846.700161905     A.U. after    8 cycles
 SCF Done:  E(RB3LYP) =  -846.700163097     A.U. after    7 cycles
 SCF Done:  E(RB3LYP) =  -846.700163422     A.U. after    7 cycles
 SCF Done:  E(RB3LYP) =  -846.700163501     A.U. after    6 cycles
 SCF Done:  E(RB3LYP) =  -846.700163528     A.U. after    6 cycles
 Optimization completed.
    -- Stationary point found.
 Normal termination of Gaussian 16 at Wed Dec  9 17:44:28 2020.

 --------------------------------------------------------------------
 #N Geom=AllCheck Guess=TCheck SCRF=Check GenChk RB3LYP/6-31G(d) Freq
 --------------------------------------------------------------------

 Structure from the checkpoint file:  "JID_2550.chk"
 ------------------------------
 CID_58695995_JID_2550_neutraal
 ------------------------------
 Charge =  0 Multiplicity = 1

 SCF Done:  E(RB3LYP) =  -846.700163528     A.U. after    1 cycles

  Exact polarizability: 134.841   2.498 126.505  -0.820  -3.020 115.980
 Approx polarizability: 170.189   2.388 182.796  -3.651  -5.719 180.003

                      1                      2                      3
                      A                      A                      A
 Frequencies --     57.6195                62.9094                75.9151
 Red. masses --      3.8400                 2.7741                 2.5131
 Frc consts  --      0.0075                 0.0065                 0.0085
 IR Inten    --      0.1240                 0.0549                 0.5740

                      4                      5                      6
                      A                      A                      A
 Frequencies --    132.6127               149.6332               157.4589
 Red. masses --      2.9155                 2.1869                 2.5469
 Frc consts  --      0.0302                 0.0288                 0.0372
 IR Inten    --      2.8751                 0.0899                 0.6393

                      7                      8                      9
                      A                      A                      A
 Frequencies --    181.7787               213.9577               216.1239
 Red. masses --      2.3425                 1.3678                 1.1872
 Frc consts  --      0.0456                 0.0369                 0.0327
 IR Inten    --      0.1239                 0.0611                 0.1229

                     10                     11                     12
                      A                      A                      A
 Frequencies --    231.5169               244.8159               255.9423
 Red. masses --      1.6027                 1.6038                 2.5141
 Frc consts  --      0.0506                 0.0566                 0.0970
 IR Inten    --      0.1291                 0.7415                 0.2901

                     13                     14                     15
                      A                      A                      A
 Frequencies --    312.8140               342.5590               376.2361
 Red. masses --      2.2104                 2.0546                 3.0022
 Frc consts  --      0.1274                 0.1421                 0.2504
 IR Inten    --      0.7617                 1.9503                 0.9468

                     16                     17                     18
                      A                      A                      A
 Frequencies --    378.7501               445.2134               461.6661
 Red. masses --      3.2663                 2.4736                 3.0330
 Frc consts  --      0.2761                 0.2889                 0.3809
 IR Inten    --      3.7335                 0.7237                 0.1323

                     19                     20                     21
                      A                      A                      A
 Frequencies --    523.6452               595.6676               646.1777
 Red. masses --      2.6849                 2.4418                 2.4226
 Frc consts  --      0.4338                 0.5105                 0.5960
 IR Inten    --      1.4072                 1.4217                 2.2224

                     22                     23                     24
                      A                      A                      A
 Frequencies --    656.7336               722.7885               784.2749
 Red. masses --      2.9700                 5.3950                 1.3847
 Frc consts  --      0.7547                 1.6606                 0.5018
 IR Inten    --      5.4055                 1.4604                 3.7719

                     25                     26                     27
                      A                      A                      A
 Frequencies --    840.1958               869.8207               877.5147
 Red. masses --      1.8539                 2.3827                 3.0327
 Frc consts  --      0.7711                 1.0621                 1.3759
 IR Inten    --      1.2440                 2.7018                 4.2073

                     28                     29                     30
                      A                      A                      A
 Frequencies --    909.2669               928.1532               934.5384
 Red. masses --      1.7061                 1.6904                 2.2819
 Frc consts  --      0.8311                 0.8580                 1.1742
 IR Inten    --      9.3880                 1.1994                 5.0077

                     31                     32                     33
                      A                      A                      A
 Frequencies --    948.1185               978.5492               993.4214
 Red. masses --      1.6140                 1.9504                 1.2590
 Frc consts  --      0.8548                 1.1004                 0.7321
 IR Inten    --     11.8420                11.1262                 2.7461

                     34                     35                     36
                      A                      A                      A
 Frequencies --   1003.9095              1039.2074              1044.3329
 Red. masses --      1.3052                 1.4568                 2.0557
 Frc consts  --      0.7750                 0.9270                 1.3210
 IR Inten    --     12.2756                 0.6642                11.8744

                     37                     38                     39
                      A                      A                      A
 Frequencies --   1057.8862              1097.3306              1108.2572
 Red. masses --      2.0663                 2.1345                 2.6691
 Frc consts  --      1.3625                 1.5143                 1.9315
 IR Inten    --      5.3274                16.3284                 5.1030

                     40                     41                     42
                      A                      A                      A
 Frequencies --   1112.0618              1135.8885              1170.6358
 Red. masses --      1.8889                 1.6251                 1.5036
 Frc consts  --      1.3763                 1.2354                 1.2140
 IR Inten    --      7.8266                 8.8562                13.3083

                     43                     44                     45
                      A                      A                      A
 Frequencies --   1177.9111              1213.2976              1234.7526
 Red. masses --      1.5695                 1.4633                 2.1772
 Frc consts  --      1.2830                 1.2692                 1.9557
 IR Inten    --      3.2090                 5.2378                 9.5151

                     46                     47                     48
                      A                      A                      A
 Frequencies --   1257.0054              1279.4352              1302.7411
 Red. masses --      1.4858                 1.8211                 1.3427
 Frc consts  --      1.3832                 1.7564                 1.3426
 IR Inten    --      2.6992                22.2979                 0.8615

                     49                     50                     51
                      A                      A                      A
 Frequencies --   1307.3655              1317.7425              1324.2009
 Red. masses --      1.2080                 1.2485                 1.2984
 Frc consts  --      1.2165                 1.2773                 1.3414
 IR Inten    --      1.3895                 1.8914                 4.8139

                     52                     53                     54
                      A                      A                      A
 Frequencies --   1338.0416              1352.0277              1361.2845
 Red. masses --      1.2766                 1.3351                 1.3421
 Frc consts  --      1.3466                 1.4379                 1.4653
 IR Inten    --      0.5100                 5.8141                 2.5441

                     55                     56                     57
                      A                      A                      A
 Frequencies --   1367.9249              1377.4303              1395.6848
 Red. masses --      1.3339                 1.2525                 1.3691
 Frc consts  --      1.4706                 1.4001                 1.5713
 IR Inten    --      4.6024                14.4083                13.7189

                     58                     59                     60
                      A                      A                      A
 Frequencies --   1414.5391              1431.1744              1445.4132
 Red. masses --      1.3862                 1.3239                 1.2631
 Frc consts  --      1.6342                 1.5976                 1.5548
 IR Inten    --     16.2984                 1.6594                 7.2964

                     61                     62                     63
                      A                      A                      A
 Frequencies --   1485.2079              1494.2531              1514.0198
 Red. masses --      1.1753                 1.0707                 1.0577
 Frc consts  --      1.5275                 1.4085                 1.4284
 IR Inten    --      6.6265                 1.2026                 4.9384

                     64                     65                     66
                      A                      A                      A
 Frequencies --   1518.1218              1520.6512              1522.9388
 Red. masses --      1.0712                 1.0576                 1.0795
 Frc consts  --      1.4545                 1.4409                 1.4751
 IR Inten    --      2.0112                 6.9134                 2.4283

                     67                     68                     69
                      A                      A                      A
 Frequencies --   1525.7534              1530.8520              1535.1976
 Red. masses --      1.0590                 1.0691                 1.0769
 Frc consts  --      1.4525                 1.4761                 1.4954
 IR Inten    --      4.6864                14.2874                 4.3045

                     70                     71                     72
                      A                      A                      A
 Frequencies --   1539.2510              1542.1368              1548.3514
 Red. masses --      1.0537                 1.1043                 1.0687
 Frc consts  --      1.4709                 1.5473                 1.5095
 IR Inten    --      2.7828                 3.0716                 8.0158

                     73                     74                     75
                      A                      A                      A
 Frequencies --   2872.8667              2909.0067              2936.1917
 Red. masses --      1.0809                 1.0737                 1.0633
 Frc consts  --      5.2562                 5.3531                 5.4012
 IR Inten    --     46.5199                76.1444               122.9277

                     76                     77                     78
                      A                      A                      A
 Frequencies --   3046.8297              3048.4814              3049.5274
 Red. masses --      1.0435                 1.0584                 1.0676
 Frc consts  --      5.7073                 5.7952                 5.8495
 IR Inten    --     35.3847                25.7463                30.7377

                     79                     80                     81
                      A                      A                      A
 Frequencies --   3058.7319              3062.5594              3074.1862
 Red. masses --      1.0453                 1.0493                 1.0979
 Frc consts  --      5.7623                 5.7987                 6.1135
 IR Inten    --     14.0685                36.4241                10.9870

                     82                     83                     84
                      A                      A                      A
 Frequencies --   3076.0312              3085.5246              3102.8820
 Red. masses --      1.0632                 1.0875                 1.0948
 Frc consts  --      5.9272                 6.1004                 6.2101
 IR Inten    --     21.2748                10.4034                27.8280

                     85                     86                     87
                      A                      A                      A
 Frequencies --   3105.8878              3111.4116              3118.0528
 Red. masses --      1.0949                 1.0969                 1.0980
 Frc consts  --      6.2232                 6.2566                 6.2896
 IR Inten    --      9.5996                52.0195                35.9285

                     88                     89                     90
                      A                      A                      A
 Frequencies --   3121.0921              3122.2609              3134.8253
 Red. masses --      1.0733                 1.1037                 1.1009
 Frc consts  --      6.1599                 6.3395                 6.3741
 IR Inten    --     48.4519                42.3269                39.5638

                     91                     92                     93
                      A                      A                      A
 Frequencies --   3139.1708              3168.0831              3175.6749
 Red. masses --      1.1020                 1.1000                 1.1051
 Frc consts  --      6.3980                 6.5051                 6.5661
 IR Inten    --     12.5148                17.5329                 1.6930

 - Thermochemistry -
 -------------------
 Temperature   298.150 Kelvin.  Pressure   1.00000 Atm.
 Atom     1 has atomic number  6 and mass  12.00000

 Molecular mass:   187.13947 amu.
 Principal axes and moments of inertia in atomic units:
                           1         2         3
     Eigenvalues --  1665.034823084.204323670.79911
           X            0.99956   0.02941   0.00349
           Y           -0.02927   0.99898  -0.03431
           Z           -0.00449   0.03419   0.99941
 This molecule is an asymmetric top.
 Rotational symmetry number  1.
 Warning -- assumption of classical behavior for rotation
           may cause significant error
 Rotational temperatures (Kelvin)      0.05202     0.02808     0.02360
 Rotational constants (GHZ):           1.08391     0.58516     0.49165
 Zero-point vibrational energy     795336.5 (Joules/Mol)
                                  190.08999 (Kcal/Mol)
 Warning -- explicit consideration of  20 degrees of freedom as
           vibrations may cause significant error
 Vibrational temperatures:     82.90    90.51   109.22   190.80   215.29
          (Kelvin)            226.55   261.54   307.84   310.95   333.10
                              352.24   368.24   450.07   492.87   541.32
                              544.94   640.56   664.23   753.41   857.03
                              929.71   944.89  1039.93  1128.40  1208.85
                             1251.48  1262.55  1308.23  1335.41  1344.59
                             1364.13  1407.91  1429.31  1444.40  1495.19
                             1502.56  1522.06  1578.81  1594.53  1600.01
                             1634.29  1684.28  1694.75  1745.66  1776.53
                             1808.55  1840.82  1874.35  1881.01  1895.94
                             1905.23  1925.14  1945.27  1958.58  1968.14
                             1981.82  2008.08  2035.21  2059.14  2079.63
                             2136.88  2149.90  2178.34  2184.24  2187.88
                             2191.17  2195.22  2202.55  2208.81  2214.64
                             2218.79  2227.73  4133.41  4185.41  4224.53
                             4383.71  4386.08  4387.59  4400.83  4406.34
                             4423.07  4425.72  4439.38  4464.36  4468.68
                             4476.63  4486.18  4490.56  4492.24  4510.31
                             4516.57  4558.17  4569.09

 Zero-point correction=                           0.302928 (Hartree/Particle)
 Thermal correction to Energy=                    0.316993
 Thermal correction to Enthalpy=                  0.317937
 Thermal correction to Gibbs Free Energy=         0.262592
 Sum of electronic and zero-point Energies=           -846.397236
 Sum of electronic and thermal Energies=              -846.383171
 Sum of electronic and thermal Enthalpies=            -846.382227
 Sum of electronic and thermal Free Energies=         -846.437572

                     E (Thermal)             CV                S
                      KCal/Mol        Cal/Mol-Kelvin    Cal/Mol-Kelvin
 Total                  198.916             53.222            116.483
 Electronic               0.000              0.000              0.000
 Translational            0.889              2.981             41.586
 Rotational               0.889              2.981             31.311
 Vibrational            197.138             47.261             43.586
 Vibration     1          0.596              1.974              4.537
 Vibration     2          0.597              1.972              4.364
 Vibration     3          0.599              1.965              3.994
 Vibration     4          0.613              1.921              2.908
 Vibration     5          0.618              1.903              2.677
 Vibration     6          0.621              1.894              2.580
 Vibration     7          0.630              1.865              2.310
 Vibration     8          0.644              1.820              2.010
 Vibration     9          0.645              1.816              1.991
 Vibration    10          0.653              1.793              1.867
 Vibration    11          0.660              1.771              1.768
 Vibration    12          0.666              1.753              1.689
 Vibration    13          0.701              1.649              1.347
 Vibration    14          0.722              1.590              1.200
 Vibration    15          0.747              1.521              1.054
 Vibration    16          0.749              1.515              1.044
 Vibration    17          0.805              1.371              0.810
 Vibration    18          0.819              1.335              0.761
 Vibration    19          0.879              1.198              0.602
 Vibration    20          0.953              1.041              0.457

 Optimization completed.
    -- Stationary point found.
 Normal termination of Gaussian 16 at Wed Dec  9 17:54:38 2020.

 ----------------------------------------------------------------------
 # B3LYP/6-311++G(d,p) empiricaldispersion=gd3bj scf=xqc pop=npa geom=c
 heck
 ----------------------------------------------------------------------

 --------------------------------------
 CID_58695995_JID_2550_Energie_neutraal
 --------------------------------------
 Structure from the checkpoint file:  "JID_2550.chk"
 Charge =  0 Multiplicity = 1

 SCF Done:  E(RB3LYP) =  -846.850617919     A.U. after   13 cycles
 Normal termination of Gaussian 16 at Wed Dec  9 17:59:34 2020.

 ----------------------------------------------------------------------
 # B3LYP/6-311++G(d,p) empiricaldispersion=gd3bj scf=xqc pop=npa geom=c
 heck
 ----------------------------------------------------------------------

 ------------------------------------
 CID_58695995_JID_2550_Energie_kation
 ------------------------------------
 Structure from the checkpoint file:  "JID_2550.chk"
 Charge =  1 Multiplicity = 2

 SCF Done:  E(UB3LYP) =  -846.568558906     A.U. after   20 cycles
 Normal termination of Gaussian 16 at Wed Dec  9 18:10:31 2020.
 Gaussian 16:  ES64L-G16RevA.03 25-Dec-2016

 ----------------------------------------------------------------------
 # B3LYP/6-311++G(d,p) empiricaldispersion=gd3bj scf=xqc pop=npa geom=c
 heck
 ----------------------------------------------------------------------

 -----------------------------------
 CID_58695995_JID_2550_Energie_anion
 -----------------------------------
 Structure from the checkpoint file:  "JID_2550.chk"
 Charge = -1 Multiplicity = 2

                         Standard orientation:
 ---------------------------------------------------------------------
 Center     Atomic      Atomic             Coordinates (Angstroms)
 Number     Number       Type             X           Y           Z
 ---------------------------------------------------------------------
      1          6           0       -3.230692   -0.806182    1.010965
      2          6           0       -3.310105    0.479281    0.185265
      3          6           0       -1.953671    1.176091    0.024140
      4          7           0       -0.909161    0.302145   -0.515659
      5          6           0       -1.240326   -0.139249   -1.867239
      6          6           0        0.416851    0.913275   -0.494814
      7          6           0        0.802724    1.650972    0.798260
      8          6           0        2.315662    1.841281    0.642464
      9          6           0        2.798548    0.490457    0.086871
     10          6           0        1.608530   -0.086042   -0.731676
     11         16           0        1.294946   -1.866098   -0.384542
     12          6           0        0.726244   -1.834787    1.347159
     13          1           0       -2.591974   -1.547773    0.522427
     14          1           0       -4.223718   -1.246011    1.155419
     15          1           0       -2.803989   -0.607398    2.002056
     16          1           0       -3.754235    0.267280   -0.794651
     17          1           0       -3.986911    1.194896    0.670033
     18          1           0       -2.081528    2.086678   -0.597205
     19          1           0       -1.634214    1.509259    1.015111
     20          1           0       -1.371167    0.712314   -2.564110
     21          1           0       -0.451704   -0.789129   -2.247245
     22          1           0       -2.163290   -0.723494   -1.861443
     23          1           0        0.492117    1.665453   -1.309437
     24          1           0        0.273976    2.600200    0.921777
     25          1           0        0.581970    1.024746    1.671355
     26          1           0        2.810968    2.114518    1.579682
     27          1           0        2.510278    2.647108   -0.076596
     28          1           0        3.041390   -0.184765    0.912936
     29          1           0        3.703255    0.575130   -0.522484
     30          1           0        1.856269   -0.108605   -1.796729
     31          1           0        1.465808   -1.371643    2.008098
     32          1           0       -0.227367   -1.309687    1.413968
     33          1           0        0.596475   -2.877095    1.650952
 ---------------------------------------------------------------------

 SCF Done:  E(UB3LYP) =  -846.834391823     A.U. after   28 cycles

 The electronic state is 2-A.
 Alpha  occ. eigenvalues --  -88.73248 -14.20285 -10.10028 -10.10006 -10.08688
 Alpha  occ. eigenvalues --  -10.08686 -10.08050 -10.06695 -10.06547 -10.06308
 Alpha  occ. eigenvalues --  -10.06249 -10.05594  -7.81862  -5.78273  -5.77892
 Alpha  occ. eigenvalues --   -5.77216  -0.82718  -0.73850  -0.67673  -0.67506
 Alpha  occ. eigenvalues --   -0.61711  -0.60597  -0.59043  -0.54541  -0.51926
 Alpha  occ. eigenvalues --   -0.48553  -0.46234  -0.43544  -0.39944  -0.39550
 Alpha  occ. eigenvalues --   -0.36523  -0.35058  -0.33822  -0.33603  -0.32835
 Alpha  occ. eigenvalues --   -0.31864  -0.30424  -0.29984  -0.29383  -0.28327
 Alpha  occ. eigenvalues --   -0.26436  -0.26272  -0.25058  -0.24661  -0.23942
 Alpha  occ. eigenvalues --   -0.23416  -0.22735  -0.22328  -0.21886  -0.19952
 Alpha  occ. eigenvalues --   -0.11904  -0.11797   0.04589
 Alpha virt. eigenvalues --    0.06518   0.06920   0.07584   0.08594   0.08799
 Alpha virt. eigenvalues --    0.09282   0.09602   0.10295   0.11024   0.11325
 Alpha virt. eigenvalues --    0.11441   0.12268   0.12888   0.13179   0.13442

  Beta  occ. eigenvalues --  -88.73246 -14.20269 -10.10022 -10.09994 -10.08673
  Beta  occ. eigenvalues --  -10.08669 -10.08034 -10.06677 -10.06527 -10.06279
  Beta  occ. eigenvalues --  -10.06230 -10.05571  -7.81860  -5.78271  -5.77888
  Beta  occ. eigenvalues --   -5.77214  -0.82688  -0.73820  -0.67650  -0.67472
  Beta  occ. eigenvalues --   -0.61676  -0.60556  -0.59004  -0.54497  -0.51881
  Beta  occ. eigenvalues --   -0.48483  -0.46170  -0.43506  -0.39913  -0.39497
  Beta  occ. eigenvalues --   -0.36488  -0.35027  -0.33777  -0.33573  -0.32809
  Beta  occ. eigenvalues --   -0.31840  -0.30394  -0.29956  -0.29349  -0.28295
  Beta  occ. eigenvalues --   -0.26406  -0.26247  -0.25021  -0.24620  -0.23899
  Beta  occ. eigenvalues --   -0.23388  -0.22697  -0.22287  -0.21851  -0.19932
  Beta  occ. eigenvalues --   -0.11867  -0.11741
  Beta virt. eigenvalues --    0.06731   0.07395   0.07500   0.08188   0.09116
  Beta virt. eigenvalues --    0.09285   0.09785   0.09989   0.10571   0.11495
  Beta virt. eigenvalues --    0.11706   0.11912   0.12573   0.13046   0.13412

 Mulliken charges and spin densities:
               1          2
     1  C    0.487348  -0.981191
     2  C   -0.276946  -0.129181
     3  C    0.211294  -0.357957
     4  N    0.404521   0.022746
     5  C    0.465174  -0.756782
     6  C   -1.096253   0.105232
     7  C    0.026214  -0.085451
     8  C    0.468358  -1.182871
     9  C    0.104202  -0.739182
    10  C    0.546725   0.213071
    11  S   -0.409705   0.285254
    12  C   -0.106556  -0.479983
    13  H   -0.019406   0.159869
    14  H   -0.301102   0.450009
    15  H   -0.062223   0.198342
    16  H   -0.013682   0.157547
    17  H   -0.402314   0.549922
    18  H   -0.057900   0.200619
    19  H   -0.094034   0.260879
    20  H   -0.203742   0.330105
    21  H    0.056935   0.028855
    22  H    0.131556   0.007534
    23  H   -0.122407   0.255382
    24  H   -0.267893   0.453615
    25  H    0.027474   0.122400
    26  H   -0.500433   0.677190
    27  H   -0.172391   0.316662
    28  H    0.210898  -0.062545
    29  H   -0.240629   0.387503
    30  H   -0.028799   0.351305
    31  H   -0.119001   0.266108
    32  H    0.281209  -0.120027
    33  H    0.073508   0.095020
 Sum of Mulliken charges =  -1.00000   1.00000

 Dipole moment (field-independent basis, Debye):
    X=              0.5734    Y=             -3.6656    Z=             -1.0134  Tot=              3.8461
 Quadrupole moment (field-independent basis, Debye-Ang):
   XX=           -154.2840   YY=           -132.9666   ZZ=           -124.0009
   XY=             -4.6148   XZ=              4.8125   YZ=             -1.6710

 Summary of Natural Population Analysis:

                                       Natural Population
                Natural  -----------------------------------------------
    Atom  No    Charge         Core      Valence    Rydberg      Total
 -----------------------------------------------------------------------
      C    1   -0.28800      0.99966     2.28197    0.00637     3.28800
      C    2   -0.19355      0.99964     2.18591    0.00800     3.19355
      C    3   -0.08196      0.99960     2.07045    0.01191     3.08196
      N    4   -0.28918      0.99969     2.77532    0.01416     3.78918
      C    5   -0.17953      0.99963     2.17121    0.00868     3.17953
      C    6   -0.00353      0.99954     1.98951    0.01448     3.00353
      C    7   -0.19781      0.99961     2.18896    0.00924     3.19781
      C    8   -0.18890      0.99963     2.18085    0.00842     3.18890
      C    9   -0.19431      0.99961     2.18478    0.00992     3.19431
      C   10   -0.17006      0.99954     2.15638    0.01414     3.17006
      S   11    0.09107      4.99960     2.89201    0.01731     7.90893
      C   12   -0.35547      0.99961     2.34937    0.00649     3.35547
      H   13    0.10104      0.00000     0.39759    0.00137     0.39896
      H   14    0.09675      0.00000     0.40232    0.00093     0.40325
      H   15    0.09611      0.00000     0.40269    0.00120     0.40389
      H   16    0.09237      0.00000     0.40641    0.00122     0.40763
      H   17    0.09829      0.00000     0.40048    0.00122     0.40171
      H   18    0.08283      0.00000     0.41570    0.00147     0.41717
      H   19    0.09708      0.00000     0.40099    0.00193     0.40292
      H   20    0.08061      0.00000     0.41825    0.00115     0.41939
      H   21    0.10063      0.00000     0.39789    0.00149     0.39937
      H   22    0.09537      0.00000     0.40354    0.00109     0.40463
      H   23    0.08619      0.00000     0.41152    0.00229     0.41381
      H   24    0.10530      0.00000     0.39318    0.00152     0.39470
      H   25    0.09782      0.00000     0.39996    0.00222     0.40218
      H   26    0.10146      0.00000     0.39727    0.00127     0.39854
      H   27    0.09680      0.00000     0.40127    0.00194     0.40320
      H   28    0.09896      0.00000     0.39961    0.00143     0.40104
      H   29    0.10327      0.00000     0.39528    0.00145     0.39673
      H   30    0.10718      0.00000     0.39162    0.00120     0.39282
      H   31    0.09825      0.00000     0.40016    0.00158     0.40175
      H   32    0.11112      0.00000     0.38664    0.00224     0.38888
      H   33    0.10379      0.00000     0.39534    0.00087     0.39621
 =======================================================================
   * Total *   -0.00000     15.99538    35.84444    0.16018    52.00000

 Normal termination of Gaussian 16 at Wed Dec  9 18:25:01 2020.
