 Gaussian 16, Revision A.03,

 -----------------------------------------------------------
 # opt freq B3LYP/6-31G(d) empiricaldispersion=gd3bj scf=xqc
 -----------------------------------------------------------

 ------------------------------
 CID_55075124_JID_7768_neutraal
 ------------------------------
 Symbolic Z-matrix:
 Charge =  0 Multiplicity = 1

 SCF Done:  E(RB3LYP) =  -763.600296661     A.U. after   15 cycles
 SCF Done:  E(RB3LYP) =  -763.606872302     A.U. after   13 cycles
 SCF Done:  E(RB3LYP) =  -763.603920485     A.U. after   13 cycles
 SCF Done:  E(RB3LYP) =  -763.607482813     A.U. after   13 cycles
 SCF Done:  E(RB3LYP) =  -763.608624953     A.U. after   13 cycles
 SCF Done:  E(RB3LYP) =  -763.608937000     A.U. after   12 cycles
 SCF Done:  E(RB3LYP) =  -763.609207289     A.U. after   12 cycles
 SCF Done:  E(RB3LYP) =  -763.609402081     A.U. after   12 cycles
 SCF Done:  E(RB3LYP) =  -763.609549194     A.U. after   12 cycles
 SCF Done:  E(RB3LYP) =  -763.609723828     A.U. after   11 cycles
 SCF Done:  E(RB3LYP) =  -763.610805160     A.U. after   10 cycles
 SCF Done:  E(RB3LYP) =  -763.610813170     A.U. after   10 cycles
 SCF Done:  E(RB3LYP) =  -763.610814511     A.U. after    8 cycles
 SCF Done:  E(RB3LYP) =  -763.610815111     A.U. after    7 cycles
 SCF Done:  E(RB3LYP) =  -763.610815257     A.U. after    7 cycles
 Optimization completed.
    -- Stationary point found.
 Normal termination of Gaussian 16 at Fri Dec 11 13:22:31 2020.

 --------------------------------------------------------------------
 #N Geom=AllCheck Guess=TCheck SCRF=Check GenChk RB3LYP/6-31G(d) Freq
 --------------------------------------------------------------------

 Structure from the checkpoint file:  "JID_7768.chk"
 ------------------------------
 CID_55075124_JID_7768_neutraal
 ------------------------------
 Charge =  0 Multiplicity = 1

 SCF Done:  E(RB3LYP) =  -763.610815257     A.U. after    1 cycles

  Exact polarizability: 196.577  -6.750 171.531   7.652  -3.242 101.758
 Approx polarizability: 260.637  -7.441 268.845  12.340  -5.901 159.767

                      1                      2                      3
                      A                      A                      A
 Frequencies --     29.9599                49.2619                59.5309
 Red. masses --      3.8789                 3.0612                 2.2222
 Frc consts  --      0.0021                 0.0044                 0.0046
 IR Inten    --      1.0406                 1.0542                 0.7302

                      4                      5                      6
                      A                      A                      A
 Frequencies --     68.8459                78.4176                86.4033
 Red. masses --      2.0067                 3.5782                 2.7700
 Frc consts  --      0.0056                 0.0130                 0.0122
 IR Inten    --      0.1613                 1.4760                 2.2343

                      7                      8                      9
                      A                      A                      A
 Frequencies --     97.2985               127.8936               131.5920
 Red. masses --      3.3667                 1.5816                 2.0984
 Frc consts  --      0.0188                 0.0152                 0.0214
 IR Inten    --      3.1400                 0.9058                 1.0856

                     10                     11                     12
                      A                      A                      A
 Frequencies --    160.1759               179.9164               204.1785
 Red. masses --      3.5459                 3.1051                 1.1211
 Frc consts  --      0.0536                 0.0592                 0.0275
 IR Inten    --      3.1804                 3.4037                 0.5389

                     13                     14                     15
                      A                      A                      A
 Frequencies --    234.8156               245.2497               255.2660
 Red. masses --      3.1019                 1.3583                 2.1022
 Frc consts  --      0.1008                 0.0481                 0.0807
 IR Inten    --      2.0286                 3.0167                 5.1787

                     16                     17                     18
                      A                      A                      A
 Frequencies --    284.6862               327.1450               354.5391
 Red. masses --      3.5222                 2.4818                 2.7472
 Frc consts  --      0.1682                 0.1565                 0.2035
 IR Inten    --      1.5105                 0.3737                16.0478

                     19                     20                     21
                      A                      A                      A
 Frequencies --    362.5343               398.1025               419.0886
 Red. masses --      3.7214                 3.2999                 2.8712
 Frc consts  --      0.2882                 0.3081                 0.2971
 IR Inten    --      0.6893                 7.6703                 6.6446

                     22                     23                     24
                      A                      A                      A
 Frequencies --    442.6812               462.5787               495.5843
 Red. masses --      3.1549                 2.8838                 2.0128
 Frc consts  --      0.3643                 0.3636                 0.2913
 IR Inten    --     12.3842                 3.5297                 3.7078

                     25                     26                     27
                      A                      A                      A
 Frequencies --    524.5408               547.7534               587.3154
 Red. masses --      4.0610                 4.2091                 4.6904
 Frc consts  --      0.6583                 0.7441                 0.9532
 IR Inten    --      1.1016                 6.2026                17.3975

                     28                     29                     30
                      A                      A                      A
 Frequencies --    597.2905               645.3338               690.3319
 Red. masses --      4.0454                 5.9514                 4.4574
 Frc consts  --      0.8503                 1.4603                 1.2516
 IR Inten    --     10.8700                 1.5326                 4.5565

                     31                     32                     33
                      A                      A                      A
 Frequencies --    769.0860               790.1846               808.3703
 Red. masses --      4.0391                 5.5817                 1.8516
 Frc consts  --      1.4076                 2.0534                 0.7129
 IR Inten    --     14.4567                 2.0840                22.1798

                     34                     35                     36
                      A                      A                      A
 Frequencies --    820.8311               840.2650               868.3759
 Red. masses --      2.3651                 1.7100                 4.1104
 Frc consts  --      0.9389                 0.7113                 1.8262
 IR Inten    --     53.6021                63.7899                 3.1619

                     37                     38                     39
                      A                      A                      A
 Frequencies --    903.0575               961.6974               970.9219
 Red. masses --      3.0066                 2.5170                 1.3734
 Frc consts  --      1.4446                 1.3716                 0.7628
 IR Inten    --     11.7169                10.2807                 0.1378

                     40                     41                     42
                      A                      A                      A
 Frequencies --    994.6046              1005.3467              1016.6789
 Red. masses --      2.0127                 2.1661                 1.3317
 Frc consts  --      1.1731                 1.2899                 0.8110
 IR Inten    --      9.9229                 6.5045                18.9140

                     43                     44                     45
                      A                      A                      A
 Frequencies --   1050.1244              1074.8363              1085.4912
 Red. masses --      2.1227                 3.2165                 1.3710
 Frc consts  --      1.3792                 2.1893                 0.9518
 IR Inten    --     74.0156                 5.7513                 3.2506

                     46                     47                     48
                      A                      A                      A
 Frequencies --   1100.2945              1127.7716              1137.8654
 Red. masses --      2.0228                 1.9560                 1.5058
 Frc consts  --      1.4428                 1.4658                 1.1487
 IR Inten    --      7.3276                72.5436                38.9395

                     49                     50                     51
                      A                      A                      A
 Frequencies --   1139.7009              1167.6130              1169.2782
 Red. masses --      1.4150                 1.3247                 1.3791
 Frc consts  --      1.0829                 1.0641                 1.1110
 IR Inten    --     37.5658                27.7609                22.9786

                     52                     53                     54
                      A                      A                      A
 Frequencies --   1186.4116              1189.9552              1194.8445
 Red. masses --      1.4474                 1.4251                 2.0825
 Frc consts  --      1.2004                 1.1889                 1.7517
 IR Inten    --      6.5316                29.4092                47.0717

                     55                     56                     57
                      A                      A                      A
 Frequencies --   1228.2785              1240.7833              1286.2974
 Red. masses --      2.2853                 1.9757                 5.0761
 Frc consts  --      2.0313                 1.7921                 4.9484
 IR Inten    --      3.4925                 7.1131                44.1406

                     58                     59                     60
                      A                      A                      A
 Frequencies --   1289.0697              1305.6771              1342.2388
 Red. masses --      2.9486                 1.6375                 1.9296
 Frc consts  --      2.8868                 1.6447                 2.0483
 IR Inten    --     11.1824                19.2411                 9.3715

                     61                     62                     63
                      A                      A                      A
 Frequencies --   1351.5079              1362.3508              1377.6330
 Red. masses --      2.6052                 1.4508                 1.2943
 Frc consts  --      2.8037                 1.5865                 1.4473
 IR Inten    --     14.9606                33.2967                 1.1639

                     64                     65                     66
                      A                      A                      A
 Frequencies --   1426.8626              1444.7234              1454.3475
 Red. masses --      1.4223                 1.4933                 1.6175
 Frc consts  --      1.7061                 1.8365                 2.0157
 IR Inten    --     16.4846                76.4860                80.2026

                     67                     68                     69
                      A                      A                      A
 Frequencies --   1471.0326              1482.7439              1483.1359
 Red. masses --      1.6087                 1.5324                 1.2321
 Frc consts  --      2.0511                 1.9850                 1.5968
 IR Inten    --     51.4147                48.4779                28.1495

                     70                     71                     72
                      A                      A                      A
 Frequencies --   1490.6125              1510.2677              1512.9765
 Red. masses --      1.2264                 1.0764                 1.4150
 Frc consts  --      1.6055                 1.4466                 1.9084
 IR Inten    --     18.2205                 2.9842                42.5636

                     73                     74                     75
                      A                      A                      A
 Frequencies --   1516.3584              1521.7403              1526.9624
 Red. masses --      1.1002                 1.0546                 1.4128
 Frc consts  --      1.4905                 1.4389                 1.9408
 IR Inten    --     29.7673                 1.2976                 3.5822

                     76                     77                     78
                      A                      A                      A
 Frequencies --   1528.5645              1534.0405              1534.4242
 Red. masses --      1.1524                 1.0454                 1.0927
 Frc consts  --      1.5864                 1.4495                 1.5158
 IR Inten    --     23.6445                14.8429                 3.8633

                     79                     80                     81
                      A                      A                      A
 Frequencies --   1542.6828              1548.3650              1566.8554
 Red. masses --      1.1176                 1.1247                 1.2300
 Frc consts  --      1.5671                 1.5886                 1.7792
 IR Inten    --     16.1503                13.2084                23.9869

                     82                     83                     84
                      A                      A                      A
 Frequencies --   1568.9202              1637.2282              1651.8861
 Red. masses --      1.1648                 4.6020                 5.0575
 Frc consts  --      1.6893                 7.2681                 8.1310
 IR Inten    --     34.2147                46.8031                50.1858

                     85                     86                     87
                      A                      A                      A
 Frequencies --   1726.3466              2965.8271              2996.0506
 Red. masses --      8.6860                 1.0581                 1.0536
 Frc consts  --     15.2519                 5.4837                 5.5724
 IR Inten    --    317.5032                73.9989               111.0712

                     88                     89                     90
                      A                      A                      A
 Frequencies --   3017.1878              3030.6885              3039.2681
 Red. masses --      1.0665                 1.0413                 1.0404
 Frc consts  --      5.7201                 5.6350                 5.6620
 IR Inten    --     29.5240                27.4349                97.3680

                     91                     92                     93
                      A                      A                      A
 Frequencies --   3074.1756              3079.1890              3084.8040
 Red. masses --      1.1040                 1.0743                 1.1047
 Frc consts  --      6.1473                 6.0015                 6.1937
 IR Inten    --     41.8046                28.8066                26.7016

                     94                     95                     96
                      A                      A                      A
 Frequencies --   3085.4178              3090.5728              3097.0283
 Red. masses --      1.0956                 1.0838                 1.0624
 Frc consts  --      6.1453                 6.0993                 6.0036
 IR Inten    --      6.9019                59.1246                38.1568

                     97                     98                     99
                      A                      A                      A
 Frequencies --   3121.7710              3145.0500              3154.7893
 Red. masses --      1.1034                 1.1029                 1.1025
 Frc consts  --      6.3358                 6.4275                 6.4650
 IR Inten    --     35.2932                10.8220                10.5260

                    100                    101                    102
                      A                      A                      A
 Frequencies --   3163.9470              3201.5946              3204.5345
 Red. masses --      1.0891                 1.0959                 1.0900
 Frc consts  --      6.4234                 6.6183                 6.5951
 IR Inten    --     36.5064                 0.9287                 8.7130

                    103                    104                    105
                      A                      A                      A
 Frequencies --   3210.5319              3216.9468              3524.9502
 Red. masses --      1.0914                 1.0965                 1.0733
 Frc consts  --      6.6281                 6.6854                 7.8577
 IR Inten    --     15.0269                21.0075                 9.7142

 - Thermochemistry -
 -------------------
 Temperature   298.150 Kelvin.  Pressure   1.00000 Atm.
 Atom     1 has atomic number  6 and mass  12.00000

 Molecular mass:   236.16371 amu.
 Principal axes and moments of inertia in atomic units:
                           1         2         3
     Eigenvalues --  2073.726796617.701458091.32939
           X            1.00000   0.00035   0.00105
           Y           -0.00035   0.99999   0.00328
           Z           -0.00105  -0.00328   0.99999
 This molecule is an asymmetric top.
 Rotational symmetry number  1.
 Warning -- assumption of classical behavior for rotation
           may cause significant error
 Rotational temperatures (Kelvin)      0.04177     0.01309     0.01070
 Rotational constants (GHZ):           0.87029     0.27271     0.22305
 Zero-point vibrational energy     846305.1 (Joules/Mol)
                                  202.27176 (Kcal/Mol)
 Warning -- explicit consideration of  28 degrees of freedom as
           vibrations may cause significant error
 Vibrational temperatures:     43.11    70.88    85.65    99.05   112.83
          (Kelvin)            124.32   139.99   184.01   189.33   230.46
                              258.86   293.77   337.85   352.86   367.27
                              409.60   470.69   510.10   521.61   572.78
                              602.98   636.92   665.55   713.04   754.70
                              788.09   845.02   859.37   928.49   993.23
                             1106.54  1136.90  1163.06  1180.99  1208.95
                             1249.40  1299.30  1383.67  1396.94  1431.01
                             1446.47  1462.77  1510.89  1546.45  1561.78
                             1583.08  1622.61  1637.13  1639.78  1679.93
                             1682.33  1706.98  1712.08  1719.11  1767.22
                             1785.21  1850.70  1854.68  1878.58  1931.18
                             1944.52  1960.12  1982.11  2052.94  2078.63
                             2092.48  2116.49  2133.34  2133.90  2144.66
                             2172.94  2176.84  2181.70  2189.44  2196.96
                             2199.26  2207.14  2207.69  2219.58  2227.75
                             2254.36  2257.33  2355.61  2376.70  2483.83
                             4267.16  4310.65  4341.06  4360.48  4372.83
                             4423.05  4430.27  4438.34  4439.23  4446.64
                             4455.93  4491.53  4525.03  4539.04  4552.21
                             4606.38  4610.61  4619.24  4628.47  5071.62

 Zero-point correction=                           0.322341 (Hartree/Particle)
 Thermal correction to Energy=                    0.340405
 Thermal correction to Enthalpy=                  0.341349
 Thermal correction to Gibbs Free Energy=         0.275354
 Sum of electronic and zero-point Energies=           -763.288475
 Sum of electronic and thermal Energies=              -763.270410
 Sum of electronic and thermal Enthalpies=            -763.269466
 Sum of electronic and thermal Free Energies=         -763.335461

                     E (Thermal)             CV                S
                      KCal/Mol        Cal/Mol-Kelvin    Cal/Mol-Kelvin
 Total                  213.607             66.087            138.898
 Electronic               0.000              0.000              0.000
 Translational            0.889              2.981             42.280
 Rotational               0.889              2.981             33.073
 Vibrational            211.830             60.126             63.545
 Vibration     1          0.594              1.984              5.832
 Vibration     2          0.595              1.978              4.847
 Vibration     3          0.597              1.974              4.473
 Vibration     4          0.598              1.969              4.186
 Vibration     5          0.600              1.964              3.930
 Vibration     6          0.601              1.959              3.740
 Vibration     7          0.603              1.951              3.508
 Vibration     8          0.611              1.925              2.977
 Vibration     9          0.612              1.922              2.923
 Vibration    10          0.622              1.891              2.548
 Vibration    11          0.629              1.867              2.329
 Vibration    12          0.640              1.834              2.095
 Vibration    13          0.655              1.788              1.842
 Vibration    14          0.660              1.771              1.764
 Vibration    15          0.666              1.754              1.694
 Vibration    16          0.683              1.702              1.505
 Vibration    17          0.711              1.621              1.274
 Vibration    18          0.730              1.566              1.146
 Vibration    19          0.736              1.549              1.111
 Vibration    20          0.764              1.474              0.970
 Vibration    21          0.782              1.429              0.895
 Vibration    22          0.802              1.377              0.818
 Vibration    23          0.820              1.333              0.759
 Vibration    24          0.851              1.260              0.669
 Vibration    25          0.879              1.196              0.600
 Vibration    26          0.903              1.145              0.549
 Vibration    27          0.944              1.059              0.472
 Vibration    28          0.955              1.038              0.454

                           ! Non-Optimized Parameters !
 Normal termination of Gaussian 16 at Fri Dec 11 13:38:09 2020.

 ----------------------------------------------------------------------
 # B3LYP/6-311++G(d,p) empiricaldispersion=gd3bj scf=xqc pop=npa geom=c
 heck
 ----------------------------------------------------------------------

 --------------------------------------
 CID_55075124_JID_7768_Energie_neutraal
 --------------------------------------
 Structure from the checkpoint file:  "JID_7768.chk"
 Charge =  0 Multiplicity = 1

 SCF Done:  E(RB3LYP) =  -763.822458577     A.U. after   16 cycles
 Normal termination of Gaussian 16 at Fri Dec 11 13:46:36 2020.

 ----------------------------------------------------------------------
 # B3LYP/6-311++G(d,p) empiricaldispersion=gd3bj scf=xqc pop=npa geom=c
 heck
 ----------------------------------------------------------------------

 ------------------------------------
 CID_55075124_JID_7768_Energie_kation
 ------------------------------------
 Structure from the checkpoint file:  "JID_7768.chk"
 Charge =  1 Multiplicity = 2

 SCF Done:  E(UB3LYP) =  -763.550373614     A.U. after   24 cycles
 Normal termination of Gaussian 16 at Fri Dec 11 14:04:37 2020.
 Gaussian 16:  ES64L-G16RevA.03 25-Dec-2016

 ----------------------------------------------------------------------
 # B3LYP/6-311++G(d,p) empiricaldispersion=gd3bj scf=xqc pop=npa geom=c
 heck
 ----------------------------------------------------------------------

 -----------------------------------
 CID_55075124_JID_7768_Energie_anion
 -----------------------------------
 Structure from the checkpoint file:  "JID_7768.chk"
 Charge = -1 Multiplicity = 2

                         Standard orientation:
 ---------------------------------------------------------------------
 Center     Atomic      Atomic             Coordinates (Angstroms)
 Number     Number       Type             X           Y           Z
 ---------------------------------------------------------------------
      1          6           0        2.367457    2.604497    0.489727
      2          7           0        3.085292    1.603052   -0.308252
      3          6           0        2.814233    0.242512   -0.108618
      4          6           0        1.551501   -0.331471   -0.402499
      5          6           0        1.415091   -1.705538   -0.202008
      6          6           0        2.496634   -2.465587    0.245125
      7          6           0        3.706161   -1.809849    0.446583
      8          7           0        3.867357   -0.492263    0.286922
      9          6           0        0.430545    0.458497   -1.033667
     10          7           0       -0.457937    1.138192   -0.070281
     11          6           0       -1.350661    2.071826   -0.743088
     12          6           0       -1.152728    0.250996    0.864097
     13          6           0       -2.199343   -0.648738    0.186636
     14          8           0       -1.809790   -1.617141   -0.471511
     15          7           0       -3.533007   -0.332796    0.258659
     16          6           0       -4.133261    0.774344    0.981982
     17          6           0       -4.487251   -1.161696   -0.466614
     18          1           0        2.713811    2.631041    1.535531
     19          1           0        1.300035    2.377708    0.493108
     20          1           0        2.523375    3.594054    0.047612
     21          1           0        4.090214    1.718826   -0.205539
     22          1           0        0.454294   -2.164666   -0.416382
     23          1           0        2.408697   -3.535633    0.403384
     24          1           0        4.593558   -2.360278    0.756216
     25          1           0        0.873279    1.248834   -1.649894
     26          1           0       -0.142816   -0.204813   -1.697993
     27          1           0       -2.045013    1.591387   -1.456036
     28          1           0       -1.944436    2.615144   -0.000190
     29          1           0       -0.752053    2.802459   -1.296791
     30          1           0       -0.414309   -0.421066    1.305525
     31          1           0       -1.559068    0.864253    1.671312
     32          1           0       -4.629163    1.463897    0.285603
     33          1           0       -4.890979    0.398425    1.681831
     34          1           0       -3.394942    1.335236    1.548326
     35          1           0       -3.940149   -1.951611   -0.977062
     36          1           0       -5.213416   -1.601977    0.228508
     37          1           0       -5.034807   -0.556151   -1.200255
 ---------------------------------------------------------------------

 SCF Done:  E(UB3LYP) =  -763.814049995     A.U. after   33 cycles
 SCF Done:  E(UB3LYP) =  -763.814049995     a.u. after    1 cycles

 The electronic state is 2-A.
 Alpha  occ. eigenvalues --  -18.98829 -14.24971 -14.22832 -14.22073 -14.21632
 Alpha  occ. eigenvalues --  -10.17246 -10.15007 -10.11644 -10.10553 -10.10332
 Alpha  occ. eigenvalues --  -10.09942 -10.09919 -10.09479 -10.09242 -10.09049
 Alpha  occ. eigenvalues --  -10.08960 -10.08547  -0.94118  -0.87745  -0.83763
 Alpha  occ. eigenvalues --   -0.83368  -0.80907  -0.71841  -0.67450  -0.64710
 Alpha  occ. eigenvalues --   -0.62040  -0.61599  -0.59312  -0.58407  -0.53912
 Alpha  occ. eigenvalues --   -0.52533  -0.49704  -0.44638  -0.43670  -0.42152
 Alpha  occ. eigenvalues --   -0.41343  -0.39587  -0.38896  -0.38071  -0.36951
 Alpha  occ. eigenvalues --   -0.36835  -0.35580  -0.35184  -0.34490  -0.31844
 Alpha  occ. eigenvalues --   -0.31385  -0.30612  -0.30384  -0.30188  -0.30120
 Alpha  occ. eigenvalues --   -0.29951  -0.29122  -0.28846  -0.28530  -0.26867
 Alpha  occ. eigenvalues --   -0.26432  -0.25855  -0.20855  -0.19004  -0.17703
 Alpha  occ. eigenvalues --   -0.17465  -0.14832  -0.13453  -0.12108   0.04116
 Alpha virt. eigenvalues --    0.05633   0.06243   0.06900   0.07550   0.07749
 Alpha virt. eigenvalues --    0.08160   0.08793   0.08928   0.09740   0.09749
 Alpha virt. eigenvalues --    0.10523   0.10800   0.11346   0.11401   0.12123

  Beta  occ. eigenvalues --  -18.98828 -14.24968 -14.22831 -14.22065 -14.21617
  Beta  occ. eigenvalues --  -10.17244 -10.15013 -10.11604 -10.10537 -10.10329
  Beta  occ. eigenvalues --  -10.09931 -10.09845 -10.09439 -10.09207 -10.09012
  Beta  occ. eigenvalues --  -10.08939 -10.08554  -0.94115  -0.87718  -0.83746
  Beta  occ. eigenvalues --   -0.83343  -0.80886  -0.71785  -0.67409  -0.64675
  Beta  occ. eigenvalues --   -0.61951  -0.61561  -0.59253  -0.58374  -0.53848
  Beta  occ. eigenvalues --   -0.52507  -0.49669  -0.44567  -0.43648  -0.42121
  Beta  occ. eigenvalues --   -0.41305  -0.39557  -0.38849  -0.38049  -0.36906
  Beta  occ. eigenvalues --   -0.36797  -0.35556  -0.35157  -0.34468  -0.31811
  Beta  occ. eigenvalues --   -0.31356  -0.30552  -0.30337  -0.30131  -0.30077
  Beta  occ. eigenvalues --   -0.29908  -0.29089  -0.28805  -0.28505  -0.26833
  Beta  occ. eigenvalues --   -0.26405  -0.25833  -0.20801  -0.18839  -0.17671
  Beta  occ. eigenvalues --   -0.17455  -0.14804  -0.13380  -0.12085
  Beta virt. eigenvalues --    0.05912   0.06246   0.06914   0.07102   0.07798
  Beta virt. eigenvalues --    0.08511   0.08563   0.09056   0.09350   0.09869
  Beta virt. eigenvalues --    0.10014   0.10831   0.11053   0.11593   0.11823

 Mulliken charges and spin densities:
               1          2
     1  C   -0.060789  -0.331249
     2  N   -0.077755   0.043334
     3  C   -0.735881  -0.026969
     4  C    1.573351   0.104714
     5  C   -0.194182  -0.003798
     6  C   -0.262647  -0.004472
     7  C   -0.250834  -0.008442
     8  N   -0.113663   0.012497
     9  C   -1.628543  -0.000498
    10  N    0.228225   0.091799
    11  C    0.529763  -0.908045
    12  C   -0.729976   0.095095
    13  C   -0.148666   0.126575
    14  O   -0.373618   0.011894
    15  N   -0.233502   0.291319
    16  C    1.742082  -2.059513
    17  C    0.922108  -1.169452
    18  H    0.022162   0.106594
    19  H    0.148534   0.127848
    20  H    0.002006   0.131491
    21  H    0.242451   0.017826
    22  H    0.280673  -0.004622
    23  H    0.133243   0.026747
    24  H    0.151219   0.010329
    25  H    0.166230   0.018664
    26  H    0.178071   0.008221
    27  H    0.004914   0.151261
    28  H   -0.270548   0.438439
    29  H   -0.032326   0.186406
    30  H    0.141463   0.055634
    31  H   -0.273620   0.430491
    32  H   -0.485803   0.669706
    33  H   -0.635103   0.792307
    34  H   -0.515535   0.650854
    35  H    0.052176   0.123024
    36  H   -0.211648   0.365000
    37  H   -0.284030   0.428992
 Sum of Mulliken charges =  -1.00000   1.00000

 Dipole moment (field-independent basis, Debye):
    X=             10.0735    Y=             -3.2189    Z=             -1.9578  Tot=             10.7550
 Quadrupole moment (field-independent basis, Debye-Ang):
   XX=           -209.2003   YY=           -144.3343   ZZ=           -137.5101
   XY=             10.0468   XZ=              9.6844   YZ=             -4.7782

 Summary of Natural Population Analysis:

                                       Natural Population
                Natural  -----------------------------------------------
    Atom  No    Charge         Core      Valence    Rydberg      Total
 -----------------------------------------------------------------------
      C    1   -0.18731      0.99963     2.17895    0.00873     3.18731
      N    2   -0.32414      0.99969     2.81440    0.01006     3.82414
      C    3    0.20521      0.99947     1.78083    0.01448     2.79479
      C    4   -0.04520      0.99945     2.03646    0.00929     3.04520
      C    5   -0.07460      0.99952     2.06634    0.00874     3.07460
      C    6   -0.14163      0.99956     2.13271    0.00936     3.14163
      C    7    0.03277      0.99960     1.95293    0.01470     2.96723
      N    8   -0.25931      0.99968     2.74884    0.01079     3.75931
      C    9   -0.09784      0.99957     2.08691    0.01135     3.09784
      N   10   -0.27871      0.99974     2.76583    0.01314     3.77871
      C   11   -0.17950      0.99963     2.17080    0.00907     3.17950
      C   12   -0.12027      0.99956     2.10840    0.01232     3.12027
      C   13    0.33560      0.99963     1.64170    0.02308     2.66440
      O   14   -0.34235      0.99988     3.33706    0.00541     4.34235
      N   15   -0.24750      0.99966     2.73657    0.01127     3.74750
      C   16   -0.17402      0.99963     2.16597    0.00843     3.17402
      C   17   -0.18031      0.99963     2.17258    0.00810     3.18031
      H   18    0.08218      0.00000     0.41654    0.00128     0.41782
      H   19    0.11409      0.00000     0.38372    0.00219     0.38591
      H   20    0.09069      0.00000     0.40843    0.00088     0.40931
      H   21    0.18119      0.00000     0.31539    0.00342     0.31881
      H   22    0.12114      0.00000     0.37769    0.00117     0.37886
      H   23    0.10167      0.00000     0.39742    0.00091     0.39833
      H   24    0.08623      0.00000     0.41272    0.00105     0.41377
      H   25    0.10329      0.00000     0.39518    0.00153     0.39671
      H   26    0.09863      0.00000     0.39966    0.00170     0.40137
      H   27    0.08592      0.00000     0.41257    0.00151     0.41408
      H   28    0.10107      0.00000     0.39730    0.00163     0.39893
      H   29    0.09496      0.00000     0.40397    0.00107     0.40504
      H   30    0.10937      0.00000     0.38912    0.00152     0.39063
      H   31    0.10165      0.00000     0.39672    0.00164     0.39835
      H   32    0.09935      0.00000     0.39656    0.00409     0.40065
      H   33    0.09889      0.00000     0.39792    0.00319     0.40111
      H   34    0.10312      0.00000     0.39419    0.00268     0.39688
      H   35    0.11464      0.00000     0.38429    0.00107     0.38536
      H   36    0.09514      0.00000     0.40360    0.00126     0.40486
      H   37    0.09589      0.00000     0.40279    0.00131     0.40411
 =======================================================================
   * Total *   -0.00000     16.99353    46.78305    0.22342    64.00000

 Normal termination of Gaussian 16 at Fri Dec 11 14:29:32 2020.
