 Gaussian 16, Revision A.03,

 -----------------------------------------------------------
 # opt freq B3LYP/6-31G(d) empiricaldispersion=gd3bj scf=xqc
 -----------------------------------------------------------

 ------------------------------
 CID_66925922_JID_2485_neutraal
 ------------------------------
 Symbolic Z-matrix:
 Charge =  0 Multiplicity = 1

 SCF Done:  E(RB3LYP) =  -543.397094780     A.U. after   15 cycles
 SCF Done:  E(RB3LYP) =  -543.407134502     A.U. after   13 cycles
 SCF Done:  E(RB3LYP) =  -543.408765602     A.U. after   13 cycles
 SCF Done:  E(RB3LYP) =  -543.409073056     A.U. after   12 cycles
 SCF Done:  E(RB3LYP) =  -543.409235013     A.U. after   12 cycles
 SCF Done:  E(RB3LYP) =  -543.409439487     A.U. after   11 cycles
 SCF Done:  E(RB3LYP) =  -543.409481205     A.U. after   11 cycles
 SCF Done:  E(RB3LYP) =  -543.409488541     A.U. after    9 cycles
 SCF Done:  E(RB3LYP) =  -543.409489521     A.U. after    8 cycles
 Optimization completed.
    -- Stationary point found.
 Normal termination of Gaussian 16 at Wed Dec  9 17:24:20 2020.

 --------------------------------------------------------------------
 #N Geom=AllCheck Guess=TCheck SCRF=Check GenChk RB3LYP/6-31G(d) Freq
 --------------------------------------------------------------------

 Structure from the checkpoint file:  "JID_2485.chk"
 ------------------------------
 CID_66925922_JID_2485_neutraal
 ------------------------------
 Charge =  0 Multiplicity = 1

 SCF Done:  E(RB3LYP) =  -543.409489521     A.U. after    1 cycles

  Exact polarizability: 145.488  -2.558 101.237   2.051   3.922  44.866
 Approx polarizability: 251.542  -6.176 188.787   4.029   7.900  75.409

                      1                      2                      3
                      A                      A                      A
 Frequencies --    116.0517               137.2562               211.9995
 Red. masses --      5.6362                 5.6816                 4.8738
 Frc consts  --      0.0447                 0.0631                 0.1291
 IR Inten    --      1.0261                 0.4087                 0.1515

                      4                      5                      6
                      A                      A                      A
 Frequencies --    280.5002               346.4930               440.3765
 Red. masses --      4.8739                 7.6768                 5.4992
 Frc consts  --      0.2259                 0.5430                 0.6284
 IR Inten    --      0.8002                 0.3478                 2.6731

                      7                      8                      9
                      A                      A                      A
 Frequencies --    496.3471               516.5055               548.6603
 Red. masses --      7.2385                 5.2117                 3.3539
 Frc consts  --      1.0507                 0.8192                 0.5949
 IR Inten    --      1.8980                 6.0928                 1.6425

                     10                     11                     12
                      A                      A                      A
 Frequencies --    571.9386               661.0931               693.7763
 Red. masses --      6.0794                 6.5862                 7.2896
 Frc consts  --      1.1717                 1.6959                 2.0672
 IR Inten    --      1.2719                 6.7898                 7.9754

                     13                     14                     15
                      A                      A                      A
 Frequencies --    706.2266               729.4147               797.6665
 Red. masses --      2.0700                 3.7484                 2.5917
 Frc consts  --      0.6083                 1.1750                 0.9716
 IR Inten    --     24.4895                 5.9624                13.1204

                     16                     17                     18
                      A                      A                      A
 Frequencies --    827.6231               837.7506               898.2653
 Red. masses --      4.5826                 5.1672                 1.5731
 Frc consts  --      1.8494                 2.1367                 0.7478
 IR Inten    --      8.2303                 2.4827                 1.2841

                     19                     20                     21
                      A                      A                      A
 Frequencies --    925.5059               960.0259               966.0970
 Red. masses --      1.4298                 1.3771                10.9201
 Frc consts  --      0.7216                 0.7478                 6.0051
 IR Inten    --     23.4571                 1.8178                 8.0605

                     22                     23                     24
                      A                      A                      A
 Frequencies --    989.9360              1028.9368              1041.0878
 Red. masses --      2.7264                 2.2591                 2.2939
 Frc consts  --      1.5742                 1.4092                 1.4649
 IR Inten    --      6.3416                12.8808                12.5790

                     25                     26                     27
                      A                      A                      A
 Frequencies --   1083.7965              1116.7380              1131.7367
 Red. masses --      1.6745                 4.1286                 1.4246
 Frc consts  --      1.1589                 3.0336                 1.0751
 IR Inten    --      7.0757                 4.7354                 4.5996

                     28                     29                     30
                      A                      A                      A
 Frequencies --   1170.0231              1228.0999              1248.4007
 Red. masses --      2.3346                 3.5675                 2.7964
 Frc consts  --      1.8830                 3.1702                 2.5678
 IR Inten    --      4.9891                 5.5409                 8.8330

                     31                     32                     33
                      A                      A                      A
 Frequencies --   1280.9021              1291.0921              1343.4470
 Red. masses --      3.2841                 2.4283                10.8336
 Frc consts  --      3.1746                 2.3849                11.5203
 IR Inten    --      9.7574                11.0875                16.2677

                     34                     35                     36
                      A                      A                      A
 Frequencies --   1359.2180              1387.2789              1404.0428
 Red. masses --      2.1890                 1.9075                 2.6487
 Frc consts  --      2.3828                 2.1629                 3.0764
 IR Inten    --      5.2244                 6.9352                15.0085

                     37                     38                     39
                      A                      A                      A
 Frequencies --   1549.9684              1600.0414              1672.9921
 Red. masses --      9.4607                 6.8201                 9.0809
 Frc consts  --     13.3911                10.2873                14.9751
 IR Inten    --      9.1426                29.5587                30.0074

                     40                     41                     42
                      A                      A                      A
 Frequencies --   1707.8326              2932.6626              3199.9303
 Red. masses --      8.2513                 1.0776                 1.0912
 Frc consts  --     14.1795                 5.4605                 6.5834
 IR Inten    --      2.5820                 0.2260                 5.5760

                     43                     44                     45
                      A                      A                      A
 Frequencies --   3231.5081              3251.0734              3257.6633
 Red. masses --      1.0881                 1.0958                 1.1026
 Frc consts  --      6.6946                 6.8242                 6.8943
 IR Inten    --      6.0611                 4.4793                 3.2431

 - Thermochemistry -
 -------------------
 Temperature   298.150 Kelvin.  Pressure   1.00000 Atm.
 Atom     1 has atomic number  6 and mass  12.00000

 Molecular mass:   159.05450 amu.
 Principal axes and moments of inertia in atomic units:
                           1         2         3
     Eigenvalues --   784.625272128.894172850.41230
           X            1.00000   0.00203   0.00031
           Y           -0.00203   0.99992   0.01258
           Z           -0.00029  -0.01258   0.99992
 This molecule is an asymmetric top.
 Rotational symmetry number  1.
 Warning -- assumption of classical behavior for rotation
           may cause significant error
 Rotational temperatures (Kelvin)      0.11039     0.04068     0.03039
 Rotational constants (GHZ):           2.30013     0.84774     0.63315
 Zero-point vibrational energy     318075.0 (Joules/Mol)
                                   76.02174 (Kcal/Mol)
 Warning -- explicit consideration of  10 degrees of freedom as
           vibrations may cause significant error
 Vibrational temperatures:    166.97   197.48   305.02   403.58   498.53
          (Kelvin)            633.60   714.13   743.14   789.40   822.89
                              951.17   998.19  1016.10  1049.47  1147.66
                             1190.76  1205.34  1292.40  1331.60  1381.26
                             1390.00  1424.30  1480.41  1497.89  1559.34
                             1606.74  1628.32  1683.40  1766.96  1796.17
                             1842.93  1857.59  1932.92  1955.61  1995.98
                             2020.10  2230.06  2302.10  2407.06  2457.19
                             4219.45  4603.99  4649.42  4677.57  4687.05

 Zero-point correction=                           0.121148 (Hartree/Particle)
 Thermal correction to Energy=                    0.128935
 Thermal correction to Enthalpy=                  0.129879
 Thermal correction to Gibbs Free Energy=         0.088080
 Sum of electronic and zero-point Energies=           -543.288341
 Sum of electronic and thermal Energies=              -543.280555
 Sum of electronic and thermal Enthalpies=            -543.279611
 Sum of electronic and thermal Free Energies=         -543.321409

                     E (Thermal)             CV                S
                      KCal/Mol        Cal/Mol-Kelvin    Cal/Mol-Kelvin
 Total                   80.908             31.451             87.972
 Electronic               0.000              0.000              0.000
 Translational            0.889              2.981             41.101
 Rotational               0.889              2.981             29.944
 Vibrational             79.130             25.490             16.926
 Vibration     1          0.608              1.936              3.165
 Vibration     2          0.614              1.916              2.842
 Vibration     3          0.643              1.823              2.026
 Vibration     4          0.680              1.710              1.531
 Vibration     5          0.724              1.582              1.182
 Vibration     6          0.800              1.382              0.825
 Vibration     7          0.852              1.258              0.667
 Vibration     8          0.872              1.213              0.618
 Vibration     9          0.904              1.143              0.547
 Vibration    10          0.928              1.092              0.501

 Optimization completed.
    -- Stationary point found.
 Normal termination of Gaussian 16 at Wed Dec  9 17:27:59 2020.

 ----------------------------------------------------------------------
 # B3LYP/6-311++G(d,p) empiricaldispersion=gd3bj scf=xqc pop=npa geom=c
 heck
 ----------------------------------------------------------------------

 --------------------------------------
 CID_66925922_JID_2485_Energie_neutraal
 --------------------------------------
 Structure from the checkpoint file:  "JID_2485.chk"
 Charge =  0 Multiplicity = 1

 SCF Done:  E(RB3LYP) =  -543.546180153     A.U. after   16 cycles
 Normal termination of Gaussian 16 at Wed Dec  9 17:29:19 2020.

 ----------------------------------------------------------------------
 # B3LYP/6-311++G(d,p) empiricaldispersion=gd3bj scf=xqc pop=npa geom=c
 heck
 ----------------------------------------------------------------------

 ------------------------------------
 CID_66925922_JID_2485_Energie_kation
 ------------------------------------
 Structure from the checkpoint file:  "JID_2485.chk"
 Charge =  1 Multiplicity = 2

 SCF Done:  E(UB3LYP) =  -543.218936320     A.U. after   24 cycles
 Normal termination of Gaussian 16 at Wed Dec  9 17:32:20 2020.
 Gaussian 16:  ES64L-G16RevA.03 25-Dec-2016

 ----------------------------------------------------------------------
 # B3LYP/6-311++G(d,p) empiricaldispersion=gd3bj scf=xqc pop=npa geom=c
 heck
 ----------------------------------------------------------------------

 -----------------------------------
 CID_66925922_JID_2485_Energie_anion
 -----------------------------------
 Structure from the checkpoint file:  "JID_2485.chk"
 Charge = -1 Multiplicity = 2

                         Standard orientation:
 ---------------------------------------------------------------------
 Center     Atomic      Atomic             Coordinates (Angstroms)
 Number     Number       Type             X           Y           Z
 ---------------------------------------------------------------------
      1          6           0       -2.920641   -0.859956   -0.239968
      2          6           0       -2.771679    0.445667    0.081881
      3          6           0       -1.329059    0.685110    0.442696
      4          6           0       -0.522304    1.838265   -0.102069
      5          7           0        0.750282    1.817318   -0.277788
      6          7           0        1.345217    0.599456   -0.032327
      7          6           0        0.757375   -0.629925    0.122278
      8          7           0        1.715393   -1.535494    0.149627
      9          7           0        2.889800   -0.836517    0.010547
     10          7           0        2.686299    0.433265   -0.115341
     11          6           0       -0.675342   -0.645990    0.149276
     12          6           0       -1.624888   -1.539052   -0.219023
     13          1           0       -3.855975   -1.350528   -0.484070
     14          1           0       -3.553110    1.188910    0.180313
     15          1           0       -1.321329    0.833644    1.543049
     16          1           0       -1.003399    2.791800   -0.305444
     17          1           0       -1.455897   -2.574735   -0.487293
 ---------------------------------------------------------------------

 SCF Done:  E(UB3LYP) =  -543.585611483     A.U. after   25 cycles

 The electronic state is 2-A.
 Alpha  occ. eigenvalues --  -14.27736 -14.22466 -14.22031 -14.21725 -14.17887
 Alpha  occ. eigenvalues --  -10.09178 -10.08000 -10.05926 -10.04083 -10.03657
 Alpha  occ. eigenvalues --  -10.03257 -10.02978  -0.99061  -0.86731  -0.75897
 Alpha  occ. eigenvalues --   -0.72475  -0.71439  -0.60850  -0.58534  -0.52634
 Alpha  occ. eigenvalues --   -0.51313  -0.47148  -0.41950  -0.40231  -0.39397
 Alpha  occ. eigenvalues --   -0.36552  -0.34583  -0.32243  -0.28885  -0.27562
 Alpha  occ. eigenvalues --   -0.25155  -0.23877  -0.23108  -0.22482  -0.19602
 Alpha  occ. eigenvalues --   -0.17197  -0.15989  -0.15279  -0.13748  -0.13187
 Alpha  occ. eigenvalues --   -0.08791   0.02370
 Alpha virt. eigenvalues --    0.08669   0.09732   0.10087   0.11202   0.11432
 Alpha virt. eigenvalues --    0.12755   0.14364   0.15011   0.15906   0.16747
 Alpha virt. eigenvalues --    0.17570   0.17936   0.18153   0.18981   0.19915

  Beta  occ. eigenvalues --  -14.27657 -14.22243 -14.22114 -14.21672 -14.17751
  Beta  occ. eigenvalues --  -10.09025 -10.07661 -10.05996 -10.04151 -10.03551
  Beta  occ. eigenvalues --  -10.02916 -10.02721  -0.98862  -0.86492  -0.75516
  Beta  occ. eigenvalues --   -0.72133  -0.71206  -0.60443  -0.57985  -0.52310
  Beta  occ. eigenvalues --   -0.51118  -0.46651  -0.41676  -0.39884  -0.39068
  Beta  occ. eigenvalues --   -0.35948  -0.34115  -0.31732  -0.28602  -0.27142
  Beta  occ. eigenvalues --   -0.24888  -0.23296  -0.22882  -0.22183  -0.18772
  Beta  occ. eigenvalues --   -0.16555  -0.15255  -0.14953  -0.13191  -0.12651
  Beta  occ. eigenvalues --   -0.07405
  Beta virt. eigenvalues --    0.07902   0.08756   0.09847   0.11095   0.11403
  Beta virt. eigenvalues --    0.11578   0.12757   0.14949   0.15440   0.16425
  Beta virt. eigenvalues --    0.16824   0.17566   0.18045   0.18325   0.19026

 Mulliken charges and spin densities:
               1          2
     1  C   -0.324674  -0.078917
     2  C   -0.292040   0.359051
     3  C    0.105157  -0.101031
     4  C   -0.625994   0.212896
     5  N   -0.233070   0.022997
     6  N    0.127021   0.007070
     7  C   -0.212965   0.006003
     8  N   -0.207648   0.071406
     9  N   -0.055780  -0.044978
    10  N    0.097324   0.109674
    11  C    0.515989   0.005545
    12  C   -0.448911   0.266926
    13  H    0.099871   0.004068
    14  H    0.096821   0.004646
    15  H    0.102569   0.155091
    16  H    0.122209   0.012103
    17  H    0.134121  -0.012549
 Sum of Mulliken charges =  -1.00000   1.00000

 Dipole moment (field-independent basis, Debye):
    X=             -4.9520    Y=              1.5166    Z=              0.5948  Tot=              5.2131
 Quadrupole moment (field-independent basis, Debye-Ang):
   XX=           -105.4048   YY=            -85.4175   ZZ=            -75.8157
   XY=              1.1072   XZ=              0.2754   YZ=              3.6476

 Summary of Natural Population Analysis:

                                       Natural Population
                Natural  -----------------------------------------------
    Atom  No    Charge         Core      Valence    Rydberg      Total
 -----------------------------------------------------------------------
      C    1   -0.13661      0.99955     2.12824    0.00882     3.13661
      C    2   -0.02060      0.99954     2.01111    0.00995     3.02060
      C    3   -0.17141      0.99956     2.16350    0.00835     3.17141
      C    4    0.12881      0.99963     1.85606    0.01549     2.87119
      N    5   -0.13922      0.99967     2.62562    0.01394     3.63922
      N    6   -0.03522      0.99958     2.51589    0.01975     3.53522
      C    7    0.18274      0.99954     1.79819    0.01953     2.81726
      N    8   -0.15405      0.99969     2.64111    0.01324     3.65405
      N    9   -0.07639      0.99981     2.55680    0.01977     3.57639
      N   10   -0.01227      0.99977     2.49639    0.01611     3.51227
      C   11   -0.02498      0.99948     2.01560    0.00989     3.02498
      C   12   -0.04221      0.99949     2.03408    0.00864     3.04221
      H   13    0.09242      0.00000     0.40661    0.00096     0.40758
      H   14    0.08835      0.00000     0.41049    0.00115     0.41165
      H   15    0.14155      0.00000     0.35663    0.00182     0.35845
      H   16    0.08271      0.00000     0.41600    0.00129     0.41729
      H   17    0.09637      0.00000     0.40273    0.00090     0.40363
 =======================================================================
   * Total *    0.00000     11.99533    28.83506    0.16961    41.00000

 Normal termination of Gaussian 16 at Wed Dec  9 17:35:45 2020.
