 Gaussian 16, Revision A.03,

 -----------------------------------------------------------
 # opt freq B3LYP/6-31G(d) empiricaldispersion=gd3bj scf=xqc
 -----------------------------------------------------------

 ------------------------------
 CID_13681597_JID_6491_neutraal
 ------------------------------
 Symbolic Z-matrix:
 Charge =  0 Multiplicity = 1

 SCF Done:  E(RB3LYP) =  -708.473356654     A.U. after   15 cycles
 SCF Done:  E(RB3LYP) =  -708.481467223     A.U. after   13 cycles
 SCF Done:  E(RB3LYP) =  -708.482266804     A.U. after   13 cycles
 SCF Done:  E(RB3LYP) =  -708.482529405     A.U. after   13 cycles
 SCF Done:  E(RB3LYP) =  -708.482670881     A.U. after   12 cycles
 SCF Done:  E(RB3LYP) =  -708.482718967     A.U. after   12 cycles
 SCF Done:  E(RB3LYP) =  -708.482748660     A.U. after   11 cycles
 SCF Done:  E(RB3LYP) =  -708.482761420     A.U. after   11 cycles
 SCF Done:  E(RB3LYP) =  -708.482769449     A.U. after   10 cycles
 SCF Done:  E(RB3LYP) =  -708.482772418     A.U. after   10 cycles
 SCF Done:  E(RB3LYP) =  -708.482773092     A.U. after    8 cycles
 SCF Done:  E(RB3LYP) =  -708.482773234     A.U. after    7 cycles
 SCF Done:  E(RB3LYP) =  -708.482773276     A.U. after    7 cycles
 Optimization completed.
    -- Stationary point found.
 Normal termination of Gaussian 16 at Thu Dec 10 23:13:56 2020.

 --------------------------------------------------------------------
 #N Geom=AllCheck Guess=TCheck SCRF=Check GenChk RB3LYP/6-31G(d) Freq
 --------------------------------------------------------------------

 Structure from the checkpoint file:  "JID_6491.chk"
 ------------------------------
 CID_13681597_JID_6491_neutraal
 ------------------------------
 Charge =  0 Multiplicity = 1

 SCF Done:  E(RB3LYP) =  -708.482773276     A.U. after    1 cycles

  Exact polarizability: 142.401  28.202 132.906  23.508 -11.220 119.819
 Approx polarizability: 229.505  70.349 213.525  64.676  -7.203 217.343

                      1                      2                      3
                      A                      A                      A
 Frequencies --     19.3925                47.8614                51.4101
 Red. masses --      6.1696                 5.9580                 3.9460
 Frc consts  --      0.0014                 0.0080                 0.0061
 IR Inten    --      0.0567                 0.3348                 0.4596

                      4                      5                      6
                      A                      A                      A
 Frequencies --    103.9000               112.6074               159.5534
 Red. masses --      5.1752                 4.6433                 8.9677
 Frc consts  --      0.0329                 0.0347                 0.1345
 IR Inten    --      6.1712                 0.8298                 5.7294

                      7                      8                      9
                      A                      A                      A
 Frequencies --    213.4717               224.0462               254.9086
 Red. masses --      3.6899                 2.4753                 1.1811
 Frc consts  --      0.0991                 0.0732                 0.0452
 IR Inten    --      1.5902                 0.6614                 0.2668

                     10                     11                     12
                      A                      A                      A
 Frequencies --    271.0868               294.6427               333.0502
 Red. masses --      5.3583                 4.2243                 2.4558
 Frc consts  --      0.2320                 0.2161                 0.1605
 IR Inten    --      0.1806                 0.3118                 4.6503

                     13                     14                     15
                      A                      A                      A
 Frequencies --    362.8398               411.1429               416.8228
 Red. masses --      4.2976                 4.1652                 3.1872
 Frc consts  --      0.3334                 0.4148                 0.3263
 IR Inten    --      8.3821                 6.5740                 1.5749

                     16                     17                     18
                      A                      A                      A
 Frequencies --    495.5938               542.6689               568.6106
 Red. masses --      3.2821                 3.3132                 3.9295
 Frc consts  --      0.4750                 0.5749                 0.7486
 IR Inten    --      2.3831                 7.7640                 0.0877

                     19                     20                     21
                      A                      A                      A
 Frequencies --    589.6878               623.4275               637.5044
 Red. masses --      5.4977                 2.4489                 6.1454
 Frc consts  --      1.1264                 0.5608                 1.4715
 IR Inten    --      3.0940                 1.9734                 0.1326

                     22                     23                     24
                      A                      A                      A
 Frequencies --    671.0402               708.8483               714.7058
 Red. masses --      3.9906                 7.0635                 1.7635
 Frc consts  --      1.0587                 2.0911                 0.5307
 IR Inten    --      2.9272                26.5249                27.6891

                     25                     26                     27
                      A                      A                      A
 Frequencies --    734.6337               764.6533               770.1497
 Red. masses --      4.5100                 6.9029                 2.5619
 Frc consts  --      1.4340                 2.3780                 0.8953
 IR Inten    --      3.4364                 2.9009                10.0866

                     28                     29                     30
                      A                      A                      A
 Frequencies --    806.8706               836.9644               858.3525
 Red. masses --      2.3664                 2.1183                 1.2619
 Frc consts  --      0.9077                 0.8743                 0.5478
 IR Inten    --     18.3623                58.2621                 1.2284

                     31                     32                     33
                      A                      A                      A
 Frequencies --    871.4188               920.6194               928.4342
 Red. masses --      2.4746                 1.7131                 1.7767
 Frc consts  --      1.1072                 0.8554                 0.9023
 IR Inten    --     15.6848                10.3562                 2.8191

                     34                     35                     36
                      A                      A                      A
 Frequencies --    963.7998               964.2829               991.6913
 Red. masses --      1.3433                 1.2801                 1.2490
 Frc consts  --      0.7352                 0.7013                 0.7237
 IR Inten    --      0.1664                 0.0080                 0.2606

                     37                     38                     39
                      A                      A                      A
 Frequencies --   1013.6384              1023.1327              1042.4958
 Red. masses --      2.3073                 6.1044                 1.9174
 Frc consts  --      1.3968                 3.7649                 1.2277
 IR Inten    --      4.9544                 1.1048                 1.3398

                     40                     41                     42
                      A                      A                      A
 Frequencies --   1060.0672              1068.0121              1091.8037
 Red. masses --      2.0413                 1.6719                 1.6025
 Frc consts  --      1.3515                 1.1236                 1.1255
 IR Inten    --      7.8730                 4.5697                 2.3694

                     43                     44                     45
                      A                      A                      A
 Frequencies --   1118.3933              1136.0859              1156.6800
 Red. masses --      1.8999                 1.9064                 2.5097
 Frc consts  --      1.4001                 1.4497                 1.9784
 IR Inten    --     15.1579                 6.2481                 2.1464

                     46                     47                     48
                      A                      A                      A
 Frequencies --   1188.9540              1194.4202              1219.7359
 Red. masses --      2.6879                 1.0965                 1.1343
 Frc consts  --      2.2387                 0.9216                 0.9943
 IR Inten    --     14.4965                 0.1436                 0.3494

                     49                     50                     51
                      A                      A                      A
 Frequencies --   1242.3107              1305.5983              1336.8458
 Red. masses --      2.0430                 1.8988                 1.7868
 Frc consts  --      1.8577                 1.9070                 1.8815
 IR Inten    --      1.4535                 5.3612                 0.6994

                     52                     53                     54
                      A                      A                      A
 Frequencies --   1348.8912              1366.6733              1371.8105
 Red. masses --      1.8869                 1.9322                 1.5170
 Frc consts  --      2.0227                 2.1264                 1.6820
 IR Inten    --      2.5648                 8.1244                 5.8505

                     55                     56                     57
                      A                      A                      A
 Frequencies --   1405.2683              1408.7697              1436.3228
 Red. masses --      1.6398                 1.6079                 2.6637
 Frc consts  --      1.9079                 1.8801                 3.2378
 IR Inten    --     92.8416                38.4848               140.0215

                     58                     59                     60
                      A                      A                      A
 Frequencies --   1451.4119              1498.6390              1504.3553
 Red. masses --      1.2793                 1.1174                 2.1929
 Frc consts  --      1.5878                 1.4786                 2.9240
 IR Inten    --     13.2145                19.9624                 9.6647

                     61                     62                     63
                      A                      A                      A
 Frequencies --   1527.1341              1531.7749              1551.1978
 Red. masses --      1.0641                 1.0598                 2.1233
 Frc consts  --      1.4622                 1.4651                 3.0103
 IR Inten    --      6.3666                 7.7906                 9.8645

                     64                     65                     66
                      A                      A                      A
 Frequencies --   1647.4295              1660.2811              1669.3855
 Red. masses --      5.4561                 6.7332                 5.5987
 Frc consts  --      8.7245                10.9354                 9.1929
 IR Inten    --      1.0994                 2.4218                 3.2050

                     67                     68                     69
                      A                      A                      A
 Frequencies --   1802.9297              1860.8561              3033.7500
 Red. masses --     12.2009                11.7277                 1.0836
 Frc consts  --     23.3669                23.9270                 5.8759
 IR Inten    --    495.9670                 8.3814                21.2166

                     70                     71                     72
                      A                      A                      A
 Frequencies --   3063.8766              3088.8589              3125.5961
 Red. masses --      1.0383                 1.0596                 1.1029
 Frc consts  --      5.7426                 5.9562                 6.3484
 IR Inten    --     23.4201                25.1322                30.2299

                     73                     74                     75
                      A                      A                      A
 Frequencies --   3143.4985              3155.9603              3175.1107
 Red. masses --      1.1069                 1.0989                 1.0866
 Frc consts  --      6.4442                 6.4487                 6.4540
 IR Inten    --      5.2809                16.6584                 9.1662

                     76                     77                     78
                      A                      A                      A
 Frequencies --   3182.7847              3194.4237              3204.6775
 Red. masses --      1.0865                 1.0907                 1.0929
 Frc consts  --      6.4847                 6.5576                 6.6131
 IR Inten    --      0.3119                20.5782                38.0160

                     79                     80                     81
                      A                      A                      A
 Frequencies --   3211.7495              3256.5227              3277.2591
 Red. masses --      1.0973                 1.0888                 1.1080
 Frc consts  --      6.6691                 6.8033                 7.0116
 IR Inten    --     13.2611                 0.3356                 0.5697

 - Thermochemistry -
 -------------------
 Temperature   298.150 Kelvin.  Pressure   1.00000 Atm.
 Atom     1 has atomic number  6 and mass  12.00000

 Molecular mass:   215.09463 amu.
 Principal axes and moments of inertia in atomic units:
                           1         2         3
     Eigenvalues --  2186.996043689.562104436.98673
           X            0.99994   0.01083   0.00340
           Y           -0.01068   0.99904  -0.04256
           Z           -0.00386   0.04252   0.99909
 This molecule is an asymmetric top.
 Rotational symmetry number  1.
 Warning -- assumption of classical behavior for rotation
           may cause significant error
 Rotational temperatures (Kelvin)      0.03960     0.02348     0.01952
 Rotational constants (GHZ):           0.82521     0.48915     0.40675
 Zero-point vibrational energy     619642.1 (Joules/Mol)
                                  148.09801 (Kcal/Mol)
 Warning -- explicit consideration of  19 degrees of freedom as
           vibrations may cause significant error
 Vibrational temperatures:     27.90    68.86    73.97   149.49   162.02
          (Kelvin)            229.56   307.14   322.35   366.76   390.03
                              423.93   479.18   522.05   591.54   599.72
                              713.05   780.78   818.10   848.43   896.97
                              917.23   965.48  1019.87  1028.30  1056.97
                             1100.17  1108.07  1160.91  1204.21  1234.98
                             1253.78  1324.57  1335.81  1386.69  1387.39
                             1426.82  1458.40  1472.06  1499.92  1525.20
                             1536.63  1570.86  1609.12  1634.57  1664.20
                             1710.64  1718.50  1754.93  1787.41  1878.46
                             1923.42  1940.75  1966.34  1973.73  2021.87
                             2026.91  2066.55  2088.26  2156.21  2164.43
                             2197.21  2203.88  2231.83  2370.28  2388.77
                             2401.87  2594.01  2677.36  4364.89  4408.23
                             4444.18  4497.04  4522.79  4540.72  4568.28
                             4579.32  4596.06  4610.82  4620.99  4685.41
                             4715.24

 Zero-point correction=                           0.236009 (Hartree/Particle)
 Thermal correction to Energy=                    0.249804
 Thermal correction to Enthalpy=                  0.250748
 Thermal correction to Gibbs Free Energy=         0.194066
 Sum of electronic and zero-point Energies=           -708.246764
 Sum of electronic and thermal Energies=              -708.232969
 Sum of electronic and thermal Enthalpies=            -708.232025
 Sum of electronic and thermal Free Energies=         -708.288707

                     E (Thermal)             CV                S
                      KCal/Mol        Cal/Mol-Kelvin    Cal/Mol-Kelvin
 Total                  156.754             53.224            119.297
 Electronic               0.000              0.000              0.000
 Translational            0.889              2.981             42.001
 Rotational               0.889              2.981             31.949
 Vibrational            154.977             47.263             45.348
 Vibration     1          0.593              1.986              6.695
 Vibration     2          0.595              1.978              4.904
 Vibration     3          0.596              1.977              4.762
 Vibration     4          0.605              1.946              3.380
 Vibration     5          0.607              1.939              3.223
 Vibration     6          0.621              1.892              2.555
 Vibration     7          0.644              1.820              2.014
 Vibration     8          0.649              1.804              1.926
 Vibration     9          0.665              1.755              1.696
 Vibration    10          0.675              1.727              1.589
 Vibration    11          0.689              1.684              1.447
 Vibration    12          0.715              1.610              1.245
 Vibration    13          0.737              1.549              1.110
 Vibration    14          0.775              1.446              0.923
 Vibration    15          0.780              1.434              0.903
 Vibration    16          0.851              1.260              0.669
 Vibration    17          0.898              1.156              0.560
 Vibration    18          0.925              1.099              0.507
 Vibration    19          0.947              1.054              0.468

 Optimization completed.
    -- Stationary point found.
 Normal termination of Gaussian 16 at Thu Dec 10 23:25:39 2020.

 ----------------------------------------------------------------------
 # B3LYP/6-311++G(d,p) empiricaldispersion=gd3bj scf=xqc pop=npa geom=c
 heck
 ----------------------------------------------------------------------

 --------------------------------------
 CID_13681597_JID_6491_Energie_neutraal
 --------------------------------------
 Structure from the checkpoint file:  "JID_6491.chk"
 Charge =  0 Multiplicity = 1

 SCF Done:  E(RB3LYP) =  -708.676235822     A.U. after   15 cycles
 Normal termination of Gaussian 16 at Thu Dec 10 23:30:41 2020.

 ----------------------------------------------------------------------
 # B3LYP/6-311++G(d,p) empiricaldispersion=gd3bj scf=xqc pop=npa geom=c
 heck
 ----------------------------------------------------------------------

 ------------------------------------
 CID_13681597_JID_6491_Energie_kation
 ------------------------------------
 Structure from the checkpoint file:  "JID_6491.chk"
 Charge =  1 Multiplicity = 2

 SCF Done:  E(UB3LYP) =  -708.359056244     A.U. after   32 cycles
 Normal termination of Gaussian 16 at Thu Dec 10 23:45:49 2020.
 Gaussian 16:  ES64L-G16RevA.03 25-Dec-2016

 ----------------------------------------------------------------------
 # B3LYP/6-311++G(d,p) empiricaldispersion=gd3bj scf=xqc pop=npa geom=c
 heck
 ----------------------------------------------------------------------

 -----------------------------------
 CID_13681597_JID_6491_Energie_anion
 -----------------------------------
 Structure from the checkpoint file:  "JID_6491.chk"
 Charge = -1 Multiplicity = 2

                         Standard orientation:
 ---------------------------------------------------------------------
 Center     Atomic      Atomic             Coordinates (Angstroms)
 Number     Number       Type             X           Y           Z
 ---------------------------------------------------------------------
      1          6           0        0.371565    2.761240    0.599930
      2          6           0       -0.214651    1.869099   -0.502669
      3          6           0        0.886100    1.110609   -1.293541
      4          7           0        1.389280   -0.073641   -0.616452
      5          6           0        0.881806   -1.362605   -0.838092
      6          8           0        0.047647   -1.663500   -1.664173
      7          6           0        1.612707   -2.263690    0.114732
      8          6           0        2.494087   -1.532347    0.802628
      9          6           0        2.384095   -0.100363    0.359957
     10          8           0        3.024717    0.853236    0.756834
     11          6           0       -1.269422    0.894492   -0.010002
     12          6           0       -2.353059    0.565050   -0.831666
     13          6           0       -3.288193   -0.391205   -0.440938
     14          6           0       -3.153011   -1.039654    0.787105
     15          6           0       -2.080746   -0.717936    1.618834
     16          6           0       -1.148781    0.242283    1.223438
     17          1           0        0.955800    2.194158    1.327543
     18          1           0       -0.428406    3.286789    1.131542
     19          1           0        1.045581    3.506638    0.164788
     20          1           0       -0.692039    2.527872   -1.240776
     21          1           0        0.478818    0.759102   -2.244291
     22          1           0        1.733892    1.772616   -1.492103
     23          1           0        1.410933   -3.325717    0.161932
     24          1           0        3.201176   -1.838914    1.562305
     25          1           0       -2.456438    1.056840   -1.796159
     26          1           0       -4.119817   -0.632803   -1.096871
     27          1           0       -3.878569   -1.787724    1.093783
     28          1           0       -1.968263   -1.212968    2.579713
     29          1           0       -0.321520    0.481863    1.884181
 ---------------------------------------------------------------------

 SCF Done:  E(UB3LYP) =  -708.711984892     A.U. after   22 cycles

 The electronic state is 2-A.
 Alpha  occ. eigenvalues --  -18.92090 -18.91988 -14.18273 -10.08984 -10.08831
 Alpha  occ. eigenvalues --  -10.07742 -10.06868 -10.06844 -10.06779 -10.06718
 Alpha  occ. eigenvalues --  -10.06593 -10.06374 -10.05962 -10.04501  -9.99557
 Alpha  occ. eigenvalues --   -9.99461  -0.88652  -0.86633  -0.78454  -0.74923
 Alpha  occ. eigenvalues --   -0.69129  -0.63984  -0.63727  -0.61370  -0.55758
 Alpha  occ. eigenvalues --   -0.51173  -0.49677  -0.48541  -0.45969  -0.42347
 Alpha  occ. eigenvalues --   -0.41093  -0.38321  -0.35743  -0.34492  -0.33432
 Alpha  occ. eigenvalues --   -0.32432  -0.31384  -0.31039  -0.30322  -0.28243
 Alpha  occ. eigenvalues --   -0.27592  -0.26916  -0.26166  -0.25726  -0.25350
 Alpha  occ. eigenvalues --   -0.24216  -0.23474  -0.23122  -0.22108  -0.21817
 Alpha  occ. eigenvalues --   -0.21541  -0.14605  -0.13732  -0.12663  -0.11134
 Alpha  occ. eigenvalues --   -0.10124  -0.08603   0.03548
 Alpha virt. eigenvalues --    0.07715   0.08639   0.09452   0.09558   0.09676
 Alpha virt. eigenvalues --    0.10802   0.10856   0.11336   0.12057   0.12813
 Alpha virt. eigenvalues --    0.13068   0.13888   0.14628   0.15162   0.16333

  Beta  occ. eigenvalues --  -18.91613 -18.91503 -14.18373 -10.08767 -10.08627
  Beta  occ. eigenvalues --  -10.07740 -10.06870 -10.06845 -10.06777 -10.06718
  Beta  occ. eigenvalues --  -10.06591 -10.06374 -10.05962 -10.04501  -9.99261
  Beta  occ. eigenvalues --   -9.99149  -0.88008  -0.85796  -0.78156  -0.74906
  Beta  occ. eigenvalues --   -0.69037  -0.63728  -0.63597  -0.61237  -0.55589
  Beta  occ. eigenvalues --   -0.51126  -0.49674  -0.47419  -0.45931  -0.41826
  Beta  occ. eigenvalues --   -0.41032  -0.38219  -0.35682  -0.34453  -0.33329
  Beta  occ. eigenvalues --   -0.32361  -0.31358  -0.30514  -0.30107  -0.28006
  Beta  occ. eigenvalues --   -0.27022  -0.26812  -0.25689  -0.25436  -0.24938
  Beta  occ. eigenvalues --   -0.24173  -0.23125  -0.22735  -0.21925  -0.21496
  Beta  occ. eigenvalues --   -0.19543  -0.14497  -0.13705  -0.10689  -0.09988
  Beta  occ. eigenvalues --   -0.09130  -0.08120
  Beta virt. eigenvalues --    0.07710   0.08635   0.09441   0.09556   0.09676
  Beta virt. eigenvalues --    0.10788   0.10850   0.11161   0.11331   0.12053
  Beta virt. eigenvalues --    0.12824   0.13063   0.13886   0.14636   0.15162

 Mulliken charges and spin densities:
               1          2
     1  C   -0.702934   0.004545
     2  C    0.124267  -0.004730
     3  C   -0.268460  -0.015777
     4  N    0.157015  -0.060661
     5  C   -0.195714   0.150222
     6  O   -0.385677   0.163762
     7  C   -0.118473   0.245036
     8  C   -0.152621   0.244648
     9  C   -0.235955   0.146284
    10  O   -0.410238   0.160613
    11  C    0.598153   0.013606
    12  C   -0.004577  -0.002964
    13  C   -0.329406   0.007152
    14  C   -0.333535  -0.011085
    15  C   -0.347739  -0.000728
    16  C   -0.234485  -0.008590
    17  H    0.190282   0.000048
    18  H    0.107261   0.000051
    19  H    0.127616   0.000076
    20  H    0.146690  -0.000241
    21  H    0.168260  -0.001662
    22  H    0.156487  -0.000382
    23  H    0.117246  -0.018246
    24  H    0.112472  -0.017215
    25  H    0.138902   0.000606
    26  H    0.142182   0.000564
    27  H    0.123586  -0.000214
    28  H    0.159646   0.000946
    29  H    0.149749   0.004336
 Sum of Mulliken charges =  -1.00000   1.00000

 Dipole moment (field-independent basis, Debye):
    X=             -6.1768    Y=              3.0786    Z=              0.4705  Tot=              6.9175
 Quadrupole moment (field-independent basis, Debye-Ang):
   XX=           -129.0420   YY=           -112.0736   ZZ=           -105.4613
   XY=             -0.0484   XZ=             -4.2059   YZ=            -10.8114

 Summary of Natural Population Analysis:

                                       Natural Population
                Natural  -----------------------------------------------
    Atom  No    Charge         Core      Valence    Rydberg      Total
 -----------------------------------------------------------------------
      C    1   -0.28564      0.99965     2.28086    0.00513     3.28564
      C    2   -0.12073      0.99957     2.11066    0.01051     3.12073
      C    3   -0.07825      0.99960     2.06786    0.01079     3.07825
      N    4   -0.29850      0.99960     2.78786    0.01104     3.79850
      C    5    0.35768      0.99967     1.61774    0.02490     2.64232
      O    6   -0.26657      0.99987     3.26008    0.00661     4.26657
      C    7   -0.07152      0.99950     2.06322    0.00879     3.07152
      C    8   -0.08067      0.99950     2.07216    0.00901     3.08067
      C    9    0.36062      0.99967     1.61714    0.02257     2.63938
      O   10   -0.27804      0.99987     3.27151    0.00666     4.27804
      C   11   -0.00717      0.99949     1.99437    0.01331     3.00717
      C   12   -0.09188      0.99951     2.08394    0.00843     3.09188
      C   13   -0.09958      0.99957     2.09102    0.00898     3.09958
      C   14   -0.10905      0.99957     2.10034    0.00914     3.10905
      C   15   -0.09756      0.99957     2.08874    0.00924     3.09756
      C   16   -0.09621      0.99951     2.08848    0.00823     3.09621
      H   17    0.11295      0.00000     0.38597    0.00108     0.38705
      H   18    0.09145      0.00000     0.40771    0.00084     0.40855
      H   19    0.09756      0.00000     0.40162    0.00082     0.40244
      H   20    0.09081      0.00000     0.40767    0.00152     0.40919
      H   21    0.10536      0.00000     0.39342    0.00122     0.39464
      H   22    0.09968      0.00000     0.39919    0.00113     0.40032
      H   23    0.08890      0.00000     0.41000    0.00109     0.41110
      H   24    0.08871      0.00000     0.41008    0.00121     0.41129
      H   25    0.09544      0.00000     0.40327    0.00129     0.40456
      H   26    0.09449      0.00000     0.40451    0.00100     0.40551
      H   27    0.09442      0.00000     0.40462    0.00096     0.40558
      H   28    0.09664      0.00000     0.40238    0.00098     0.40336
      H   29    0.10665      0.00000     0.39212    0.00123     0.39335
 =======================================================================
   * Total *   -0.00000     15.99375    40.81854    0.18772    57.00000

 Normal termination of Gaussian 16 at Thu Dec 10 23:56:24 2020.
