 Gaussian 16, Revision A.03,

 -----------------------------------------------------------
 # opt freq B3LYP/6-31G(d) empiricaldispersion=gd3bj scf=xqc
 -----------------------------------------------------------

 -------------------------------
 CID_131203932_JID_4682_neutraal
 -------------------------------
 Symbolic Z-matrix:
 Charge =  0 Multiplicity = 1

 SCF Done:  E(RB3LYP) =  -983.427164284     A.U. after   15 cycles
 SCF Done:  E(RB3LYP) =  -983.432911285     A.U. after   12 cycles
 SCF Done:  E(RB3LYP) =  -983.433577488     A.U. after   12 cycles
 SCF Done:  E(RB3LYP) =  -983.433903163     A.U. after   12 cycles
 SCF Done:  E(RB3LYP) =  -983.434555765     A.U. after   13 cycles
 SCF Done:  E(RB3LYP) =  -983.435354037     A.U. after   13 cycles
 SCF Done:  E(RB3LYP) =  -983.436344648     A.U. after   12 cycles
 SCF Done:  E(RB3LYP) =  -983.436966940     A.U. after   12 cycles
 SCF Done:  E(RB3LYP) =  -983.437202277     A.U. after   12 cycles
 SCF Done:  E(RB3LYP) =  -983.437325627     A.U. after   12 cycles
 SCF Done:  E(RB3LYP) =  -983.437640620     A.U. after   10 cycles
 SCF Done:  E(RB3LYP) =  -983.437652262     A.U. after   10 cycles
 SCF Done:  E(RB3LYP) =  -983.437654708     A.U. after   10 cycles
 SCF Done:  E(RB3LYP) =  -983.437655172     A.U. after    8 cycles
 SCF Done:  E(RB3LYP) =  -983.437655359     A.U. after    7 cycles
 SCF Done:  E(RB3LYP) =  -983.437655415     A.U. after    7 cycles
 Optimization completed.
    -- Stationary point found.
 Normal termination of Gaussian 16 at Thu Dec 10 10:25:47 2020.

 --------------------------------------------------------------------
 #N Geom=AllCheck Guess=TCheck SCRF=Check GenChk RB3LYP/6-31G(d) Freq
 --------------------------------------------------------------------

 Structure from the checkpoint file:  "JID_4682.chk"
 -------------------------------
 CID_131203932_JID_4682_neutraal
 -------------------------------
 Charge =  0 Multiplicity = 1

 SCF Done:  E(RB3LYP) =  -983.437655415     A.U. after    1 cycles

  Exact polarizability: 181.371   0.782 124.876   5.226   2.943  73.316
 Approx polarizability: 233.976  -3.418 234.147   9.287   9.982 118.417

                      1                      2                      3
                      A                      A                      A
 Frequencies --     27.9113                32.4943                63.6955
 Red. masses --      5.6633                 4.8576                 4.7721
 Frc consts  --      0.0026                 0.0030                 0.0114
 IR Inten    --      2.9355                 2.9103                 5.4057

                      4                      5                      6
                      A                      A                      A
 Frequencies --     85.1588               115.6630               149.9913
 Red. masses --      1.9997                 1.4210                 1.7838
 Frc consts  --      0.0085                 0.0112                 0.0236
 IR Inten    --      1.3632                 1.2262                 0.3678

                      7                      8                      9
                      A                      A                      A
 Frequencies --    169.3690               179.9231               220.4860
 Red. masses --      1.7204                 2.9838                 5.2520
 Frc consts  --      0.0291                 0.0569                 0.1504
 IR Inten    --      0.2629                 2.3438                 0.0948

                     10                     11                     12
                      A                      A                      A
 Frequencies --    232.2444               253.6162               273.9710
 Red. masses --      3.5554                 3.1903                 2.5781
 Frc consts  --      0.1130                 0.1209                 0.1140
 IR Inten    --      2.5151                 2.4018                 2.1814

                     13                     14                     15
                      A                      A                      A
 Frequencies --    355.1124               366.2965               492.6090
 Red. masses --      3.9425                 4.3510                 4.4051
 Frc consts  --      0.2929                 0.3440                 0.6298
 IR Inten    --     10.0343                 0.8842                 4.0916

                     16                     17                     18
                      A                      A                      A
 Frequencies --    540.0337               588.2669               614.4098
 Red. masses --      4.3372                 6.2938                 4.1348
 Frc consts  --      0.7452                 1.2833                 0.9196
 IR Inten    --      1.5741                 2.6504                24.3406

                     19                     20                     21
                      A                      A                      A
 Frequencies --    626.4318               657.4642               669.5946
 Red. masses --      4.8380                 2.4521                 6.0454
 Frc consts  --      1.1186                 0.6245                 1.5970
 IR Inten    --     34.1800                29.0329                 7.5156

                     22                     23                     24
                      A                      A                      A
 Frequencies --    727.7892               732.5551               744.4357
 Red. masses --      5.0522                 4.8508                 5.1642
 Frc consts  --      1.5767                 1.5337                 1.6862
 IR Inten    --     10.9654                20.9856                13.7042

                     25                     26                     27
                      A                      A                      A
 Frequencies --    760.0114               790.1202               869.4472
 Red. masses --      4.5086                 1.1895                 3.0719
 Frc consts  --      1.5344                 0.4375                 1.3682
 IR Inten    --     16.9949                23.1240                 3.2348

                     28                     29                     30
                      A                      A                      A
 Frequencies --    877.0824               885.5191               991.4247
 Red. masses --      2.9468                 1.8421                 2.3356
 Frc consts  --      1.3356                 0.8510                 1.3526
 IR Inten    --     44.2297                16.4481                 0.2563

                     31                     32                     33
                      A                      A                      A
 Frequencies --   1012.2415              1033.9972              1078.3459
 Red. masses --      1.7875                 2.0744                 1.5316
 Frc consts  --      1.0791                 1.3067                 1.0493
 IR Inten    --     21.2166                 0.7266                 1.6731

                     34                     35                     36
                      A                      A                      A
 Frequencies --   1083.1973              1103.6240              1147.6187
 Red. masses --      5.3426                 4.2803                 2.3272
 Frc consts  --      3.6934                 3.0716                 1.8058
 IR Inten    --      0.4892                33.3415                11.5388

                     37                     38                     39
                      A                      A                      A
 Frequencies --   1161.4103              1167.6513              1208.1800
 Red. masses --      1.3303                 2.9474                 2.1531
 Frc consts  --      1.0572                 2.3676                 1.8517
 IR Inten    --      4.6408                 2.7513                27.7520

                     40                     41                     42
                      A                      A                      A
 Frequencies --   1250.6749              1266.8322              1289.0460
 Red. masses --      1.2219                 1.3171                 3.2331
 Frc consts  --      1.1261                 1.2454                 3.1652
 IR Inten    --     30.3469                11.6187                 6.2027

                     43                     44                     45
                      A                      A                      A
 Frequencies --   1343.0064              1385.4855              1406.5867
 Red. masses --      2.0336                 2.2262                 2.3813
 Frc consts  --      2.1611                 2.5177                 2.7759
 IR Inten    --      0.1898                23.7703                23.3086

                     46                     47                     48
                      A                      A                      A
 Frequencies --   1434.8990              1450.6590              1485.4602
 Red. masses --      1.4279                 1.6303                 6.4849
 Frc consts  --      1.7321                 2.0214                 8.4310
 IR Inten    --      3.6952                29.1873                38.8327

                     49                     50                     51
                      A                      A                      A
 Frequencies --   1487.7002              1508.2082              1511.5696
 Red. masses --      1.2515                 1.1256                 1.1016
 Frc consts  --      1.6319                 1.5085                 1.4829
 IR Inten    --     36.2294                15.1176                13.5577

                     52                     53                     54
                      A                      A                      A
 Frequencies --   1521.5601              1532.5667              1539.1941
 Red. masses --      1.0762                 1.1188                 1.1407
 Frc consts  --      1.4680                 1.5482                 1.5923
 IR Inten    --     12.7720                15.5851                 4.1393

                     55                     56                     57
                      A                      A                      A
 Frequencies --   1555.7646              1581.8612              1594.9652
 Red. masses --      2.4394                 5.2717                 4.9009
 Frc consts  --      3.4788                 7.7721                 7.3456
 IR Inten    --     71.3234                13.2717                96.3664

                     58                     59                     60
                      A                      A                      A
 Frequencies --   1610.0301              3026.6638              3043.1485
 Red. masses --      7.9649                 1.0717                 1.0403
 Frc consts  --     12.1646                 5.7841                 5.6760
 IR Inten    --    217.0297                27.4327                27.0667

                     61                     62                     63
                      A                      A                      A
 Frequencies --   3053.0063              3091.7941              3093.2347
 Red. masses --      1.0399                 1.1013                 1.0908
 Frc consts  --      5.7107                 6.2026                 6.1491
 IR Inten    --     41.1889                17.8752                 4.8449

                     64                     65                     66
                      A                      A                      A
 Frequencies --   3123.1647              3159.3873              3162.6382
 Red. masses --      1.0975                 1.1039                 1.0976
 Frc consts  --      6.3071                 6.4922                 6.4682
 IR Inten    --     13.3219                 7.6619                 3.1893

                     67                     68                     69
                      A                      A                      A
 Frequencies --   3245.8098              3248.8630              3514.7951
 Red. masses --      1.0916                 1.0957                 1.0745
 Frc consts  --      6.7758                 6.8138                 7.8211
 IR Inten    --      6.4958                 0.9752                 4.1669

 - Thermochemistry -
 -------------------
 Temperature   298.150 Kelvin.  Pressure   1.00000 Atm.
 Atom     1 has atomic number  6 and mass  12.00000

 Molecular mass:   209.07352 amu.
 Principal axes and moments of inertia in atomic units:
                           1         2         3
     Eigenvalues --   902.409857353.521828110.51653
           X            0.99994   0.01068  -0.00185
           Y           -0.01069   0.99988  -0.01086
           Z            0.00173   0.01088   0.99994
 This molecule is an asymmetric top.
 Rotational symmetry number  1.
 Warning -- assumption of classical behavior for rotation
           may cause significant error
 Rotational temperatures (Kelvin)      0.09598     0.01178     0.01068
 Rotational constants (GHZ):           1.99991     0.24543     0.22252
 Zero-point vibrational energy     518030.7 (Joules/Mol)
                                  123.81231 (Kcal/Mol)
 Warning -- explicit consideration of  18 degrees of freedom as
           vibrations may cause significant error
 Vibrational temperatures:     40.16    46.75    91.64   122.52   166.41
          (Kelvin)            215.80   243.68   258.87   317.23   334.15
                              364.90   394.18   510.93   527.02   708.75
                              776.99   846.38   884.00   901.30   945.94
                              963.40  1047.13  1053.98  1071.08  1093.49
                             1136.81  1250.94  1261.93  1274.06  1426.44
                             1456.39  1487.69  1551.50  1558.48  1587.87
                             1651.17  1671.01  1679.99  1738.30  1799.44
                             1822.69  1854.65  1932.29  1993.40  2023.76
                             2064.50  2087.17  2137.25  2140.47  2169.98
                             2174.81  2189.19  2205.02  2214.56  2238.40
                             2275.95  2294.80  2316.47  4354.69  4378.41
                             4392.60  4448.40  4450.47  4493.54  4545.65
                             4550.33  4670.00  4674.39  5057.01

 Zero-point correction=                           0.197307 (Hartree/Particle)
 Thermal correction to Energy=                    0.210866
 Thermal correction to Enthalpy=                  0.211810
 Thermal correction to Gibbs Free Energy=         0.154851
 Sum of electronic and zero-point Energies=           -983.240348
 Sum of electronic and thermal Energies=              -983.226789
 Sum of electronic and thermal Enthalpies=            -983.225845
 Sum of electronic and thermal Free Energies=         -983.282804

                     E (Thermal)             CV                S
                      KCal/Mol        Cal/Mol-Kelvin    Cal/Mol-Kelvin
 Total                  132.321             48.776            119.881
 Electronic               0.000              0.000              0.000
 Translational            0.889              2.981             41.916
 Rotational               0.889              2.981             32.354
 Vibrational            130.543             42.815             45.611
 Vibration     1          0.593              1.984              5.973
 Vibration     2          0.594              1.983              5.671
 Vibration     3          0.597              1.972              4.339
 Vibration     4          0.601              1.959              3.768
 Vibration     5          0.608              1.936              3.172
 Vibration     6          0.618              1.903              2.672
 Vibration     7          0.625              1.880              2.442
 Vibration     8          0.629              1.867              2.329
 Vibration     9          0.647              1.810              1.955
 Vibration    10          0.653              1.792              1.862
 Vibration    11          0.665              1.757              1.705
 Vibration    12          0.676              1.721              1.571
 Vibration    13          0.731              1.565              1.143
 Vibration    14          0.739              1.542              1.095
 Vibration    15          0.848              1.266              0.677
 Vibration    16          0.895              1.162              0.565
 Vibration    17          0.945              1.057              0.470
 Vibration    18          0.974              1.001              0.426

 Optimization completed.
    -- Stationary point found.
 Normal termination of Gaussian 16 at Thu Dec 10 10:31:47 2020.

 ----------------------------------------------------------------------
 # B3LYP/6-311++G(d,p) empiricaldispersion=gd3bj scf=xqc pop=npa geom=c
 heck
 ----------------------------------------------------------------------

 ---------------------------------------
 CID_131203932_JID_4682_Energie_neutraal
 ---------------------------------------
 Structure from the checkpoint file:  "JID_4682.chk"
 Charge =  0 Multiplicity = 1

 SCF Done:  E(RB3LYP) =  -983.622581967     A.U. after   15 cycles
 Normal termination of Gaussian 16 at Thu Dec 10 10:34:38 2020.

 ----------------------------------------------------------------------
 # B3LYP/6-311++G(d,p) empiricaldispersion=gd3bj scf=xqc pop=npa geom=c
 heck
 ----------------------------------------------------------------------

 -------------------------------------
 CID_131203932_JID_4682_Energie_kation
 -------------------------------------
 Structure from the checkpoint file:  "JID_4682.chk"
 Charge =  1 Multiplicity = 2

 SCF Done:  E(UB3LYP) =  -983.324153683     A.U. after   26 cycles
 Normal termination of Gaussian 16 at Thu Dec 10 10:40:03 2020.
 Gaussian 16:  ES64L-G16RevA.03 25-Dec-2016

 ----------------------------------------------------------------------
 # B3LYP/6-311++G(d,p) empiricaldispersion=gd3bj scf=xqc pop=npa geom=c
 heck
 ----------------------------------------------------------------------

 ------------------------------------
 CID_131203932_JID_4682_Energie_anion
 ------------------------------------
 Structure from the checkpoint file:  "JID_4682.chk"
 Charge = -1 Multiplicity = 2

                         Standard orientation:
 ---------------------------------------------------------------------
 Center     Atomic      Atomic             Coordinates (Angstroms)
 Number     Number       Type             X           Y           Z
 ---------------------------------------------------------------------
      1          6           0        5.070752    0.200109    0.034329
      2          6           0        3.656237   -0.263693    0.065507
      3          7           0        3.254324   -1.489587    0.290003
      4          7           0        1.864632   -1.507391    0.212776
      5          6           0        1.483334   -0.278630   -0.045370
      6          7           0        2.565520    0.562529   -0.145231
      7          6           0        2.533976    1.994256   -0.365781
      8          7           0        0.177776    0.188113   -0.127886
      9          6           0       -0.857827   -0.824815    0.089279
     10          6           0       -2.204281   -0.162844    0.110531
     11          6           0       -2.524993    1.115054    0.481380
     12          7           0       -3.858218    1.458583    0.416115
     13          6           0       -4.567653    0.452526    0.000639
     14         16           0       -3.659621   -1.001705   -0.356122
     15          1           0        5.714617   -0.660091    0.227478
     16          1           0        5.272242    0.960216    0.799883
     17          1           0        5.341406    0.627079   -0.939311
     18          1           0        2.538617    2.242131   -1.434090
     19          1           0        1.628393    2.401086    0.092706
     20          1           0        3.404737    2.456445    0.103787
     21          1           0       -0.005171    0.732011   -0.967473
     22          1           0       -0.821724   -1.622533   -0.666495
     23          1           0       -0.639005   -1.309355    1.046763
     24          1           0       -1.802094    1.848311    0.816951
     25          1           0       -5.643607    0.474482   -0.125769
 ---------------------------------------------------------------------

 SCF Done:  E(UB3LYP) =  -983.620158563     A.U. after   31 cycles

 The electronic state is 2-A.
 Alpha  occ. eigenvalues --  -88.77820 -14.27268 -14.23917 -14.21164 -14.21071
 Alpha  occ. eigenvalues --  -14.20701 -10.15831 -10.13140 -10.12181 -10.12163
 Alpha  occ. eigenvalues --  -10.11485 -10.10363 -10.09467 -10.08295  -7.86490
 Alpha  occ. eigenvalues --   -5.82752  -5.82418  -5.82118  -0.95887  -0.86069
 Alpha  occ. eigenvalues --   -0.84524  -0.81895  -0.71990  -0.69883  -0.65104
 Alpha  occ. eigenvalues --   -0.63082  -0.62030  -0.59551  -0.50834  -0.49395
 Alpha  occ. eigenvalues --   -0.47722  -0.45743  -0.43790  -0.40286  -0.39115
 Alpha  occ. eigenvalues --   -0.38388  -0.36567  -0.34837  -0.33138  -0.32889
 Alpha  occ. eigenvalues --   -0.32510  -0.31468  -0.30884  -0.30469  -0.29682
 Alpha  occ. eigenvalues --   -0.29118  -0.26349  -0.21568  -0.20560  -0.18467
 Alpha  occ. eigenvalues --   -0.18053  -0.17569  -0.15612  -0.14747  -0.12331
 Alpha  occ. eigenvalues --    0.03874
 Alpha virt. eigenvalues --    0.05380   0.07226   0.07554   0.08391   0.08755
 Alpha virt. eigenvalues --    0.09942   0.10209   0.11016   0.11094   0.11378
 Alpha virt. eigenvalues --    0.12241   0.12322   0.12832   0.13526   0.14126

  Beta  occ. eigenvalues --  -88.77794 -14.27264 -14.23882 -14.21161 -14.21034
  Beta  occ. eigenvalues --  -14.20697 -10.15830 -10.13139 -10.12171 -10.11972
  Beta  occ. eigenvalues --  -10.11403 -10.10234 -10.09452 -10.08254  -7.86466
  Beta  occ. eigenvalues --   -5.82743  -5.82408  -5.82024  -0.95874  -0.85907
  Beta  occ. eigenvalues --   -0.84467  -0.81877  -0.71907  -0.69769  -0.64912
  Beta  occ. eigenvalues --   -0.62973  -0.61965  -0.59468  -0.50794  -0.49239
  Beta  occ. eigenvalues --   -0.47549  -0.45601  -0.43703  -0.40218  -0.39051
  Beta  occ. eigenvalues --   -0.38328  -0.36494  -0.34740  -0.33049  -0.32777
  Beta  occ. eigenvalues --   -0.32407  -0.31377  -0.30826  -0.30314  -0.29426
  Beta  occ. eigenvalues --   -0.28952  -0.26215  -0.21523  -0.20503  -0.18175
  Beta  occ. eigenvalues --   -0.17876  -0.17473  -0.15592  -0.13996  -0.12303
  Beta virt. eigenvalues --    0.06683   0.07154   0.07303   0.08116   0.08735
  Beta virt. eigenvalues --    0.09489   0.10418   0.10622   0.11017   0.11278
  Beta virt. eigenvalues --    0.11749   0.12369   0.12457   0.12914   0.13763

 Mulliken charges and spin densities:
               1          2
     1  C    1.266334  -2.003141
     2  C   -0.756488   0.886710
     3  N   -0.001385   0.092954
     4  N   -0.265103  -0.078205
     5  C   -0.317182   0.500783
     6  N   -0.348725   0.284866
     7  C    1.582983  -1.946084
     8  N   -0.080222   0.002328
     9  C   -0.951741  -0.555018
    10  C    0.425927   0.476383
    11  C    0.078074  -0.201761
    12  N   -0.062068   0.020043
    13  C   -0.009661   0.142714
    14  S   -0.444157   0.113989
    15  H    0.081238   0.088470
    16  H   -0.134503   0.299472
    17  H   -0.282789   0.453280
    18  H   -0.678031   0.886697
    19  H   -0.178667   0.351411
    20  H   -0.640207   0.799848
    21  H    0.105045   0.167854
    22  H    0.217818   0.003069
    23  H    0.160989   0.053164
    24  H    0.041771   0.148382
    25  H    0.190751   0.011792
 Sum of Mulliken charges =  -1.00000   1.00000

 Dipole moment (field-independent basis, Debye):
    X=             -5.7384    Y=             -3.5652    Z=              0.4451  Tot=              6.7704
 Quadrupole moment (field-independent basis, Debye-Ang):
   XX=           -169.2473   YY=           -136.8278   ZZ=           -114.0881
   XY=             -1.6740   XZ=              6.7640   YZ=              5.1106

 Summary of Natural Population Analysis:

                                       Natural Population
                Natural  -----------------------------------------------
    Atom  No    Charge         Core      Valence    Rydberg      Total
 -----------------------------------------------------------------------
      C    1   -0.30861      0.99963     2.30340    0.00558     3.30861
      C    2    0.18641      0.99961     1.79675    0.01722     2.81359
      N    3   -0.17075      0.99968     2.65803    0.01303     3.67075
      N    4   -0.19481      0.99967     2.68315    0.01199     3.69481
      C    5    0.27752      0.99959     1.70625    0.01664     2.72248
      N    6   -0.22255      0.99959     2.71214    0.01083     3.72255
      C    7   -0.17876      0.99964     2.17098    0.00813     3.17876
      N    8   -0.32356      0.99968     2.81432    0.00956     3.82356
      C    9   -0.10299      0.99956     2.08976    0.01367     3.10299
      C   10   -0.09690      0.99950     2.08653    0.01086     3.09690
      C   11   -0.02721      0.99946     2.01197    0.01578     3.02721
      N   12   -0.23625      0.99969     2.72456    0.01200     3.73625
      C   13   -0.02478      0.99967     2.00800    0.01711     3.02478
      S   14    0.18103      4.99943     2.79924    0.02029     7.81897
      H   15    0.11381      0.00000     0.38502    0.00117     0.38619
      H   16    0.10755      0.00000     0.39109    0.00136     0.39245
      H   17    0.10913      0.00000     0.38935    0.00152     0.39087
      H   18    0.10288      0.00000     0.39255    0.00458     0.39712
      H   19    0.10631      0.00000     0.39165    0.00205     0.39369
      H   20    0.10798      0.00000     0.38848    0.00354     0.39202
      H   21    0.18996      0.00000     0.30703    0.00301     0.31004
      H   22    0.09634      0.00000     0.40226    0.00140     0.40366
      H   23    0.11189      0.00000     0.38673    0.00138     0.38811
      H   24    0.10370      0.00000     0.39431    0.00198     0.39630
      H   25    0.09263      0.00000     0.40624    0.00113     0.40737
 =======================================================================
   * Total *   -0.00000     17.99441    36.79980    0.20579    55.00000

 Normal termination of Gaussian 16 at Thu Dec 10 10:46:39 2020.
