 Gaussian 16, Revision A.03,

 -----------------------------------------------------------
 # opt freq B3LYP/6-31G(d) empiricaldispersion=gd3bj scf=xqc
 -----------------------------------------------------------

 ------------------------------
 CID_62768063_JID_9800_neutraal
 ------------------------------
 Symbolic Z-matrix:
 Charge =  0 Multiplicity = 1

 SCF Done:  E(RB3LYP) =  -1505.57399228     A.U. after   15 cycles
 SCF Done:  E(RB3LYP) =  -1505.58201887     A.U. after   12 cycles
 SCF Done:  E(RB3LYP) =  -1505.58320217     A.U. after   12 cycles
 SCF Done:  E(RB3LYP) =  -1505.58359532     A.U. after   12 cycles
 SCF Done:  E(RB3LYP) =  -1505.58389414     A.U. after   11 cycles
 SCF Done:  E(RB3LYP) =  -1505.58432575     A.U. after   12 cycles
 SCF Done:  E(RB3LYP) =  -1505.58471805     A.U. after   14 cycles
 SCF Done:  E(RB3LYP) =  -1505.58513656     A.U. after   11 cycles
 SCF Done:  E(RB3LYP) =  -1505.58527619     A.U. after   11 cycles
 SCF Done:  E(RB3LYP) =  -1505.58550221     A.U. after   12 cycles
 SCF Done:  E(RB3LYP) =  -1505.58723164     A.U. after    9 cycles
 SCF Done:  E(RB3LYP) =  -1505.58723170     A.U. after    9 cycles
 SCF Done:  E(RB3LYP) =  -1505.58723243     A.U. after    9 cycles
 SCF Done:  E(RB3LYP) =  -1505.58723252     A.U. after    7 cycles
 SCF Done:  E(RB3LYP) =  -1505.58723256     A.U. after    7 cycles
 Optimization completed.
    -- Stationary point found.
 Normal termination of Gaussian 16 at Sun Dec 13 20:38:47 2020.

 --------------------------------------------------------------------
 #N Geom=AllCheck Guess=TCheck SCRF=Check GenChk RB3LYP/6-31G(d) Freq
 --------------------------------------------------------------------

 Structure from the checkpoint file:  "JID_9800.chk"
 ------------------------------
 CID_62768063_JID_9800_neutraal
 ------------------------------
 Charge =  0 Multiplicity = 1

 SCF Done:  E(RB3LYP) =  -1505.58723256     A.U. after    1 cycles

  Exact polarizability: 217.330 -16.380 205.610  -6.032   6.396 158.407
 Approx polarizability: 302.532 -32.528 330.073 -11.498  18.880 264.593

                      1                      2                      3
                      A                      A                      A
 Frequencies --     20.9057                25.1313                39.5903
 Red. masses --      5.3089                 5.1390                 2.9026
 Frc consts  --      0.0014                 0.0019                 0.0027
 IR Inten    --      0.0945                 0.0681                 0.8900

                      4                      5                      6
                      A                      A                      A
 Frequencies --     44.8522                62.6538                67.7438
 Red. masses --      4.2007                 3.9398                 3.2942
 Frc consts  --      0.0050                 0.0091                 0.0089
 IR Inten    --      0.1269                 0.3057                 2.6229

                      7                      8                      9
                      A                      A                      A
 Frequencies --     88.7700               106.1704               119.6210
 Red. masses --      4.1376                 3.5214                 3.9026
 Frc consts  --      0.0192                 0.0234                 0.0329
 IR Inten    --      0.2992                 4.1742                 1.1232

                     10                     11                     12
                      A                      A                      A
 Frequencies --    136.4539               166.8543               194.5831
 Red. masses --      3.0142                 4.1953                 3.9682
 Frc consts  --      0.0331                 0.0688                 0.0885
 IR Inten    --      0.5176                 0.5778                 2.7396

                     13                     14                     15
                      A                      A                      A
 Frequencies --    209.3755               232.2793               254.7224
 Red. masses --      1.4489                 3.4533                 2.5855
 Frc consts  --      0.0374                 0.1098                 0.0988
 IR Inten    --      0.7157                 5.1861                15.0440

                     16                     17                     18
                      A                      A                      A
 Frequencies --    281.8010               291.7816               328.2812
 Red. masses --      2.3019                 2.6755                 1.8939
 Frc consts  --      0.1077                 0.1342                 0.1203
 IR Inten    --      6.8135                 5.1236                36.6533

                     19                     20                     21
                      A                      A                      A
 Frequencies --    344.7321               367.7683               403.7296
 Red. masses --      2.2718                 4.2842                 2.3506
 Frc consts  --      0.1591                 0.3414                 0.2257
 IR Inten    --     14.3340                 0.5348                 0.1375

                     22                     23                     24
                      A                      A                      A
 Frequencies --    412.9702               460.8706               483.3323
 Red. masses --      4.6759                 4.5774                 4.0113
 Frc consts  --      0.4698                 0.5728                 0.5521
 IR Inten    --      6.2338                 1.0625                 3.3261

                     25                     26                     27
                      A                      A                      A
 Frequencies --    502.9230               542.6005               571.0684
 Red. masses --      3.9774                 4.7605                 5.3113
 Frc consts  --      0.5927                 0.8258                 1.0205
 IR Inten    --      4.8029                 7.9303                 5.0833

                     28                     29                     30
                      A                      A                      A
 Frequencies --    590.8044               628.3433               650.1633
 Red. masses --      3.7865                 6.7163                 4.4273
 Frc consts  --      0.7787                 1.5623                 1.1026
 IR Inten    --      3.3535                 8.2631                 7.8963

                     31                     32                     33
                      A                      A                      A
 Frequencies --    666.2255               686.8474               697.2962
 Red. masses --      4.2797                 1.2689                 6.9244
 Frc consts  --      1.1192                 0.3527                 1.9836
 IR Inten    --      1.8038                 7.1096                 5.6293

                     34                     35                     36
                      A                      A                      A
 Frequencies --    714.5236               742.3024               769.7996
 Red. masses --      3.2277                 2.9377                 1.3014
 Frc consts  --      0.9709                 0.9537                 0.4544
 IR Inten    --     13.8741                65.5689                 4.6821

                     37                     38                     39
                      A                      A                      A
 Frequencies --    801.9018               813.0389               825.8639
 Red. masses --      1.3934                 1.5828                 2.0429
 Frc consts  --      0.5279                 0.6165                 0.8209
 IR Inten    --     20.7739                11.4458                11.3008

                     40                     41                     42
                      A                      A                      A
 Frequencies --    838.2688               845.9978               866.4287
 Red. masses --      4.2408                 1.3306                 4.0472
 Frc consts  --      1.7558                 0.5611                 1.7901
 IR Inten    --     16.8295                 9.5485                10.3872

                     43                     44                     45
                      A                      A                      A
 Frequencies --    871.4151               891.7816               896.8212
 Red. masses --      1.3383                 2.2817                 1.4147
 Frc consts  --      0.5988                 1.0691                 0.6704
 IR Inten    --     84.8374                39.3332                 5.4223

                     46                     47                     48
                      A                      A                      A
 Frequencies --    949.6302               960.9956               973.3172
 Red. masses --      2.7259                 3.4302                 2.6105
 Frc consts  --      1.4484                 1.8665                 1.4571
 IR Inten    --      5.4689                11.1551                 0.5177

                     49                     50                     51
                      A                      A                      A
 Frequencies --    987.7065              1024.9416              1051.8830
 Red. masses --      1.9545                 2.3214                 2.9512
 Frc consts  --      1.1234                 1.4368                 1.9239
 IR Inten    --      2.8572                13.7689                 4.7413

                     52                     53                     54
                      A                      A                      A
 Frequencies --   1054.2218              1069.3813              1083.3779
 Red. masses --      2.1551                 1.4048                 1.3786
 Frc consts  --      1.4112                 0.9465                 0.9533
 IR Inten    --     21.0344                12.1239                 0.8205

                     55                     56                     57
                      A                      A                      A
 Frequencies --   1090.8410              1113.9698              1120.1299
 Red. masses --      2.0410                 1.6539                 1.1142
 Frc consts  --      1.4309                 1.2092                 0.8236
 IR Inten    --     20.3561                 3.2345                 4.8403

                     58                     59                     60
                      A                      A                      A
 Frequencies --   1125.6605              1140.6746              1181.2540
 Red. masses --      1.8207                 1.3300                 1.5624
 Frc consts  --      1.3592                 1.0196                 1.2844
 IR Inten    --     14.5690                 1.0378                 3.2523

                     61                     62                     63
                      A                      A                      A
 Frequencies --   1194.7958              1204.3175              1214.4469
 Red. masses --      1.6014                 1.3644                 2.0391
 Frc consts  --      1.3469                 1.1660                 1.7719
 IR Inten    --      9.4341                 0.5874                 1.0888

                     64                     65                     66
                      A                      A                      A
 Frequencies --   1221.2646              1228.7632              1261.4561
 Red. masses --      1.7386                 2.9038                 2.2842
 Frc consts  --      1.5278                 2.5832                 2.1415
 IR Inten    --     79.3535                15.5020                34.2437

                     67                     68                     69
                      A                      A                      A
 Frequencies --   1281.6045              1302.3221              1323.0361
 Red. masses --      1.4867                 1.3374                 1.2130
 Frc consts  --      1.4388                 1.3365                 1.2510
 IR Inten    --     36.0185                 2.2058                 3.5573

                     70                     71                     72
                      A                      A                      A
 Frequencies --   1352.4479              1379.5093              1385.3596
 Red. masses --      2.4648                 1.9419                 1.5109
 Frc consts  --      2.6562                 2.1773                 1.7085
 IR Inten    --     33.6099                11.0867                22.2265

                     73                     74                     75
                      A                      A                      A
 Frequencies --   1403.2966              1415.7235              1430.7289
 Red. masses --      1.9240                 1.6621                 1.2391
 Frc consts  --      2.2323                 1.9628                 1.4944
 IR Inten    --     38.2697               111.9083                 2.8039

                     76                     77                     78
                      A                      A                      A
 Frequencies --   1436.9381              1437.8767              1477.0713
 Red. masses --      1.7963                 1.9399                 5.7985
 Frc consts  --      2.1853                 2.3631                 7.4537
 IR Inten    --     28.9973                 1.8893                15.5577

                     79                     80                     81
                      A                      A                      A
 Frequencies --   1485.8590              1510.4344              1514.5919
 Red. masses --      1.0962                 1.0803                 1.1028
 Frc consts  --      1.4259                 1.4521                 1.4905
 IR Inten    --      1.8713                 3.6975                 6.3626

                     82                     83                     84
                      A                      A                      A
 Frequencies --   1523.6732              1528.0554              1533.9708
 Red. masses --      1.0465                 1.4263                 1.0814
 Frc consts  --      1.4314                 1.9621                 1.4992
 IR Inten    --      5.2160                36.2862                 1.5517

                     85                     86                     87
                      A                      A                      A
 Frequencies --   1540.0930              1580.9135              1599.9467
 Red. masses --      1.0682                 6.9118                 5.6821
 Frc consts  --      1.4927                10.1780                 8.5697
 IR Inten    --      8.5031               371.7427                 7.8972

                     88                     89                     90
                      A                      A                      A
 Frequencies --   1631.6549              1687.9434              2985.3092
 Red. masses --      7.8947                 1.0973                 1.0681
 Frc consts  --     12.3835                 1.8420                 5.6083
 IR Inten    --     28.1216                30.1711                66.4967

                     91                     92                     93
                      A                      A                      A
 Frequencies --   3035.7855              3046.1542              3052.2015
 Red. masses --      1.0922                 1.0666                 1.0360
 Frc consts  --      5.9305                 5.8313                 5.6864
 IR Inten    --     50.7098                28.4144                34.0666

                     94                     95                     96
                      A                      A                      A
 Frequencies --   3082.0676              3096.5044              3116.9421
 Red. masses --      1.0597                 1.0951                 1.1033
 Frc consts  --      5.9308                 6.1868                 6.3153
 IR Inten    --     22.9631                21.3390                43.9811

                     97                     98                     99
                      A                      A                      A
 Frequencies --   3124.7558              3132.0548              3141.0648
 Red. masses --      1.1055                 1.0868                 1.1016
 Frc consts  --      6.3598                 6.2815                 6.4038
 IR Inten    --     14.4364                19.2389                30.4611

                    100                    101                    102
                      A                      A                      A
 Frequencies --   3150.6057              3167.3103              3220.4879
 Red. masses --      1.0542                 1.0571                 1.0908
 Frc consts  --      6.1653                 6.2482                 6.6657
 IR Inten    --     15.6240                 8.3283                 4.5399

                    103                    104                    105
                      A                      A                      A
 Frequencies --   3229.8739              3253.3359              3272.5079
 Red. masses --      1.1191                 1.1172                 1.0964
 Frc consts  --      6.8782                 6.9672                 6.9180
 IR Inten    --      5.4886                12.4716                 0.8612

                    106                    107                    108
                      A                      A                      A
 Frequencies --   3277.8960              3465.0145              3556.2329
 Red. masses --      1.0945                 1.0493                 1.0934
 Frc consts  --      6.9288                 7.4227                 8.1469
 IR Inten    --      1.3551                 3.4687                 1.2183

 - Thermochemistry -
 -------------------
 Temperature   298.150 Kelvin.  Pressure   1.00000 Atm.
 Atom     1 has atomic number  6 and mass  12.00000

 Molecular mass:   293.10204 amu.
 Principal axes and moments of inertia in atomic units:
                           1         2         3
     Eigenvalues --  4782.078687833.46178**********
           X            0.99888  -0.04352   0.01845
           Y            0.04323   0.99894   0.01560
           Z           -0.01911  -0.01479   0.99971
 This molecule is an asymmetric top.
 Rotational symmetry number  1.
 Warning -- assumption of classical behavior for rotation
           may cause significant error
 Rotational temperatures (Kelvin)      0.01811     0.01106     0.00863
 Rotational constants (GHZ):           0.37740     0.23039     0.17983
 Zero-point vibrational energy     825313.1 (Joules/Mol)
                                  197.25456 (Kcal/Mol)
 Warning -- explicit consideration of  28 degrees of freedom as
           vibrations may cause significant error
 Vibrational temperatures:     30.08    36.16    56.96    64.53    90.14
          (Kelvin)             97.47   127.72   152.76   172.11   196.33
                              240.07   279.96   301.24   334.20   366.49
                              405.45   419.81   472.32   495.99   529.14
                              580.88   594.17   663.09   695.41   723.59
                              780.68   821.64   850.04   904.05   935.44
                              958.55   988.22  1003.25  1028.04  1068.01
                             1107.57  1153.76  1169.78  1188.23  1206.08
                             1217.20  1246.60  1253.77  1283.07  1290.33
                             1366.31  1382.66  1400.39  1421.09  1474.66
                             1513.43  1516.79  1538.60  1558.74  1569.48
                             1602.75  1611.62  1619.57  1641.18  1699.56
                             1719.04  1732.74  1747.32  1757.13  1767.92
                             1814.95  1843.94  1873.75  1903.55  1945.87
                             1984.81  1993.22  2019.03  2036.91  2058.50
                             2067.43  2068.78  2125.18  2137.82  2173.18
                             2179.16  2192.23  2198.53  2207.04  2215.85
                             2274.58  2301.97  2347.59  2428.57  4295.19
                             4367.82  4382.74  4391.44  4434.41  4455.18
                             4484.58  4495.83  4506.33  4519.29  4533.02
                             4557.05  4633.56  4647.07  4680.82  4708.41
                             4716.16  4985.38  5116.63

 Zero-point correction=                           0.314345 (Hartree/Particle)
 Thermal correction to Energy=                    0.333862
 Thermal correction to Enthalpy=                  0.334806
 Thermal correction to Gibbs Free Energy=         0.263580
 Sum of electronic and zero-point Energies=          -1505.272887
 Sum of electronic and thermal Energies=             -1505.253370
 Sum of electronic and thermal Enthalpies=           -1505.252426
 Sum of electronic and thermal Free Energies=        -1505.323652

                     E (Thermal)             CV                S
                      KCal/Mol        Cal/Mol-Kelvin    Cal/Mol-Kelvin
 Total                  209.502             72.790            149.908
 Electronic               0.000              0.000              0.000
 Translational            0.889              2.981             42.923
 Rotational               0.889              2.981             34.285
 Vibrational            207.724             66.828             72.700
 Vibration     1          0.593              1.986              6.546
 Vibration     2          0.593              1.985              6.181
 Vibration     3          0.594              1.981              5.279
 Vibration     4          0.595              1.979              5.032
 Vibration     5          0.597              1.972              4.372
 Vibration     6          0.598              1.970              4.218
 Vibration     7          0.602              1.957              3.687
 Vibration     8          0.605              1.944              3.338
 Vibration     9          0.609              1.933              3.106
 Vibration    10          0.614              1.917              2.853
 Vibration    11          0.624              1.883              2.471
 Vibration    12          0.635              1.847              2.184
 Vibration    13          0.642              1.826              2.049
 Vibration    14          0.653              1.792              1.861
 Vibration    15          0.665              1.755              1.698
 Vibration    16          0.681              1.707              1.523
 Vibration    17          0.687              1.689              1.464
 Vibration    18          0.712              1.619              1.269
 Vibration    19          0.723              1.586              1.190
 Vibration    20          0.740              1.539              1.089
 Vibration    21          0.769              1.462              0.949
 Vibration    22          0.777              1.442              0.916
 Vibration    23          0.819              1.337              0.764
 Vibration    24          0.840              1.287              0.701
 Vibration    25          0.858              1.244              0.651
 Vibration    26          0.898              1.156              0.560
 Vibration    27          0.927              1.094              0.502
 Vibration    28          0.948              1.051              0.466

 Optimization completed.
    -- Stationary point found.
 Normal termination of Gaussian 16 at Sun Dec 13 20:57:43 2020.

 ----------------------------------------------------------------------
 # B3LYP/6-311++G(d,p) empiricaldispersion=gd3bj scf=xqc pop=npa geom=c
 heck
 ----------------------------------------------------------------------

 --------------------------------------
 CID_62768063_JID_9800_Energie_neutraal
 --------------------------------------
 Structure from the checkpoint file:  "JID_9800.chk"
 Charge =  0 Multiplicity = 1

 SCF Done:  E(RB3LYP) =  -1505.83469692     A.U. after   16 cycles
 Normal termination of Gaussian 16 at Sun Dec 13 21:07:37 2020.

 ----------------------------------------------------------------------
 # B3LYP/6-311++G(d,p) empiricaldispersion=gd3bj scf=xqc pop=npa geom=c
 heck
 ----------------------------------------------------------------------

 ------------------------------------
 CID_62768063_JID_9800_Energie_kation
 ------------------------------------
 Structure from the checkpoint file:  "JID_9800.chk"
 Charge =  1 Multiplicity = 2

 SCF Done:  E(UB3LYP) =  -1505.57668355     A.U. after   24 cycles
 Normal termination of Gaussian 16 at Sun Dec 13 21:28:21 2020.
 Gaussian 16:  ES64L-G16RevA.03 25-Dec-2016

 ----------------------------------------------------------------------
 # B3LYP/6-311++G(d,p) empiricaldispersion=gd3bj scf=xqc pop=npa geom=c
 heck
 ----------------------------------------------------------------------

 -----------------------------------
 CID_62768063_JID_9800_Energie_anion
 -----------------------------------
 Structure from the checkpoint file:  "JID_9800.chk"
 Charge = -1 Multiplicity = 2

                         Standard orientation:
 ---------------------------------------------------------------------
 Center     Atomic      Atomic             Coordinates (Angstroms)
 Number     Number       Type             X           Y           Z
 ---------------------------------------------------------------------
      1          6           0        3.012666    0.893593    2.819747
      2          6           0        3.532892    0.990539    1.377743
      3          6           0        2.511738    0.521966    0.377715
      4          6           0        2.619717   -0.544586   -0.468960
      5         16           0        1.134621   -0.708208   -1.408711
      6          6           0        0.506912    0.718362   -0.564039
      7          7           0        1.316455    1.223359    0.325333
      8          7           0       -0.723834    1.256198   -0.875023
      9          6           0       -1.752824    0.386681   -1.463200
     10          6           0       -2.422404   -0.525243   -0.464703
     11          6           0       -2.082586   -1.837454   -0.260997
     12         16           0       -3.006844   -2.560285    1.016407
     13          6           0       -3.870835   -1.077928    1.286129
     14          6           0       -3.457692   -0.095515    0.431952
     15          6           0       -1.188007    2.312604   -0.012228
     16          6           0       -0.593778    3.677657   -0.180945
     17          6           0       -2.007290    3.413622   -0.638134
     18          6           0        3.735032   -1.516776   -0.689300
     19          7           0        3.214965   -2.889818   -0.758489
     20          1           0        2.080484    1.456697    2.920909
     21          1           0        3.744405    1.294944    3.529785
     22          1           0        2.807525   -0.148515    3.089801
     23          1           0        3.782146    2.036302    1.154778
     24          1           0        4.459355    0.417219    1.270435
     25          1           0       -2.493316    1.044366   -1.926321
     26          1           0       -1.293928   -0.192772   -2.269339
     27          1           0       -1.329727   -2.413365   -0.780502
     28          1           0       -4.634107   -1.025558    2.050319
     29          1           0       -3.871271    0.907139    0.425532
     30          1           0       -1.441748    2.005239    1.002083
     31          1           0       -0.427692    4.266726    0.715409
     32          1           0        0.169860    3.783964   -0.943595
     33          1           0       -2.183721    3.363791   -1.708687
     34          1           0       -2.833771    3.820939   -0.062735
     35          1           0        4.233723   -1.317508   -1.648247
     36          1           0        4.492235   -1.356180    0.095771
     37          1           0        3.979601   -3.542042   -0.924760
     38          1           0        2.801177   -3.138786    0.138809
 ---------------------------------------------------------------------

 SCF Done:  E(UB3LYP) =  -1505.82294641     A.U. after   33 cycles
 SCF Done:  E(UB3LYP) =  -1505.82294641     a.u. after    1 cycles

 The electronic state is 2-A.
 Alpha  occ. eigenvalues --  -88.79264 -88.77243 -14.25419 -14.19775 -14.19763
 Alpha  occ. eigenvalues --  -10.16431 -10.13098 -10.12152 -10.11410 -10.11207
 Alpha  occ. eigenvalues --  -10.10809 -10.10379 -10.09887 -10.09572 -10.09145
 Alpha  occ. eigenvalues --  -10.08953 -10.08575 -10.08199 -10.06922  -7.87875
 Alpha  occ. eigenvalues --   -7.85879  -5.84155  -5.83789  -5.83494  -5.82181
 Alpha  occ. eigenvalues --   -5.81828  -5.81420  -0.89546  -0.83824  -0.79765
 Alpha  occ. eigenvalues --   -0.79015  -0.76308  -0.69954  -0.69244  -0.67384
 Alpha  occ. eigenvalues --   -0.64507  -0.62580  -0.60042  -0.56702  -0.54473
 Alpha  occ. eigenvalues --   -0.51924  -0.50673  -0.48664  -0.47367  -0.45598
 Alpha  occ. eigenvalues --   -0.45113  -0.42365  -0.41747  -0.40963  -0.39130
 Alpha  occ. eigenvalues --   -0.38385  -0.35733  -0.35275  -0.34882  -0.34160
 Alpha  occ. eigenvalues --   -0.33207  -0.32215  -0.31812  -0.31047  -0.30693
 Alpha  occ. eigenvalues --   -0.29417  -0.29052  -0.28955  -0.28534  -0.28187
 Alpha  occ. eigenvalues --   -0.27290  -0.26329  -0.25724  -0.24068  -0.23045
 Alpha  occ. eigenvalues --   -0.21485  -0.19276  -0.17554  -0.17269  -0.16919
 Alpha  occ. eigenvalues --   -0.15478  -0.14858  -0.10795   0.03970
 Alpha virt. eigenvalues --    0.05211   0.06040   0.06442   0.06872   0.07475
 Alpha virt. eigenvalues --    0.07738   0.08076   0.08677   0.08922   0.09512
 Alpha virt. eigenvalues --    0.09961   0.10122   0.10347   0.10614   0.10881

  Beta  occ. eigenvalues --  -88.79261 -88.77237 -14.25418 -14.19768 -14.19722
  Beta  occ. eigenvalues --  -10.16393 -10.13089 -10.12149 -10.11386 -10.11190
  Beta  occ. eigenvalues --  -10.10780 -10.10363 -10.09887 -10.09573 -10.09131
  Beta  occ. eigenvalues --  -10.08928 -10.08568 -10.08192 -10.06914  -7.87872
  Beta  occ. eigenvalues --   -7.85872  -5.84153  -5.83786  -5.83484  -5.82178
  Beta  occ. eigenvalues --   -5.81823  -5.81408  -0.89518  -0.83806  -0.79741
  Beta  occ. eigenvalues --   -0.78929  -0.76291  -0.69925  -0.69215  -0.67364
  Beta  occ. eigenvalues --   -0.64469  -0.62536  -0.59998  -0.56635  -0.54444
  Beta  occ. eigenvalues --   -0.51874  -0.50644  -0.48617  -0.47334  -0.45568
  Beta  occ. eigenvalues --   -0.45086  -0.42325  -0.41707  -0.40929  -0.39081
  Beta  occ. eigenvalues --   -0.38352  -0.35703  -0.35246  -0.34803  -0.34128
  Beta  occ. eigenvalues --   -0.33183  -0.32188  -0.31772  -0.31021  -0.30652
  Beta  occ. eigenvalues --   -0.29373  -0.29006  -0.28921  -0.28500  -0.28162
  Beta  occ. eigenvalues --   -0.27252  -0.26304  -0.25708  -0.24050  -0.23023
  Beta  occ. eigenvalues --   -0.21467  -0.19229  -0.17514  -0.17258  -0.16875
  Beta  occ. eigenvalues --   -0.15401  -0.14804  -0.10741
  Beta virt. eigenvalues --    0.06043   0.06159   0.06503   0.06767   0.07082
  Beta virt. eigenvalues --    0.07633   0.08009   0.08508   0.08822   0.08952
  Beta virt. eigenvalues --    0.09747   0.10265   0.10338   0.10377   0.10708

 Mulliken charges and spin densities:
               1          2
     1  C   -0.087462  -0.430065
     2  C   -0.154422  -0.439415
     3  C   -0.292210   0.519649
     4  C   -0.467237   0.840999
     5  S    0.005435  -0.286394
     6  C   -0.581347   0.406169
     7  N    0.177251  -0.012964
     8  N    0.564454  -0.011485
     9  C   -0.215247  -0.946083
    10  C    0.567245  -0.301331
    11  C   -0.714273   1.240907
    12  S    0.065467  -0.469210
    13  C    0.319625  -0.655019
    14  C    0.187801  -0.109976
    15  C   -1.131246   0.721588
    16  C   -0.230107   0.075997
    17  C    0.766592  -1.151203
    18  C    1.671714  -2.488066
    19  N   -0.499505   0.126971
    20  H    0.063895   0.084367
    21  H    0.079207   0.046152
    22  H    0.034713   0.094812
    23  H    0.118760   0.029748
    24  H    0.070189   0.067478
    25  H   -0.077115   0.262035
    26  H    0.091030   0.062128
    27  H    0.164561   0.127660
    28  H   -0.403172   0.671349
    29  H   -0.472260   0.672963
    30  H    0.190160   0.044768
    31  H    0.078628   0.069352
    32  H    0.095697   0.076120
    33  H    0.106086   0.035102
    34  H   -0.286719   0.443854
    35  H   -0.179994   0.353463
    36  H   -0.403097   0.540787
    37  H   -0.242763   0.491891
    38  H    0.019671   0.194902
 Sum of Mulliken charges =  -1.00000   1.00000

 Dipole moment (field-independent basis, Debye):
    X=             -1.6209    Y=              2.2112    Z=             -0.8805  Tot=              2.8796
 Quadrupole moment (field-independent basis, Debye-Ang):
   XX=           -223.1982   YY=           -187.1775   ZZ=           -161.0390
   XY=             30.5117   XZ=             10.7257   YZ=             -5.5287

 Summary of Natural Population Analysis:

                                       Natural Population
                Natural  -----------------------------------------------
    Atom  No    Charge         Core      Valence    Rydberg      Total
 -----------------------------------------------------------------------
      C    1   -0.28121      0.99966     2.27747    0.00407     3.28121
      C    2   -0.19711      0.99960     2.18988    0.00763     3.19711
      C    3    0.07021      0.99941     1.91446    0.01591     2.92979
      C    4   -0.11727      0.99941     2.10521    0.01265     3.11727
      S    5    0.17018      4.99942     2.81291    0.01749     7.82982
      C    6    0.15883      0.99957     1.82370    0.01790     2.84117
      N    7   -0.28004      0.99962     2.77024    0.01017     3.78004
      N    8   -0.25963      0.99961     2.74657    0.01345     3.75963
      C    9   -0.08738      0.99956     2.07656    0.01127     3.08738
      C   10   -0.05900      0.99947     2.04807    0.01146     3.05900
      C   11   -0.18248      0.99946     2.17344    0.00958     3.18248
      S   12    0.20123      4.99946     2.77804    0.02127     7.79877
      C   13   -0.18963      0.99954     2.17804    0.01204     3.18963
      C   14   -0.12383      0.99949     2.11307    0.01127     3.12383
      C   15   -0.01697      0.99956     2.00356    0.01385     3.01697
      C   16   -0.18826      0.99961     2.17919    0.00946     3.18826
      C   17   -0.20362      0.99962     2.19479    0.00921     3.20362
      C   18   -0.10105      0.99957     2.08818    0.01330     3.10105
      N   19   -0.42045      0.99978     2.90967    0.01101     3.92045
      H   20    0.10442      0.00000     0.39423    0.00135     0.39558
      H   21    0.09274      0.00000     0.40642    0.00084     0.40726
      H   22    0.09752      0.00000     0.40127    0.00122     0.40248
      H   23    0.10053      0.00000     0.39821    0.00126     0.39947
      H   24    0.09936      0.00000     0.39902    0.00161     0.40064
      H   25    0.10547      0.00000     0.39334    0.00119     0.39453
      H   26    0.10490      0.00000     0.39378    0.00132     0.39510
      H   27    0.11659      0.00000     0.38221    0.00120     0.38341
      H   28    0.11168      0.00000     0.38714    0.00118     0.38832
      H   29    0.11238      0.00000     0.38588    0.00173     0.38762
      H   30    0.10288      0.00000     0.39488    0.00224     0.39712
      H   31    0.10351      0.00000     0.39567    0.00082     0.39649
      H   32    0.10705      0.00000     0.39191    0.00104     0.39295
      H   33    0.10311      0.00000     0.39579    0.00110     0.39689
      H   34    0.10623      0.00000     0.39222    0.00156     0.39377
      H   35    0.09517      0.00000     0.40338    0.00145     0.40483
      H   36    0.09029      0.00000     0.40716    0.00256     0.40971
      H   37    0.17906      0.00000     0.31588    0.00507     0.32094
      H   38    0.17458      0.00000     0.32292    0.00250     0.32542
 =======================================================================
   * Total *    0.00000     26.99141    50.74435    0.26424    78.00000

 Normal termination of Gaussian 16 at Sun Dec 13 21:55:59 2020.
