 Gaussian 16, Revision A.03,

 -----------------------------------------------------------
 # opt freq B3LYP/6-31G(d) empiricaldispersion=gd3bj scf=xqc
 -----------------------------------------------------------

 ------------------------------
 CID_54595777_JID_6759_neutraal
 ------------------------------
 Symbolic Z-matrix:
 Charge =  0 Multiplicity = 1

 SCF Done:  E(RB3LYP) =  -1176.00379418     A.U. after   15 cycles
 SCF Done:  E(RB3LYP) =  -1175.99026423     A.U. after   15 cycles
 SCF Done:  E(RB3LYP) =  -1176.00506958     A.U. after   12 cycles
 SCF Done:  E(RB3LYP) =  -1176.00630452     A.U. after   10 cycles
 SCF Done:  E(RB3LYP) =  -1176.00873337     A.U. after   12 cycles
 SCF Done:  E(RB3LYP) =  -1176.00937584     A.U. after   12 cycles
 SCF Done:  E(RB3LYP) =  -1176.00156148     A.U. after   12 cycles
 SCF Done:  E(RB3LYP) =  -1176.01007897     A.U. after   12 cycles
 SCF Done:  E(RB3LYP) =  -1176.01029083     A.U. after   11 cycles
 SCF Done:  E(RB3LYP) =  -1176.01039786     A.U. after   12 cycles
 SCF Done:  E(RB3LYP) =  -1176.01057571     A.U. after    8 cycles
 SCF Done:  E(RB3LYP) =  -1176.01057588     A.U. after    8 cycles
 SCF Done:  E(RB3LYP) =  -1176.01057600     A.U. after    8 cycles
 SCF Done:  E(RB3LYP) =  -1176.01057610     A.U. after    8 cycles
 SCF Done:  E(RB3LYP) =  -1176.01057616     A.U. after    8 cycles
 Optimization completed.
    -- Stationary point found.
 Normal termination of Gaussian 16 at Fri Dec 11 00:14:13 2020.

 --------------------------------------------------------------------
 #N Geom=AllCheck Guess=TCheck SCRF=Check GenChk RB3LYP/6-31G(d) Freq
 --------------------------------------------------------------------

 Structure from the checkpoint file:  "JID_6759.chk"
 ------------------------------
 CID_54595777_JID_6759_neutraal
 ------------------------------
 Charge =  0 Multiplicity = 1

 SCF Done:  E(RB3LYP) =  -1176.01057616     A.U. after    1 cycles

  Exact polarizability: 156.711  -3.378 126.948   5.165   1.946  93.125
 Approx polarizability: 214.561  -4.421 193.299   6.508   5.339 158.251

                      1                      2                      3
                      A                      A                      A
 Frequencies --     13.8433                30.8515                61.5564
 Red. masses --      6.9058                 4.3955                 6.2298
 Frc consts  --      0.0008                 0.0025                 0.0139
 IR Inten    --      1.3473                 1.3759                 2.1076

                      4                      5                      6
                      A                      A                      A
 Frequencies --     72.9439                81.8609                88.8378
 Red. masses --      5.4937                 5.3407                 5.8321
 Frc consts  --      0.0172                 0.0211                 0.0271
 IR Inten    --      2.8670                 0.4671                 0.6362

                      7                      8                      9
                      A                      A                      A
 Frequencies --    122.4103               150.0584               165.6597
 Red. masses --      8.1150                 4.3734                 4.1169
 Frc consts  --      0.0716                 0.0580                 0.0666
 IR Inten    --      1.6485                 4.2707                 0.9243

                     10                     11                     12
                      A                      A                      A
 Frequencies --    184.3375               242.6460               280.1069
 Red. masses --      8.2446                 3.5815                 4.8709
 Frc consts  --      0.1651                 0.1242                 0.2252
 IR Inten    --      3.1571                 0.3914                 1.6350

                     13                     14                     15
                      A                      A                      A
 Frequencies --    305.1374               323.8989               350.4575
 Red. masses --      3.3166                 3.0186                 2.9977
 Frc consts  --      0.1819                 0.1866                 0.2169
 IR Inten    --      1.2505                 1.8728                 3.1108

                     16                     17                     18
                      A                      A                      A
 Frequencies --    410.3445               425.3126               449.2945
 Red. masses --      2.8680                 3.6533                 3.2495
 Frc consts  --      0.2845                 0.3894                 0.3865
 IR Inten    --      7.0943                11.4033                10.0259

                     19                     20                     21
                      A                      A                      A
 Frequencies --    484.9236               528.6840               572.2523
 Red. masses --      7.7243                 4.2192                 3.4864
 Frc consts  --      1.0702                 0.6948                 0.6727
 IR Inten    --     28.6173                26.0184                41.6110

                     22                     23                     24
                      A                      A                      A
 Frequencies --    626.2215               635.9123               648.7120
 Red. masses --      2.5681                 1.6618                 3.2831
 Frc consts  --      0.5934                 0.3959                 0.8140
 IR Inten    --     78.6248                37.4662                16.0727

                     25                     26                     27
                      A                      A                      A
 Frequencies --    671.4531               682.4016               734.4784
 Red. masses --      2.3827                 3.2374                 2.3206
 Frc consts  --      0.6329                 0.8882                 0.7376
 IR Inten    --     58.0352                11.3309                25.4325

                     28                     29                     30
                      A                      A                      A
 Frequencies --    747.5176               777.2087               806.5268
 Red. masses --      2.6479                 1.6134                 2.2584
 Frc consts  --      0.8718                 0.5742                 0.8655
 IR Inten    --     52.6147                24.3073                12.5421

                     31                     32                     33
                      A                      A                      A
 Frequencies --    824.5323               870.6720               879.0035
 Red. masses --      1.1018                 2.3379                 1.3311
 Frc consts  --      0.4413                 1.0442                 0.6059
 IR Inten    --     99.5919                14.9469                14.1917

                     34                     35                     36
                      A                      A                      A
 Frequencies --    884.0128               896.1309               948.3251
 Red. masses --      2.4394                 2.5264                 5.5226
 Frc consts  --      1.1232                 1.1954                 2.9263
 IR Inten    --     64.6044                38.4536                24.8157

                     37                     38                     39
                      A                      A                      A
 Frequencies --    987.8363               995.5009              1035.8396
 Red. masses --      1.8002                 1.9149                 2.1067
 Frc consts  --      1.0350                 1.1181                 1.3318
 IR Inten    --     40.7598                14.1429                 8.2040

                     40                     41                     42
                      A                      A                      A
 Frequencies --   1048.6565              1062.4533              1069.4080
 Red. masses --      4.2654                 4.2869                 1.4371
 Frc consts  --      2.7636                 2.8511                 0.9683
 IR Inten    --     16.6285                49.4060                 1.9701

                     43                     44                     45
                      A                      A                      A
 Frequencies --   1098.1361              1117.9310              1147.6152
 Red. masses --      3.0280                 8.6058                 2.6336
 Frc consts  --      2.1514                 6.3368                 2.0436
 IR Inten    --     11.5044               184.6658                24.6481

                     46                     47                     48
                      A                      A                      A
 Frequencies --   1166.4818              1187.2895              1236.0376
 Red. masses --      1.4337                 1.1756                 1.2357
 Frc consts  --      1.1494                 0.9764                 1.1123
 IR Inten    --    110.2062                21.8451                26.6274

                     49                     50                     51
                      A                      A                      A
 Frequencies --   1255.0670              1258.2624              1297.5247
 Red. masses --      2.1318                 1.4380                 1.2769
 Frc consts  --      1.9785                 1.3414                 1.2666
 IR Inten    --      3.4215               110.1483                 1.6478

                     52                     53                     54
                      A                      A                      A
 Frequencies --   1317.7201              1339.2984              1349.9386
 Red. masses --      3.6274                 2.0534                 1.6751
 Frc consts  --      3.7110                 2.1701                 1.7985
 IR Inten    --    120.9551                22.3862                45.5295

                     55                     56                     57
                      A                      A                      A
 Frequencies --   1368.3571              1379.3031              1393.7610
 Red. masses --      1.5918                 1.8240                 1.5646
 Frc consts  --      1.7560                 2.0445                 1.7907
 IR Inten    --     32.3281                31.1190                 5.0077

                     58                     59                     60
                      A                      A                      A
 Frequencies --   1397.6781              1424.6023              1441.5461
 Red. masses --      1.8387                 1.7872                 1.3429
 Frc consts  --      2.1163                 2.1370                 1.6442
 IR Inten    --      4.7031                36.4165                68.2816

                     61                     62                     63
                      A                      A                      A
 Frequencies --   1480.1063              1484.6184              1499.5472
 Red. masses --      2.3918                 1.0998                 1.1088
 Frc consts  --      3.0872                 1.4282                 1.4690
 IR Inten    --     11.2041                10.3467                10.2347

                     64                     65                     66
                      A                      A                      A
 Frequencies --   1508.0427              1515.1008              1531.5732
 Red. masses --      3.1102                 1.0963                 1.1397
 Frc consts  --      4.1674                 1.4828                 1.5752
 IR Inten    --      6.7975                 5.3304                 4.3130

                     67                     68                     69
                      A                      A                      A
 Frequencies --   1632.0224              1815.1880              3071.7869
 Red. masses --      3.2362                 8.8513                 1.0579
 Frc consts  --      5.0786                17.1830                 5.8815
 IR Inten    --     20.7656               384.7468                13.4737

                     70                     71                     72
                      A                      A                      A
 Frequencies --   3078.9281              3083.0232              3085.9357
 Red. masses --      1.0647                 1.0628                 1.0634
 Frc consts  --      5.9469                 5.9518                 5.9665
 IR Inten    --      5.8739                14.6923                 5.8722

                     73                     74                     75
                      A                      A                      A
 Frequencies --   3115.1990              3126.8786              3138.3214
 Red. masses --      1.1076                 1.1026                 1.1050
 Frc consts  --      6.3329                 6.3518                 6.4123
 IR Inten    --     16.2425                 2.6607                 3.7697

                     76                     77                     78
                      A                      A                      A
 Frequencies --   3178.5236              3257.6812              3276.9079
 Red. masses --      1.0965                 1.0925                 1.1015
 Frc consts  --      6.5269                 6.8310                 6.9686
 IR Inten    --      0.7217                 8.7551                 4.0501

                     79                     80                     81
                      A                      A                      A
 Frequencies --   3516.5619              3535.8006              3678.7685
 Red. masses --      1.0754                 1.0855                 1.0641
 Frc consts  --      7.8351                 7.9960                 8.4846
 IR Inten    --     27.7703               533.9716                62.0746

 - Thermochemistry -
 -------------------
 Temperature   298.150 Kelvin.  Pressure   1.00000 Atm.
 Atom     1 has atomic number  6 and mass  12.00000

 Molecular mass:   247.06268 amu.
 Principal axes and moments of inertia in atomic units:
                           1         2         3
     Eigenvalues --  3202.510864814.519037184.35349
           X            0.99865  -0.05201  -0.00133
           Y            0.05202   0.99863   0.00527
           Z            0.00106  -0.00533   0.99999
 This molecule is an asymmetric top.
 Rotational symmetry number  1.
 Warning -- assumption of classical behavior for rotation
           may cause significant error
 Rotational temperatures (Kelvin)      0.02705     0.01799     0.01206
 Rotational constants (GHZ):           0.56354     0.37485     0.25120
 Zero-point vibrational energy     603906.5 (Joules/Mol)
                                  144.33712 (Kcal/Mol)
 Warning -- explicit consideration of  21 degrees of freedom as
           vibrations may cause significant error
 Vibrational temperatures:     19.92    44.39    88.57   104.95   117.78
          (Kelvin)            127.82   176.12   215.90   238.35   265.22
                              349.11   403.01   439.02   466.02   504.23
                              590.39   611.93   646.43   697.70   760.66
                              823.34   900.99   914.94   933.35   966.07
                              981.82  1056.75  1075.51  1118.23  1160.41
                             1186.32  1252.70  1264.69  1271.90  1289.33
                             1364.43  1421.28  1432.30  1490.34  1508.78
                             1528.63  1538.64  1579.97  1608.45  1651.16
                             1678.31  1708.24  1778.38  1805.76  1810.36
                             1866.85  1895.91  1926.95  1942.26  1968.76
                             1984.51  2005.31  2010.95  2049.68  2074.06
                             2129.54  2136.03  2157.51  2169.74  2179.89
                             2203.59  2348.12  2611.65  4419.62  4429.89
                             4435.78  4439.97  4482.08  4498.88  4515.34
                             4573.19  4687.08  4714.74  5059.55  5087.23
                             5292.93

 Zero-point correction=                           0.230016 (Hartree/Particle)
 Thermal correction to Energy=                    0.245704
 Thermal correction to Enthalpy=                  0.246648
 Thermal correction to Gibbs Free Energy=         0.184160
 Sum of electronic and zero-point Energies=          -1175.780560
 Sum of electronic and thermal Energies=             -1175.764872
 Sum of electronic and thermal Enthalpies=           -1175.763928
 Sum of electronic and thermal Free Energies=        -1175.826416

                     E (Thermal)             CV                S
                      KCal/Mol        Cal/Mol-Kelvin    Cal/Mol-Kelvin
 Total                  154.182             57.610            131.519
 Electronic               0.000              0.000              0.000
 Translational            0.889              2.981             42.414
 Rotational               0.889              2.981             33.071
 Vibrational            152.404             51.649             56.034
 Vibration     1          0.593              1.986              7.365
 Vibration     2          0.594              1.984              5.774
 Vibration     3          0.597              1.973              4.407
 Vibration     4          0.599              1.967              4.072
 Vibration     5          0.600              1.962              3.846
 Vibration     6          0.602              1.957              3.685
 Vibration     7          0.610              1.930              3.062
 Vibration     8          0.618              1.903              2.671
 Vibration     9          0.624              1.885              2.484
 Vibration    10          0.631              1.861              2.284
 Vibration    11          0.659              1.775              1.783
 Vibration    12          0.680              1.710              1.533
 Vibration    13          0.696              1.664              1.389
 Vibration    14          0.708              1.628              1.290
 Vibration    15          0.727              1.574              1.164
 Vibration    16          0.775              1.448              0.925
 Vibration    17          0.787              1.415              0.874
 Vibration    18          0.808              1.362              0.798
 Vibration    19          0.841              1.283              0.697
 Vibration    20          0.884              1.187              0.590
 Vibration    21          0.928              1.091              0.500

 Optimization completed.
    -- Stationary point found.
 Normal termination of Gaussian 16 at Fri Dec 11 00:23:53 2020.

 ----------------------------------------------------------------------
 # B3LYP/6-311++G(d,p) empiricaldispersion=gd3bj scf=xqc pop=npa geom=c
 heck
 ----------------------------------------------------------------------

 --------------------------------------
 CID_54595777_JID_6759_Energie_neutraal
 --------------------------------------
 Structure from the checkpoint file:  "JID_6759.chk"
 Charge =  0 Multiplicity = 1

 SCF Done:  E(RB3LYP) =  -1176.27625247     A.U. after   16 cycles
 Normal termination of Gaussian 16 at Fri Dec 11 00:27:54 2020.

 ----------------------------------------------------------------------
 # B3LYP/6-311++G(d,p) empiricaldispersion=gd3bj scf=xqc pop=npa geom=c
 heck
 ----------------------------------------------------------------------

 ------------------------------------
 CID_54595777_JID_6759_Energie_kation
 ------------------------------------
 Structure from the checkpoint file:  "JID_6759.chk"
 Charge =  1 Multiplicity = 2

 SCF Done:  E(UB3LYP) =  -1175.94771805     A.U. after   32 cycles
 Normal termination of Gaussian 16 at Fri Dec 11 00:38:40 2020.
 Gaussian 16:  ES64L-G16RevA.03 25-Dec-2016

 ----------------------------------------------------------------------
 # B3LYP/6-311++G(d,p) empiricaldispersion=gd3bj scf=xqc pop=npa geom=c
 heck
 ----------------------------------------------------------------------

 -----------------------------------
 CID_54595777_JID_6759_Energie_anion
 -----------------------------------
 Structure from the checkpoint file:  "JID_6759.chk"
 Charge = -1 Multiplicity = 2

                         Standard orientation:
 ---------------------------------------------------------------------
 Center     Atomic      Atomic             Coordinates (Angstroms)
 Number     Number       Type             X           Y           Z
 ---------------------------------------------------------------------
      1          6           0        3.545690   -1.121824   -0.012029
      2          6           0        2.330995   -0.530485   -0.322160
      3          7           0        2.471527    0.790308   -0.029039
      4          7           0        3.693795    1.103540    0.441617
      5          6           0        4.350889   -0.058774    0.454284
      6          6           0        1.041766   -1.101157   -0.808579
      7          7           0        0.077227   -1.144410    0.316156
      8         16           0       -1.478429   -1.724742   -0.014136
      9          8           0       -1.473516   -2.569577   -1.213614
     10          8           0       -1.985878   -2.221028    1.270078
     11          6           0       -2.381530   -0.213708   -0.451276
     12          6           0       -2.601507    0.760790    0.707913
     13          6           0       -1.380848    1.631377    1.066922
     14          6           0       -0.939285    2.482578   -0.096491
     15          8           0        0.131021    2.416017   -0.675124
     16          8           0       -1.894209    3.351671   -0.486647
     17          1           0        3.805913   -2.165359   -0.117480
     18          1           0        1.761951    1.508767   -0.153762
     19          1           0        5.377628   -0.089182    0.793959
     20          1           0        0.607311   -0.464174   -1.585793
     21          1           0        1.202698   -2.092184   -1.244567
     22          1           0        0.435133   -1.659709    1.119931
     23          1           0       -1.850276    0.231934   -1.298591
     24          1           0       -3.334747   -0.598641   -0.826033
     25          1           0       -3.436458    1.415090    0.437252
     26          1           0       -2.907481    0.193524    1.591881
     27          1           0       -1.656315    2.297126    1.892443
     28          1           0       -0.536019    1.013814    1.369722
     29          1           0       -1.528677    3.849349   -1.242972
 ---------------------------------------------------------------------

 SCF Done:  E(UB3LYP) =  -1176.27362836     A.U. after   33 cycles
 SCF Done:  E(UB3LYP) =  -1176.27362836     a.u. after    1 cycles

 The electronic state is 2-A.
 Alpha  occ. eigenvalues --  -88.97516 -19.06924 -19.03341 -19.03306 -19.02415
 Alpha  occ. eigenvalues --  -14.29085 -14.26347 -14.24670 -10.21033 -10.14613
 Alpha  occ. eigenvalues --  -10.13252 -10.12330 -10.10792 -10.09664 -10.08975
 Alpha  occ. eigenvalues --  -10.08818  -8.03773  -6.00072  -6.00016  -5.99813
 Alpha  occ. eigenvalues --   -1.03439  -1.01507  -0.96135  -0.92556  -0.92544
 Alpha  occ. eigenvalues --   -0.84927  -0.74107  -0.73157  -0.70651  -0.66555
 Alpha  occ. eigenvalues --   -0.62836  -0.57375  -0.52752  -0.52222  -0.51498
 Alpha  occ. eigenvalues --   -0.49917  -0.46233  -0.43738  -0.41712  -0.41022
 Alpha  occ. eigenvalues --   -0.40318  -0.38982  -0.38329  -0.37418  -0.36510
 Alpha  occ. eigenvalues --   -0.35908  -0.34969  -0.34642  -0.34490  -0.33831
 Alpha  occ. eigenvalues --   -0.31247  -0.31151  -0.28510  -0.28306  -0.27530
 Alpha  occ. eigenvalues --   -0.26634  -0.24003  -0.23412  -0.22968  -0.21904
 Alpha  occ. eigenvalues --   -0.21171  -0.19770  -0.19372  -0.17863  -0.16871
 Alpha  occ. eigenvalues --    0.03945
 Alpha virt. eigenvalues --    0.06051   0.06957   0.07379   0.08037   0.08268
 Alpha virt. eigenvalues --    0.08736   0.09151   0.09448   0.10987   0.11422
 Alpha virt. eigenvalues --    0.11447   0.11910   0.12184   0.13303   0.13529

  Beta  occ. eigenvalues --  -88.97512 -19.06832 -19.03334 -19.03293 -19.02337
  Beta  occ. eigenvalues --  -14.29071 -14.26324 -14.24662 -10.20945 -10.14606
  Beta  occ. eigenvalues --  -10.13252 -10.12288 -10.10793 -10.09625 -10.08952
  Beta  occ. eigenvalues --  -10.08809  -8.03768  -6.00067  -6.00012  -5.99809
  Beta  occ. eigenvalues --   -1.03413  -1.01334  -0.96118  -0.92517  -0.92398
  Beta  occ. eigenvalues --   -0.84895  -0.74078  -0.73099  -0.70631  -0.66447
  Beta  occ. eigenvalues --   -0.62799  -0.57255  -0.52652  -0.52190  -0.51484
  Beta  occ. eigenvalues --   -0.49775  -0.46212  -0.43701  -0.41682  -0.40912
  Beta  occ. eigenvalues --   -0.40237  -0.38888  -0.38203  -0.37394  -0.36468
  Beta  occ. eigenvalues --   -0.35882  -0.34899  -0.34582  -0.34462  -0.33685
  Beta  occ. eigenvalues --   -0.31161  -0.31130  -0.28441  -0.28223  -0.27460
  Beta  occ. eigenvalues --   -0.26609  -0.23988  -0.23153  -0.22919  -0.21869
  Beta  occ. eigenvalues --   -0.21154  -0.19747  -0.19264  -0.17831  -0.16841
  Beta virt. eigenvalues --    0.05964   0.07001   0.07573   0.07995   0.08254
  Beta virt. eigenvalues --    0.08951   0.09041   0.09637   0.10027   0.11282
  Beta virt. eigenvalues --    0.11568   0.11663   0.12169   0.12205   0.13446

 Mulliken charges and spin densities:
               1          2
     1  C   -0.185996   0.407364
     2  C   -0.745542   0.602889
     3  N   -0.172586   0.017325
     4  N   -0.005531  -0.012086
     5  C   -0.357250   0.038932
     6  C    0.751698  -1.574637
     7  N   -0.414559   0.130904
     8  S    0.986353  -0.607097
     9  O   -0.177122   0.028501
    10  O   -0.247150   0.015698
    11  C   -0.770928   0.237644
    12  C    0.951569  -1.398915
    13  C    0.411061  -0.584246
    14  C    0.441784  -0.486749
    15  O   -0.346145   0.032800
    16  O   -0.181381   0.082036
    17  H   -0.020334   0.174132
    18  H    0.333204   0.078666
    19  H    0.067587   0.074381
    20  H    0.079561   0.119416
    21  H    0.265101  -0.029789
    22  H    0.185726   0.108914
    23  H   -0.166771   0.430052
    24  H   -0.261544   0.534793
    25  H   -0.221490   0.426175
    26  H   -0.064256   0.281895
    27  H   -0.569201   0.822311
    28  H    0.104283   0.070515
    29  H   -0.670140   0.978176
 Sum of Mulliken charges =  -1.00000   1.00000

 Dipole moment (field-independent basis, Debye):
    X=              5.5139    Y=             -6.5851    Z=              0.4901  Tot=              8.6028
 Quadrupole moment (field-independent basis, Debye-Ang):
   XX=           -159.5932   YY=           -171.2320   ZZ=           -134.6201
   XY=              1.3585   XZ=             -0.9027   YZ=              4.7886

 Summary of Natural Population Analysis:

                                       Natural Population
                Natural  -----------------------------------------------
    Atom  No    Charge         Core      Valence    Rydberg      Total
 -----------------------------------------------------------------------
      C    1   -0.16339      0.99951     2.15589    0.00799     3.16339
      C    2    0.06493      0.99955     1.92354    0.01198     2.93507
      N    3   -0.16877      0.99964     2.65712    0.01201     3.66877
      N    4   -0.14560      0.99975     2.63382    0.01203     3.64560
      C    5   -0.02323      0.99965     2.00845    0.01513     3.02323
      C    6   -0.10784      0.99957     2.09719    0.01107     3.10784
      N    7   -0.43664      0.99976     2.92506    0.01181     3.93664
      S    8    1.09248      4.99929     1.80893    0.09929     6.90752
      O    9   -0.46537      0.99991     3.46014    0.00533     4.46537
      O   10   -0.46446      0.99991     3.45907    0.00548     4.46446
      C   11   -0.28718      0.99957     2.27495    0.01266     3.28718
      C   12   -0.19963      0.99961     2.18949    0.01053     3.19963
      C   13   -0.24189      0.99957     2.23240    0.00992     3.24189
      C   14    0.42548      0.99971     1.54936    0.02545     2.57452
      O   15   -0.32758      0.99985     3.32036    0.00737     4.32758
      O   16   -0.33947      0.99987     3.33232    0.00728     4.33947
      H   17    0.10787      0.00000     0.39137    0.00076     0.39213
      H   18    0.22168      0.00000     0.27509    0.00323     0.27832
      H   19    0.09564      0.00000     0.40356    0.00080     0.40436
      H   20    0.11016      0.00000     0.38837    0.00147     0.38984
      H   21    0.10427      0.00000     0.39444    0.00129     0.39573
      H   22    0.19778      0.00000     0.30005    0.00217     0.30222
      H   23    0.11687      0.00000     0.38161    0.00152     0.38313
      H   24    0.12183      0.00000     0.37691    0.00126     0.37817
      H   25    0.11453      0.00000     0.38329    0.00218     0.38547
      H   26    0.11320      0.00000     0.38534    0.00147     0.38680
      H   27    0.12015      0.00000     0.37737    0.00248     0.37985
      H   28    0.11494      0.00000     0.38329    0.00176     0.38506
      H   29    0.24924      0.00000     0.21684    0.03392     0.25076
 =======================================================================
   * Total *    0.00000     19.99470    44.68565    0.31965    65.00000

 Normal termination of Gaussian 16 at Fri Dec 11 00:49:39 2020.
