 Gaussian 16, Revision A.03,

 -----------------------------------------------------------
 # opt freq B3LYP/6-31G(d) empiricaldispersion=gd3bj scf=xqc
 -----------------------------------------------------------

 ------------------------------
 CID_62731617_JID_7382_neutraal
 ------------------------------
 Symbolic Z-matrix:
 Charge =  0 Multiplicity = 1

 SCF Done:  E(RB3LYP) =  -749.938135191     A.U. after   14 cycles
 SCF Done:  E(RB3LYP) =  -749.939242714     A.U. after   12 cycles
 SCF Done:  E(RB3LYP) =  -749.934014453     A.U. after   14 cycles
 SCF Done:  E(RB3LYP) =  -749.942921076     A.U. after   12 cycles
 SCF Done:  E(RB3LYP) =  -749.942202223     A.U. after   12 cycles
 SCF Done:  E(RB3LYP) =  -749.945488011     A.U. after   12 cycles
 SCF Done:  E(RB3LYP) =  -749.946129291     A.U. after   12 cycles
 SCF Done:  E(RB3LYP) =  -749.946306906     A.U. after   11 cycles
 SCF Done:  E(RB3LYP) =  -749.946364101     A.U. after   10 cycles
 SCF Done:  E(RB3LYP) =  -749.946382636     A.U. after    9 cycles
 SCF Done:  E(RB3LYP) =  -749.946405694     A.U. after    7 cycles
 SCF Done:  E(RB3LYP) =  -749.946406329     A.U. after    7 cycles
 SCF Done:  E(RB3LYP) =  -749.946406480     A.U. after    7 cycles
 SCF Done:  E(RB3LYP) =  -749.946406622     A.U. after    7 cycles
 SCF Done:  E(RB3LYP) =  -749.946406705     A.U. after    7 cycles
 SCF Done:  E(RB3LYP) =  -749.946406770     A.U. after    6 cycles
 Optimization completed.
    -- Stationary point found.
 Normal termination of Gaussian 16 at Sun Dec 13 12:40:39 2020.

 --------------------------------------------------------------------
 #N Geom=AllCheck Guess=TCheck SCRF=Check GenChk RB3LYP/6-31G(d) Freq
 --------------------------------------------------------------------

 Structure from the checkpoint file:  "JID_7382.chk"
 ------------------------------
 CID_62731617_JID_7382_neutraal
 ------------------------------
 Charge =  0 Multiplicity = 1

 SCF Done:  E(RB3LYP) =  -749.946406771     A.U. after    1 cycles

  Exact polarizability: 177.113 -13.953 151.134  -7.866  -0.704 140.202
 Approx polarizability: 229.584 -26.549 206.178 -12.176  -6.286 230.336

                      1                      2                      3
                      A                      A                      A
 Frequencies --     16.0247                26.3620                29.4474
 Red. masses --      3.7170                 3.3498                 3.2046
 Frc consts  --      0.0006                 0.0014                 0.0016
 IR Inten    --      0.1770                 0.0554                 0.1677

                      4                      5                      6
                      A                      A                      A
 Frequencies --     56.2623                63.0030                82.0467
 Red. masses --      3.8366                 2.2899                 3.9183
 Frc consts  --      0.0072                 0.0054                 0.0155
 IR Inten    --      0.9044                 1.6065                 0.4700

                      7                      8                      9
                      A                      A                      A
 Frequencies --     96.0990               102.4666               121.5602
 Red. masses --      2.4727                 2.2322                 3.5991
 Frc consts  --      0.0135                 0.0138                 0.0313
 IR Inten    --      2.9273                 0.6218                 0.1786

                     10                     11                     12
                      A                      A                      A
 Frequencies --    134.9745               157.0590               188.7749
 Red. masses --      1.6387                 3.1736                 2.1452
 Frc consts  --      0.0176                 0.0461                 0.0450
 IR Inten    --      1.1051                 1.7153                 0.2601

                     13                     14                     15
                      A                      A                      A
 Frequencies --    231.7463               232.8550               248.3835
 Red. masses --      3.0272                 1.2233                 1.9428
 Frc consts  --      0.0958                 0.0391                 0.0706
 IR Inten    --      0.8346                 0.4686                 0.8038

                     16                     17                     18
                      A                      A                      A
 Frequencies --    258.4970               279.1863               287.6543
 Red. masses --      1.7480                 1.8464                 2.3820
 Frc consts  --      0.0688                 0.0848                 0.1161
 IR Inten    --      0.7466                 1.1862                 1.1976

                     19                     20                     21
                      A                      A                      A
 Frequencies --    316.1957               346.4192               366.0798
 Red. masses --      2.3272                 3.0484                 2.6382
 Frc consts  --      0.1371                 0.2155                 0.2083
 IR Inten    --      0.3037                 4.4866                 2.9345

                     22                     23                     24
                      A                      A                      A
 Frequencies --    394.9180               413.9704               430.7748
 Red. masses --      2.0089                 2.1425                 4.0392
 Frc consts  --      0.1846                 0.2163                 0.4416
 IR Inten    --      2.3049                 1.9240                 1.4848

                     25                     26                     27
                      A                      A                      A
 Frequencies --    494.9682               529.3578               579.7054
 Red. masses --      2.0627                 2.7520                 2.7310
 Frc consts  --      0.2977                 0.4544                 0.5407
 IR Inten    --      1.5049                13.5257                 0.4098

                     28                     29                     30
                      A                      A                      A
 Frequencies --    661.8699               676.2969               693.8201
 Red. masses --      4.4187                 1.9907                 2.9962
 Frc consts  --      1.1405                 0.5364                 0.8498
 IR Inten    --      3.9382                25.6023                 7.3525

                     31                     32                     33
                      A                      A                      A
 Frequencies --    700.3101               751.4991               769.2702
 Red. masses --      2.5823                 1.3105                 1.7272
 Frc consts  --      0.7462                 0.4361                 0.6022
 IR Inten    --     68.5263                 6.6663                37.5439

                     34                     35                     36
                      A                      A                      A
 Frequencies --    793.0803               811.8863               823.1118
 Red. masses --      1.4355                 2.4378                 1.5720
 Frc consts  --      0.5320                 0.9468                 0.6275
 IR Inten    --     16.6710                 5.1477                 4.5524

                     37                     38                     39
                      A                      A                      A
 Frequencies --    829.3860               863.2219               883.0751
 Red. masses --      2.0491                 1.3845                 2.1090
 Frc consts  --      0.8305                 0.6078                 0.9690
 IR Inten    --      5.4093                28.6395                17.7204

                     40                     41                     42
                      A                      A                      A
 Frequencies --    886.1508               947.4494               965.6037
 Red. masses --      1.9373                 1.8640                 1.8955
 Frc consts  --      0.8963                 0.9858                 1.0413
 IR Inten    --     19.8446                 2.7768                 5.6263

                     43                     44                     45
                      A                      A                      A
 Frequencies --    966.1302               984.2549              1012.9966
 Red. masses --      1.8213                 2.6098                 1.9193
 Frc consts  --      1.0016                 1.4896                 1.1604
 IR Inten    --     19.5968                 2.3607                11.9113

                     46                     47                     48
                      A                      A                      A
 Frequencies --   1015.2005              1040.7385              1057.9088
 Red. masses --      2.3473                 3.5426                 1.5130
 Frc consts  --      1.4253                 2.2608                 0.9977
 IR Inten    --     25.5120                 3.1449                 1.7957

                     49                     50                     51
                      A                      A                      A
 Frequencies --   1085.0718              1086.2508              1092.0352
 Red. masses --      2.0561                 2.6170                 1.9358
 Frc consts  --      1.4263                 1.8193                 1.3601
 IR Inten    --      2.0533                11.0687                 7.8449

                     52                     53                     54
                      A                      A                      A
 Frequencies --   1109.9259              1132.2295              1144.5422
 Red. masses --      1.6671                 2.0361                 2.3792
 Frc consts  --      1.2100                 1.5378                 1.8363
 IR Inten    --      3.6061                23.0195                24.7757

                     55                     56                     57
                      A                      A                      A
 Frequencies --   1154.6086              1170.0192              1180.1934
 Red. masses --      2.2074                 1.4795                 2.7991
 Frc consts  --      1.7338                 1.1933                 2.2970
 IR Inten    --     22.7518                13.0678                90.4687

                     58                     59                     60
                      A                      A                      A
 Frequencies --   1184.8296              1207.2525              1216.4605
 Red. masses --      1.6529                 1.8365                 1.9970
 Frc consts  --      1.3672                 1.5770                 1.7411
 IR Inten    --     14.0186                14.0492                14.7864

                     61                     62                     63
                      A                      A                      A
 Frequencies --   1253.0183              1272.7062              1295.3751
 Red. masses --      1.5220                 1.3211                 1.3031
 Frc consts  --      1.4079                 1.2608                 1.2884
 IR Inten    --      2.8222                 5.6651                10.2104

                     64                     65                     66
                      A                      A                      A
 Frequencies --   1307.2252              1327.1967              1336.8362
 Red. masses --      1.2966                 1.5239                 1.2530
 Frc consts  --      1.3055                 1.5815                 1.3194
 IR Inten    --      0.2489                 8.9772                 6.2982

                     67                     68                     69
                      A                      A                      A
 Frequencies --   1352.5790              1358.7568              1385.9432
 Red. masses --      1.2063                 1.3797                 1.5507
 Frc consts  --      1.3002                 1.5008                 1.7550
 IR Inten    --      4.6944                16.1921                 6.3209

                     70                     71                     72
                      A                      A                      A
 Frequencies --   1387.3088              1397.8116              1400.3180
 Red. masses --      1.3813                 1.6162                 1.6035
 Frc consts  --      1.5664                 1.8606                 1.8526
 IR Inten    --      1.3155                 3.3911                 9.8620

                     73                     74                     75
                      A                      A                      A
 Frequencies --   1408.2677              1415.4821              1422.1505
 Red. masses --      1.4576                 2.7576                 1.3464
 Frc consts  --      1.7031                 3.2553                 1.6044
 IR Inten    --      7.0564                10.5661                22.8867

                     76                     77                     78
                      A                      A                      A
 Frequencies --   1440.7567              1442.4397              1446.0954
 Red. masses --      2.1461                 1.5827                 1.2741
 Frc consts  --      2.6247                 1.9402                 1.5698
 IR Inten    --     10.8235                34.4001                 1.9547

                     79                     80                     81
                      A                      A                      A
 Frequencies --   1452.4476              1471.5161              1479.4684
 Red. masses --      1.2763                 2.4109                 1.1699
 Frc consts  --      1.5864                 3.0759                 1.5087
 IR Inten    --      8.9948                15.2831                 4.5753

                     82                     83                     84
                      A                      A                      A
 Frequencies --   1499.1646              1501.6506              1507.7208
 Red. masses --      1.2534                 1.0915                 1.1613
 Frc consts  --      1.6598                 1.4501                 1.5554
 IR Inten    --      9.8594                 3.1457                 7.7779

                     85                     86                     87
                      A                      A                      A
 Frequencies --   1509.0310              1516.5649              1520.6705
 Red. masses --      1.0824                 1.1385                 1.0553
 Frc consts  --      1.4522                 1.5428                 1.4378
 IR Inten    --      2.2696                 4.9714                 0.0532

                     88                     89                     90
                      A                      A                      A
 Frequencies --   1526.5375              1526.8746              1531.8165
 Red. masses --      1.0731                 1.0843                 1.0425
 Frc consts  --      1.4734                 1.4894                 1.4413
 IR Inten    --      5.6712                 7.4888                 3.2633

                     91                     92                     93
                      A                      A                      A
 Frequencies --   1534.6825              1541.0100              1542.7887
 Red. masses --      1.0855                 1.0482                 1.0690
 Frc consts  --      1.5063                 1.4665                 1.4992
 IR Inten    --     12.7315                 4.9031                 3.7050

                     94                     95                     96
                      A                      A                      A
 Frequencies --   1553.0143              1619.4108              2974.4598
 Red. masses --      1.0488                 5.1523                 1.0575
 Frc consts  --      1.4904                 7.9610                 5.5124
 IR Inten    --      7.0941                12.7473                91.8699

                     97                     98                     99
                      A                      A                      A
 Frequencies --   3017.4581              3019.3154              3026.2121
 Red. masses --      1.0825                 1.0638                 1.0647
 Frc consts  --      5.8073                 5.7137                 5.7450
 IR Inten    --     16.4546                32.8740                20.2012

                    100                    101                    102
                      A                      A                      A
 Frequencies --   3037.9335              3048.2551              3050.4379
 Red. masses --      1.0615                 1.0620                 1.0381
 Frc consts  --      5.7720                 5.8139                 5.6915
 IR Inten    --     31.4190                43.3692                22.5772

                    103                    104                    105
                      A                      A                      A
 Frequencies --   3051.1986              3060.2360              3067.8847
 Red. masses --      1.0388                 1.0698                 1.0988
 Frc consts  --      5.6982                 5.9028                 6.0932
 IR Inten    --     20.1617                32.1028                37.6606

                    106                    107                    108
                      A                      A                      A
 Frequencies --   3070.2873              3075.6651              3078.1903
 Red. masses --      1.0766                 1.0877                 1.1017
 Frc consts  --      5.9797                 6.0623                 6.1501
 IR Inten    --     45.6342                23.9266                26.1865

                    109                    110                    111
                      A                      A                      A
 Frequencies --   3080.9866              3084.4222              3112.2680
 Red. masses --      1.0779                 1.0982                 1.1005
 Frc consts  --      6.0287                 6.1557                 6.2805
 IR Inten    --     55.6993                49.2811                40.5740

                    112                    113                    114
                      A                      A                      A
 Frequencies --   3112.5015              3115.4411              3122.6989
 Red. masses --      1.1015                 1.1023                 1.1004
 Frc consts  --      6.2874                 6.3038                 6.3221
 IR Inten    --     41.6620                27.1874                47.5485

                    115                    116                    117
                      A                      A                      A
 Frequencies --   3131.9649              3144.4886              3158.3956
 Red. masses --      1.1013                 1.0992                 1.0971
 Frc consts  --      6.3648                 6.4036                 6.4479
 IR Inten    --     39.0839                19.6382                 5.2581

                    118                    119                    120
                      A                      A                      A
 Frequencies --   3256.5089              3266.2193              3508.4992
 Red. masses --      1.0952                 1.0975                 1.0740
 Frc consts  --      6.8429                 6.8984                 7.7890
 IR Inten    --      6.8516                 0.4051                 0.3991

 - Thermochemistry -
 -------------------
 Temperature   298.150 Kelvin.  Pressure   1.00000 Atm.
 Atom     1 has atomic number  6 and mass  12.00000

 Molecular mass:   239.19976 amu.
 Principal axes and moments of inertia in atomic units:
                           1         2         3
     Eigenvalues --  2819.489636017.032817712.31314
           X            0.99996   0.00591  -0.00731
           Y           -0.00590   0.99998   0.00169
           Z            0.00732  -0.00165   0.99997
 This molecule is an asymmetric top.
 Rotational symmetry number  1.
 Warning -- assumption of classical behavior for rotation
           may cause significant error
 Rotational temperatures (Kelvin)      0.03072     0.01439     0.01123
 Rotational constants (GHZ):           0.64009     0.29994     0.23401
 Zero-point vibrational energy     996118.7 (Joules/Mol)
                                  238.07808 (Kcal/Mol)
 Warning -- explicit consideration of  27 degrees of freedom as
           vibrations may cause significant error
 Vibrational temperatures:     23.06    37.93    42.37    80.95    90.65
          (Kelvin)            118.05   138.27   147.43   174.90   194.20
                              225.97   271.61   333.43   335.03   357.37
                              371.92   401.69   413.87   454.94   498.42
                              526.71   568.20   595.61   619.79   712.15
                              761.63   834.07   952.28   973.04   998.25
                             1007.59  1081.24  1106.81  1141.07  1168.12
                             1184.27  1193.30  1241.98  1270.55  1274.97
                             1363.17  1389.29  1390.05  1416.12  1457.48
                             1460.65  1497.39  1522.09  1561.18  1562.87
                             1571.20  1596.94  1629.03  1646.74  1661.22
                             1683.40  1698.04  1704.71  1736.97  1750.22
                             1802.81  1831.14  1863.76  1880.81  1909.54
                             1923.41  1946.06  1954.95  1994.06  1996.03
                             2011.14  2014.75  2026.18  2036.56  2046.16
                             2072.93  2075.35  2080.61  2089.75  2117.18
                             2128.63  2156.96  2160.54  2169.27  2171.16
                             2182.00  2187.91  2196.35  2196.83  2203.94
                             2208.07  2217.17  2219.73  2234.44  2329.97
                             4279.58  4341.45  4344.12  4354.04  4370.91
                             4385.76  4388.90  4389.99  4403.00  4414.00
                             4417.46  4425.20  4428.83  4432.85  4437.80
                             4477.86  4478.20  4482.42  4492.87  4506.20
                             4524.22  4544.23  4685.39  4699.36  5047.95

 Zero-point correction=                           0.379402 (Hartree/Particle)
 Thermal correction to Energy=                    0.398744
 Thermal correction to Enthalpy=                  0.399688
 Thermal correction to Gibbs Free Energy=         0.329209
 Sum of electronic and zero-point Energies=           -749.567005
 Sum of electronic and thermal Energies=              -749.547663
 Sum of electronic and thermal Enthalpies=            -749.546719
 Sum of electronic and thermal Free Energies=         -749.617198

                     E (Thermal)             CV                S
                      KCal/Mol        Cal/Mol-Kelvin    Cal/Mol-Kelvin
 Total                  250.216             70.757            148.336
 Electronic               0.000              0.000              0.000
 Translational            0.889              2.981             42.318
 Rotational               0.889              2.981             33.236
 Vibrational            248.438             64.795             72.782
 Vibration     1          0.593              1.986              7.074
 Vibration     2          0.593              1.985              6.086
 Vibration     3          0.593              1.984              5.866
 Vibration     4          0.596              1.975              4.584
 Vibration     5          0.597              1.972              4.361
 Vibration     6          0.600              1.961              3.841
 Vibration     7          0.603              1.952              3.532
 Vibration     8          0.605              1.947              3.407
 Vibration     9          0.609              1.931              3.075
 Vibration    10          0.613              1.918              2.874
 Vibration    11          0.621              1.895              2.585
 Vibration    12          0.633              1.855              2.240
 Vibration    13          0.653              1.792              1.865
 Vibration    14          0.654              1.791              1.857
 Vibration    15          0.662              1.765              1.742
 Vibration    16          0.667              1.748              1.672
 Vibration    17          0.680              1.712              1.539
 Vibration    18          0.685              1.697              1.488
 Vibration    19          0.703              1.643              1.330
 Vibration    20          0.724              1.583              1.182
 Vibration    21          0.739              1.542              1.096
 Vibration    22          0.762              1.481              0.982
 Vibration    23          0.778              1.440              0.913
 Vibration    24          0.792              1.403              0.856
 Vibration    25          0.851              1.261              0.671
 Vibration    26          0.884              1.185              0.589
 Vibration    27          0.936              1.075              0.486

                           ! Non-Optimized Parameters !
 Normal termination of Gaussian 16 at Sun Dec 13 13:00:31 2020.

 ----------------------------------------------------------------------
 # B3LYP/6-311++G(d,p) empiricaldispersion=gd3bj scf=xqc pop=npa geom=c
 heck
 ----------------------------------------------------------------------

 --------------------------------------
 CID_62731617_JID_7382_Energie_neutraal
 --------------------------------------
 Structure from the checkpoint file:  "JID_7382.chk"
 Charge =  0 Multiplicity = 1

 SCF Done:  E(RB3LYP) =  -750.157224756     A.U. after   15 cycles
 Normal termination of Gaussian 16 at Sun Dec 13 13:10:06 2020.

 ----------------------------------------------------------------------
 # B3LYP/6-311++G(d,p) empiricaldispersion=gd3bj scf=xqc pop=npa geom=c
 heck
 ----------------------------------------------------------------------

 ------------------------------------
 CID_62731617_JID_7382_Energie_kation
 ------------------------------------
 Structure from the checkpoint file:  "JID_7382.chk"
 Charge =  1 Multiplicity = 2

 SCF Done:  E(UB3LYP) =  -749.863519049     A.U. after   30 cycles
 Normal termination of Gaussian 16 at Sun Dec 13 13:37:43 2020.
 Gaussian 16:  ES64L-G16RevA.03 25-Dec-2016

 ----------------------------------------------------------------------
 # B3LYP/6-311++G(d,p) empiricaldispersion=gd3bj scf=xqc pop=npa geom=c
 heck
 ----------------------------------------------------------------------

 -----------------------------------
 CID_62731617_JID_7382_Energie_anion
 -----------------------------------
 Structure from the checkpoint file:  "JID_7382.chk"
 Charge = -1 Multiplicity = 2

                         Standard orientation:
 ---------------------------------------------------------------------
 Center     Atomic      Atomic             Coordinates (Angstroms)
 Number     Number       Type             X           Y           Z
 ---------------------------------------------------------------------
      1          6           0        1.510720    2.502197   -0.941078
      2          6           0        2.894819    2.344571   -0.300365
      3          6           0        2.864612    1.707796    1.096601
      4          6           0        2.341550    0.274482    1.137900
      5          8           0        3.271994   -0.639651    0.537341
      6          6           0        2.949848   -1.149943   -0.733480
      7          6           0        1.956491   -2.322439   -0.708531
      8          7           0        0.608508   -1.909851   -0.355157
      9          6           0       -0.197226   -1.077510   -1.071311
     10          6           0       -1.241606   -0.697909   -0.247767
     11          6           0       -0.965458   -1.371806    0.971803
     12          7           0        0.155587   -2.091322    0.906585
     13          6           0       -2.346349    0.265825   -0.590895
     14          6           0       -3.743532   -0.406139   -0.648006
     15          6           0       -4.282107   -0.900455    0.695500
     16          7           0       -2.236271    1.436183    0.294230
     17          6           0       -3.214567    2.488196    0.053322
     18          1           0        1.029560    1.537181   -1.130034
     19          1           0        1.578287    3.034010   -1.897172
     20          1           0        0.831255    3.063463   -0.288913
     21          1           0        3.546554    1.749942   -0.954154
     22          1           0        3.368623    3.331866   -0.222905
     23          1           0        3.872378    1.719122    1.530549
     24          1           0        2.226606    2.315121    1.755488
     25          1           0        2.219268   -0.052542    2.175533
     26          1           0        1.358891    0.210833    0.665811
     27          1           0        2.567121   -0.365366   -1.402965
     28          1           0        3.890806   -1.518309   -1.159614
     29          1           0        1.933571   -2.798300   -1.696749
     30          1           0        2.262367   -3.060241    0.034910
     31          1           0        0.029758   -0.807195   -2.093067
     32          1           0       -1.529688   -1.360852    1.894620
     33          1           0       -2.144737    0.640942   -1.604463
     34          1           0       -4.453451    0.310200   -1.080160
     35          1           0       -3.685390   -1.243660   -1.354420
     36          1           0       -4.303198   -0.094713    1.439418
     37          1           0       -5.305993   -1.274287    0.589830
     38          1           0       -3.672633   -1.715697    1.097047
     39          1           0       -2.275102    1.134851    1.265141
     40          1           0       -4.269691    2.201883    0.205591
     41          1           0       -2.995970    3.335510    0.711604
     42          1           0       -3.113078    2.837191   -0.981423
 ---------------------------------------------------------------------

 SCF Done:  E(UB3LYP) =  -750.144925697     A.U. after   32 cycles

 The electronic state is 2-A.
 Alpha  occ. eigenvalues --  -19.03147 -14.29591 -14.23672 -14.20414 -10.13201
 Alpha  occ. eigenvalues --  -10.12245 -10.11723 -10.11245 -10.10919 -10.09614
 Alpha  occ. eigenvalues --  -10.09174 -10.07964 -10.07481 -10.07409 -10.07328
 Alpha  occ. eigenvalues --  -10.06945 -10.06044  -0.96057  -0.94113  -0.81505
 Alpha  occ. eigenvalues --   -0.75635  -0.70674  -0.70420  -0.67678  -0.65520
 Alpha  occ. eigenvalues --   -0.62250  -0.60318  -0.56487  -0.55944  -0.53114
 Alpha  occ. eigenvalues --   -0.51313  -0.48080  -0.47719  -0.47292  -0.43448
 Alpha  occ. eigenvalues --   -0.41360  -0.39856  -0.38808  -0.38130  -0.37459
 Alpha  occ. eigenvalues --   -0.35954  -0.35577  -0.34989  -0.34288  -0.33302
 Alpha  occ. eigenvalues --   -0.31826  -0.31766  -0.31214  -0.30487  -0.30366
 Alpha  occ. eigenvalues --   -0.29866  -0.29165  -0.28186  -0.27814  -0.26152
 Alpha  occ. eigenvalues --   -0.25094  -0.24890  -0.24685  -0.24530  -0.23598
 Alpha  occ. eigenvalues --   -0.21847  -0.20151  -0.17553  -0.16067  -0.14937
 Alpha  occ. eigenvalues --   -0.13243   0.04033
 Alpha virt. eigenvalues --    0.05560   0.06638   0.06917   0.07642   0.07943
 Alpha virt. eigenvalues --    0.08324   0.09026   0.09246   0.09578   0.09961
 Alpha virt. eigenvalues --    0.10352   0.10550   0.10959   0.11128   0.11639

  Beta  occ. eigenvalues --  -19.03146 -14.29593 -14.23664 -14.20404 -10.13181
  Beta  occ. eigenvalues --  -10.12224 -10.11721 -10.11237 -10.10899 -10.09605
  Beta  occ. eigenvalues --  -10.09141 -10.07964 -10.07474 -10.07405 -10.07313
  Beta  occ. eigenvalues --  -10.06923 -10.06028  -0.96049  -0.94107  -0.81486
  Beta  occ. eigenvalues --   -0.75615  -0.70655  -0.70405  -0.67648  -0.65494
  Beta  occ. eigenvalues --   -0.62225  -0.60282  -0.56455  -0.55881  -0.53080
  Beta  occ. eigenvalues --   -0.51283  -0.48043  -0.47691  -0.47253  -0.43412
  Beta  occ. eigenvalues --   -0.41333  -0.39835  -0.38784  -0.38096  -0.37431
  Beta  occ. eigenvalues --   -0.35936  -0.35550  -0.34959  -0.34255  -0.33276
  Beta  occ. eigenvalues --   -0.31798  -0.31741  -0.31180  -0.30464  -0.30346
  Beta  occ. eigenvalues --   -0.29840  -0.29133  -0.28159  -0.27792  -0.26124
  Beta  occ. eigenvalues --   -0.25063  -0.24864  -0.24664  -0.24514  -0.23582
  Beta  occ. eigenvalues --   -0.21836  -0.20136  -0.17539  -0.16041  -0.14915
  Beta  occ. eigenvalues --   -0.13226
  Beta virt. eigenvalues --    0.06035   0.06599   0.07065   0.07394   0.07970
  Beta virt. eigenvalues --    0.08496   0.08533   0.09128   0.09477   0.09938
  Beta virt. eigenvalues --    0.10321   0.10580   0.10709   0.11234   0.11370

 Mulliken charges and spin densities:
               1          2
     1  C   -0.326553  -0.112578
     2  C   -0.073149  -0.160046
     3  C   -0.255303  -0.139674
     4  C   -0.382372   0.067637
     5  O   -0.039742   0.004920
     6  C   -0.165231  -0.023416
     7  C    0.535397  -0.896890
     8  N    0.373908   0.030911
     9  C   -0.277287  -0.583202
    10  C    0.659828   0.241691
    11  C   -0.079455  -0.338841
    12  N   -0.347658   0.101504
    13  C   -0.160281  -0.158880
    14  C   -0.422502   0.052230
    15  C    0.179640  -0.824709
    16  N   -0.122299   0.060993
    17  C    0.804336  -1.205007
    18  H    0.447561  -0.329605
    19  H   -0.257931   0.395977
    20  H    0.175876  -0.030843
    21  H   -0.007652   0.149722
    22  H    0.076957   0.073055
    23  H    0.157894   0.009599
    24  H   -0.034502   0.156811
    25  H    0.146236   0.049177
    26  H    0.541532  -0.405488
    27  H    0.108592   0.036932
    28  H   -0.504288   0.697100
    29  H   -0.460275   0.629184
    30  H    0.185218   0.015524
    31  H   -0.724234   0.905959
    32  H    0.053193   0.092628
    33  H    0.018294   0.192737
    34  H   -0.098001   0.267409
    35  H   -0.014396   0.172331
    36  H   -0.078891   0.232427
    37  H   -0.183546   0.329077
    38  H    0.054740   0.089445
    39  H    0.096408   0.130356
    40  H   -0.179646   0.315339
    41  H   -0.182023   0.315242
    42  H   -0.238393   0.393264
 Sum of Mulliken charges =  -1.00000   1.00000

 Dipole moment (field-independent basis, Debye):
    X=              1.7286    Y=              0.1155    Z=              3.8326  Tot=              4.2060
 Quadrupole moment (field-independent basis, Debye-Ang):
   XX=           -189.3418   YY=           -159.4148   ZZ=           -151.6221
   XY=             11.6312   XZ=              6.1631   YZ=             -1.6970

 Summary of Natural Population Analysis:

                                       Natural Population
                Natural  -----------------------------------------------
    Atom  No    Charge         Core      Valence    Rydberg      Total
 -----------------------------------------------------------------------
      C    1   -0.28973      0.99966     2.28394    0.00612     3.28973
      C    2   -0.19365      0.99964     2.18647    0.00753     3.19365
      C    3   -0.19867      0.99962     2.19155    0.00750     3.19867
      C    4   -0.01449      0.99955     2.00358    0.01136     3.01449
      O    5   -0.30462      0.99988     3.29569    0.00905     4.30462
      C    6   -0.01268      0.99957     1.99893    0.01418     3.01268
      C    7   -0.09597      0.99960     2.08457    0.01179     3.09597
      N    8   -0.11207      0.99966     2.59797    0.01444     3.61207
      C    9   -0.00683      0.99949     1.99497    0.01237     3.00683
      C   10   -0.06767      0.99950     2.05545    0.01272     3.06767
      C   11   -0.01694      0.99956     2.00459    0.01278     3.01694
      N   12   -0.15019      0.99974     2.63935    0.01110     3.65019
      C   13   -0.01457      0.99955     2.00086    0.01416     3.01457
      C   14   -0.19443      0.99962     2.18688    0.00793     3.19443
      C   15   -0.29302      0.99966     2.28715    0.00620     3.29302
      N   16   -0.33472      0.99975     2.82364    0.01133     3.83472
      C   17   -0.18115      0.99966     2.17290    0.00859     3.18115
      H   18    0.09856      0.00000     0.39968    0.00176     0.40144
      H   19    0.09803      0.00000     0.40105    0.00092     0.40197
      H   20    0.09973      0.00000     0.39909    0.00119     0.40027
      H   21    0.09491      0.00000     0.40382    0.00127     0.40509
      H   22    0.09310      0.00000     0.40594    0.00097     0.40690
      H   23    0.09727      0.00000     0.40159    0.00113     0.40273
      H   24    0.09570      0.00000     0.40317    0.00113     0.40430
      H   25    0.08926      0.00000     0.40980    0.00094     0.41074
      H   26    0.09013      0.00000     0.40659    0.00328     0.40987
      H   27    0.08298      0.00000     0.41489    0.00213     0.41702
      H   28    0.09291      0.00000     0.40561    0.00147     0.40709
      H   29    0.10363      0.00000     0.39424    0.00213     0.39637
      H   30    0.10984      0.00000     0.38866    0.00150     0.39016
      H   31    0.11042      0.00000     0.38750    0.00208     0.38958
      H   32    0.09846      0.00000     0.40045    0.00109     0.40154
      H   33    0.09719      0.00000     0.40062    0.00219     0.40281
      H   34    0.09729      0.00000     0.40150    0.00121     0.40271
      H   35    0.09989      0.00000     0.39900    0.00111     0.40011
      H   36    0.09496      0.00000     0.40378    0.00125     0.40504
      H   37    0.10075      0.00000     0.39845    0.00080     0.39925
      H   38    0.09791      0.00000     0.40081    0.00128     0.40209
      H   39    0.16998      0.00000     0.32708    0.00295     0.33002
      H   40    0.08016      0.00000     0.41816    0.00168     0.41984
      H   41    0.09529      0.00000     0.40382    0.00088     0.40471
      H   42    0.09304      0.00000     0.40573    0.00123     0.40696
 =======================================================================
   * Total *    0.00000     16.99370    48.78953    0.21676    66.00000

 Normal termination of Gaussian 16 at Sun Dec 13 14:05:41 2020.
