 Gaussian 16, Revision A.03,

 -----------------------------------------------------------
 # opt freq B3LYP/6-31G(d) empiricaldispersion=gd3bj scf=xqc
 -----------------------------------------------------------

 ------------------------------
 CID_104469644_JID_842_neutraal
 ------------------------------
 Symbolic Z-matrix:
 Charge =  0 Multiplicity = 1

 SCF Done:  E(RB3LYP) =  -764.422499037     A.U. after   14 cycles
 SCF Done:  E(RB3LYP) =  -764.428355299     A.U. after   12 cycles
 SCF Done:  E(RB3LYP) =  -764.428863678     A.U. after   11 cycles
 SCF Done:  E(RB3LYP) =  -764.428937194     A.U. after   10 cycles
 SCF Done:  E(RB3LYP) =  -764.428939692     A.U. after    9 cycles
 SCF Done:  E(RB3LYP) =  -764.428946495     A.U. after    9 cycles
 SCF Done:  E(RB3LYP) =  -764.428947579     A.U. after    8 cycles
 SCF Done:  E(RB3LYP) =  -764.428947970     A.U. after    8 cycles
 SCF Done:  E(RB3LYP) =  -764.428948279     A.U. after    7 cycles
 SCF Done:  E(RB3LYP) =  -764.428948621     A.U. after    7 cycles
 SCF Done:  E(RB3LYP) =  -764.428948725     A.U. after    7 cycles
 Optimization completed.
    -- Stationary point found.
 Normal termination of Gaussian 16 at Tue Dec  8 12:40:05 2020.

 --------------------------------------------------------------------
 #N Geom=AllCheck Guess=TCheck SCRF=Check GenChk RB3LYP/6-31G(d) Freq
 --------------------------------------------------------------------

 Structure from the checkpoint file:  "JID_842.chk"
 ------------------------------
 CID_104469644_JID_842_neutraal
 ------------------------------
 Charge =  0 Multiplicity = 1

 SCF Done:  E(RB3LYP) =  -764.428948725     A.U. after    1 cycles

  Exact polarizability: 142.162   2.628 101.465   0.000  -0.000  67.207
 Approx polarizability: 196.357  10.366 180.023  -0.001  -0.002 103.957

                      1                      2                      3
                      A                      A                      A
 Frequencies --     32.7948               109.7528               140.9316
 Red. masses --      4.1066                 3.6953                 1.0620
 Frc consts  --      0.0026                 0.0262                 0.0124
 IR Inten    --      0.4617                 1.6609                 0.0119

                      4                      5                      6
                      A                      A                      A
 Frequencies --    161.6761               231.2949               251.5097
 Red. masses --      3.4750                 1.2210                 2.1431
 Frc consts  --      0.0535                 0.0385                 0.0799
 IR Inten    --      1.2813                 0.1508                 0.1218

                      7                      8                      9
                      A                      A                      A
 Frequencies --    284.3198               302.5433               329.9202
 Red. masses --      3.4263                 3.2278                 2.0293
 Frc consts  --      0.1632                 0.1741                 0.1301
 IR Inten    --      2.0421                 1.1716                 0.1881

                     10                     11                     12
                      A                      A                      A
 Frequencies --    394.4074               411.6799               493.0452
 Red. masses --      4.3298                 3.8787                 3.8770
 Frc consts  --      0.3968                 0.3873                 0.5553
 IR Inten    --      3.5774                 0.7739                 0.1318

                     13                     14                     15
                      A                      A                      A
 Frequencies --    547.7202               621.8169               656.7734
 Red. masses --      3.5850                 4.5627                 6.6806
 Frc consts  --      0.6337                 1.0394                 1.6978
 IR Inten    --      5.4543                 8.7975                 3.6376

                     16                     17                     18
                      A                      A                      A
 Frequencies --    675.1162               751.6174               804.1016
 Red. masses --      6.9656                 7.2195                 1.0985
 Frc consts  --      1.8705                 2.4030                 0.4185
 IR Inten    --      1.2988                 3.9364                 0.8952

                     19                     20                     21
                      A                      A                      A
 Frequencies --    836.4244               844.0713               864.2521
 Red. masses --      2.7026                 3.5509                 1.3423
 Frc consts  --      1.1140                 1.4906                 0.5907
 IR Inten    --     10.2438                 1.7777                 9.5582

                     22                     23                     24
                      A                      A                      A
 Frequencies --    962.6865               969.4647              1014.9412
 Red. masses --      1.2495                 1.5716                 1.6155
 Frc consts  --      0.6822                 0.8703                 0.9805
 IR Inten    --      0.4475                 4.5482                 3.4239

                     25                     26                     27
                      A                      A                      A
 Frequencies --   1050.4045              1074.3119              1082.1943
 Red. masses --      1.4466                 1.3942                 1.6312
 Frc consts  --      0.9404                 0.9480                 1.1256
 IR Inten    --     17.1047                 0.9722                10.2043

                     28                     29                     30
                      A                      A                      A
 Frequencies --   1091.0823              1091.7666              1130.0203
 Red. masses --      1.3382                 3.2737                 1.5477
 Frc consts  --      0.9386                 2.2991                 1.1644
 IR Inten    --      1.2111               108.6616                 2.6024

                     31                     32                     33
                      A                      A                      A
 Frequencies --   1194.6058              1200.8983              1213.4734
 Red. masses --      4.4434                 2.0431                 1.3118
 Frc consts  --      3.7361                 1.7360                 1.1381
 IR Inten    --      4.2148                 4.0642                 0.0570

                     34                     35                     36
                      A                      A                      A
 Frequencies --   1323.6842              1332.7764              1354.8389
 Red. masses --      2.1515                 3.4651                 2.9892
 Frc consts  --      2.2211                 3.6265                 3.2329
 IR Inten    --      4.0792                19.6915                23.4724

                     37                     38                     39
                      A                      A                      A
 Frequencies --   1446.1655              1449.2568              1480.6583
 Red. masses --      1.2461                 1.2946                 1.0872
 Frc consts  --      1.5355                 1.6021                 1.4044
 IR Inten    --      1.5966                 7.8033                 3.7872

                     40                     41                     42
                      A                      A                      A
 Frequencies --   1507.4778              1514.0351              1519.4160
 Red. masses --      1.0422                 1.4471                 1.1791
 Frc consts  --      1.3954                 1.9545                 1.6039
 IR Inten    --      7.5637                 9.2456                 3.9030

                     43                     44                     45
                      A                      A                      A
 Frequencies --   1522.6863              1533.0752              1552.5787
 Red. masses --      1.0430                 1.1098                 3.5523
 Frc consts  --      1.4248                 1.5369                 5.0451
 IR Inten    --      4.0935                11.3554                26.5657

                     46                     47                     48
                      A                      A                      A
 Frequencies --   1603.5334              3044.3807              3044.8444
 Red. masses --      5.2703                 1.0363                 1.0361
 Frc consts  --      7.9844                 5.6590                 5.6597
 IR Inten    --     14.7226                18.5425                44.7506

                     49                     50                     51
                      A                      A                      A
 Frequencies --   3097.0186              3103.8386              3124.1610
 Red. masses --      1.1020                 1.1026                 1.1006
 Frc consts  --      6.2275                 6.2582                 6.3290
 IR Inten    --     16.6351                21.4850                20.5130

                     52                     53                     54
                      A                      A                      A
 Frequencies --   3126.3191              3149.6737              3152.2216
 Red. masses --      1.1010                 1.0515                 1.0590
 Frc consts  --      6.3402                 6.1462                 6.2001
 IR Inten    --     12.7163                16.2979                20.3113

                     55                     56                     57
                      A                      A                      A
 Frequencies --   3218.3574              3237.6039              3249.4934
 Red. masses --      1.0933                 1.1185                 1.1163
 Frc consts  --      6.6719                 6.9075                 6.9446
 IR Inten    --     17.9470                 0.0701                 8.4773

 - Thermochemistry -
 -------------------
 Temperature   298.150 Kelvin.  Pressure   1.00000 Atm.
 Atom     1 has atomic number  6 and mass  12.00000

 Molecular mass:   153.06122 amu.
 Principal axes and moments of inertia in atomic units:
                           1         2         3
     Eigenvalues --   657.951632355.093512848.34819
           X            0.99992  -0.01236  -0.00000
           Y            0.01236   0.99992   0.00000
           Z            0.00000  -0.00000   1.00000
 This molecule is an asymmetric top.
 Rotational symmetry number  1.
 Warning -- assumption of classical behavior for rotation
           may cause significant error
 Rotational temperatures (Kelvin)      0.13164     0.03678     0.03041
 Rotational constants (GHZ):           2.74297     0.76631     0.63361
 Zero-point vibrational energy     457629.7 (Joules/Mol)
                                  109.37613 (Kcal/Mol)
 Warning -- explicit consideration of  13 degrees of freedom as
           vibrations may cause significant error
 Vibrational temperatures:     47.18   157.91   202.77   232.62   332.78
          (Kelvin)            361.87   409.07   435.29   474.68   567.46
                              592.32   709.38   788.05   894.66   944.95
                              971.34  1081.41  1156.92  1203.43  1214.43
                             1243.47  1385.09  1394.84  1460.27  1511.30
                             1545.70  1557.04  1569.82  1570.81  1625.85
                             1718.77  1727.82  1745.92  1904.49  1917.57
                             1949.31  2080.71  2085.16  2130.34  2168.92
                             2178.36  2186.10  2190.81  2205.75  2233.81
                             2307.13  4380.18  4380.85  4455.92  4465.73
                             4494.97  4498.08  4531.68  4535.34  4630.50
                             4658.19  4675.30

 Zero-point correction=                           0.174302 (Hartree/Particle)
 Thermal correction to Energy=                    0.184450
 Thermal correction to Enthalpy=                  0.185394
 Thermal correction to Gibbs Free Energy=         0.138319
 Sum of electronic and zero-point Energies=           -764.254647
 Sum of electronic and thermal Energies=              -764.244498
 Sum of electronic and thermal Enthalpies=            -764.243554
 Sum of electronic and thermal Free Energies=         -764.290630

                     E (Thermal)             CV                S
                      KCal/Mol        Cal/Mol-Kelvin    Cal/Mol-Kelvin
 Total                  115.744             38.119             99.079
 Electronic               0.000              0.000              0.000
 Translational            0.889              2.981             40.987
 Rotational               0.889              2.981             29.869
 Vibrational            113.967             32.157             28.223
 Vibration     1          0.594              1.983              5.653
 Vibration     2          0.606              1.941              3.273
 Vibration     3          0.615              1.912              2.791
 Vibration     4          0.622              1.889              2.530
 Vibration     5          0.653              1.793              1.869
 Vibration     6          0.663              1.760              1.720
 Vibration     7          0.683              1.703              1.508
 Vibration     8          0.694              1.669              1.403
 Vibration     9          0.713              1.616              1.260
 Vibration    10          0.761              1.482              0.983
 Vibration    11          0.776              1.445              0.921
 Vibration    12          0.849              1.265              0.676
 Vibration    13          0.903              1.145              0.549

 Optimization completed.
    -- Stationary point found.
 Normal termination of Gaussian 16 at Tue Dec  8 12:49:34 2020.

 ----------------------------------------------------------------------
 # B3LYP/6-311++G(d,p) empiricaldispersion=gd3bj scf=xqc pop=npa geom=c
 heck
 ----------------------------------------------------------------------

 --------------------------------------
 CID_104469644_JID_842_Energie_neutraal
 --------------------------------------
 Structure from the checkpoint file:  "JID_842.chk"
 Charge =  0 Multiplicity = 1

 SCF Done:  E(RB3LYP) =  -764.551526572     A.U. after   15 cycles
 Normal termination of Gaussian 16 at Tue Dec  8 13:04:05 2020.

 ----------------------------------------------------------------------
 # B3LYP/6-311++G(d,p) empiricaldispersion=gd3bj scf=xqc pop=npa geom=c
 heck
 ----------------------------------------------------------------------

 ------------------------------------
 CID_104469644_JID_842_Energie_kation
 ------------------------------------
 Structure from the checkpoint file:  "JID_842.chk"
 Charge =  1 Multiplicity = 2

 SCF Done:  E(UB3LYP) =  -764.255630589     A.U. after   21 cycles
 Normal termination of Gaussian 16 at Tue Dec  8 13:12:48 2020.
 Gaussian 16:  ES64L-G16RevA.03 25-Dec-2016

 ----------------------------------------------------------------------
 # B3LYP/6-311++G(d,p) empiricaldispersion=gd3bj scf=xqc pop=npa geom=c
 heck
 ----------------------------------------------------------------------

 -----------------------------------
 CID_104469644_JID_842_Energie_anion
 -----------------------------------
 Structure from the checkpoint file:  "JID_842.chk"
 Charge = -1 Multiplicity = 2

                         Standard orientation:
 ---------------------------------------------------------------------
 Center     Atomic      Atomic             Coordinates (Angstroms)
 Number     Number       Type             X           Y           Z
 ---------------------------------------------------------------------
      1          6           0        3.636506    0.140299   -0.000057
      2          6           0        2.171697   -0.164336   -0.000018
      3          6           0        1.550583   -1.380429    0.000055
      4          7           0        0.174636   -1.379748    0.000078
      5          6           0       -0.302732   -0.167232    0.000052
      6         16           0        0.946493    1.084933    0.000002
      7          6           0       -1.746336    0.170928    0.000015
      8          6           0       -2.652176   -0.796117   -0.749322
      9          6           0       -2.652233   -0.796190    0.749171
     10          6           0       -2.102593    1.643621    0.000059
     11          1           0        3.935788    0.715899   -0.884186
     12          1           0        3.935927    0.715468    0.884308
     13          1           0        4.204864   -0.795194   -0.000328
     14          1           0        2.076422   -2.329568    0.000064
     15          1           0       -3.502726   -0.367877   -1.273217
     16          1           0       -2.163095   -1.624426   -1.251190
     17          1           0       -2.163193   -1.624550    1.250995
     18          1           0       -3.502825   -0.368001    1.273040
     19          1           0       -1.707169    2.151545    0.887946
     20          1           0       -1.707178    2.151598   -0.887801
     21          1           0       -3.189445    1.771157    0.000066
 ---------------------------------------------------------------------

 SCF Done:  E(UB3LYP) =  -764.534015770     A.U. after   33 cycles
 SCF Done:  E(UB3LYP) =  -764.534015770     a.u. after    1 cycles

 The electronic state is 2-A.
 Alpha  occ. eigenvalues --  -88.77468 -14.20708 -10.13628 -10.10496 -10.10347
 Alpha  occ. eigenvalues --  -10.09441 -10.07905 -10.07877 -10.07447 -10.06983
 Alpha  occ. eigenvalues --   -7.86118  -5.82379  -5.82037  -5.81724  -0.86189
 Alpha  occ. eigenvalues --   -0.77652  -0.70720  -0.65845  -0.61898  -0.59757
 Alpha  occ. eigenvalues --   -0.51440  -0.50947  -0.46121  -0.42719  -0.40213
 Alpha  occ. eigenvalues --   -0.36743  -0.35836  -0.33581  -0.32271  -0.31196
 Alpha  occ. eigenvalues --   -0.30359  -0.29575  -0.29477  -0.27182  -0.26813
 Alpha  occ. eigenvalues --   -0.24881  -0.21000  -0.20349  -0.17598  -0.17409
 Alpha  occ. eigenvalues --   -0.12621   0.04635
 Alpha virt. eigenvalues --    0.06042   0.07099   0.08093   0.08570   0.08881
 Alpha virt. eigenvalues --    0.09147   0.10474   0.11145   0.11544   0.11896
 Alpha virt. eigenvalues --    0.12238   0.12404   0.12946   0.13626   0.14508

  Beta  occ. eigenvalues --  -88.77460 -14.20709 -10.13622 -10.10496 -10.10346
  Beta  occ. eigenvalues --  -10.09427 -10.07891 -10.07863 -10.07385 -10.06946
  Beta  occ. eigenvalues --   -7.86107  -5.82371  -5.82030  -5.81715  -0.86179
  Beta  occ. eigenvalues --   -0.77640  -0.70696  -0.65814  -0.61846  -0.59688
  Beta  occ. eigenvalues --   -0.51402  -0.50902  -0.46076  -0.42686  -0.40183
  Beta  occ. eigenvalues --   -0.36690  -0.35805  -0.33545  -0.32230  -0.31142
  Beta  occ. eigenvalues --   -0.30315  -0.29547  -0.29431  -0.27143  -0.26790
  Beta  occ. eigenvalues --   -0.24847  -0.20980  -0.20330  -0.17585  -0.17402
  Beta  occ. eigenvalues --   -0.12604
  Beta virt. eigenvalues --    0.06966   0.07163   0.07467   0.08657   0.09037
  Beta virt. eigenvalues --    0.09505   0.09776   0.11158   0.11680   0.11778
  Beta virt. eigenvalues --    0.12209   0.12798   0.12830   0.13113   0.13672

 Mulliken charges and spin densities:
               1          2
     1  C    5.703781  -6.225931
     2  C   -2.536775   2.737612
     3  C   -0.542093   0.389408
     4  N   -0.004911   0.027863
     5  C    0.841920  -1.604237
     6  S    0.359547  -0.777391
     7  C   -2.478685   3.914898
     8  C    0.361429  -0.941035
     9  C    0.361448  -0.941013
    10  C    0.290759  -0.710499
    11  H   -0.442679   0.602203
    12  H   -0.442408   0.601942
    13  H   -0.567822   0.734871
    14  H   -0.447251   0.617353
    15  H   -0.238041   0.392213
    16  H    0.005779   0.166828
    17  H    0.005909   0.166692
    18  H   -0.238282   0.392469
    19  H   -0.259383   0.412850
    20  H   -0.259450   0.412921
    21  H   -0.472793   0.629981
 Sum of Mulliken charges =  -1.00000   1.00000

 Dipole moment (field-independent basis, Debye):
    X=             -2.6324    Y=             -1.3352    Z=              0.0005  Tot=              2.9516
 Quadrupole moment (field-independent basis, Debye-Ang):
   XX=           -159.4835   YY=           -106.0162   ZZ=            -95.0451
   XY=              8.4767   XZ=              0.0037   YZ=              0.0006

 Summary of Natural Population Analysis:

                                       Natural Population
                Natural  -----------------------------------------------
    Atom  No    Charge         Core      Valence    Rydberg      Total
 -----------------------------------------------------------------------
      C    1   -0.29877      0.99961     2.29168    0.00747     3.29877
      C    2   -0.11123      0.99951     2.09893    0.01278     3.11123
      C    3   -0.02123      0.99944     2.00686    0.01494     3.02123
      N    4   -0.25416      0.99964     2.74299    0.01152     3.75416
      C    5    0.05646      0.99953     1.92555    0.01847     2.94354
      S    6    0.18920      4.99941     2.79393    0.01747     7.81080
      C    7   -0.07594      0.99951     2.06264    0.01380     3.07594
      C    8   -0.18416      0.99960     2.17548    0.00909     3.18416
      C    9   -0.18416      0.99960     2.17548    0.00909     3.18416
      C   10   -0.28296      0.99963     2.27713    0.00619     3.28296
      H   11    0.10772      0.00000     0.39030    0.00198     0.39228
      H   12    0.10772      0.00000     0.39030    0.00198     0.39228
      H   13    0.11161      0.00000     0.38533    0.00306     0.38839
      H   14    0.09976      0.00000     0.39889    0.00135     0.40024
      H   15    0.10309      0.00000     0.39581    0.00110     0.39691
      H   16    0.11028      0.00000     0.38838    0.00134     0.38972
      H   17    0.11028      0.00000     0.38838    0.00134     0.38972
      H   18    0.10309      0.00000     0.39581    0.00110     0.39691
      H   19    0.10347      0.00000     0.39521    0.00132     0.39653
      H   20    0.10347      0.00000     0.39521    0.00132     0.39653
      H   21    0.10647      0.00000     0.39159    0.00194     0.39353
 =======================================================================
   * Total *    0.00000     13.99547    26.86587    0.13865    41.00000

 Normal termination of Gaussian 16 at Tue Dec  8 13:25:44 2020.
