 Gaussian 16, Revision A.03,

 -----------------------------------------------------------
 # opt freq B3LYP/6-31G(d) empiricaldispersion=gd3bj scf=xqc
 -----------------------------------------------------------

 -------------------------------
 CID_108413930_JID_9366_neutraal
 -------------------------------
 Symbolic Z-matrix:
 Charge =  0 Multiplicity = 1

 SCF Done:  E(RB3LYP) =  -1291.58931580     A.U. after   16 cycles
 SCF Done:  E(RB3LYP) =  -1291.59899024     A.U. after   13 cycles
 SCF Done:  E(RB3LYP) =  -1291.60098478     A.U. after   13 cycles
 SCF Done:  E(RB3LYP) =  -1291.60140578     A.U. after   12 cycles
 SCF Done:  E(RB3LYP) =  -1291.60179449     A.U. after   12 cycles
 SCF Done:  E(RB3LYP) =  -1291.60193354     A.U. after   11 cycles
 SCF Done:  E(RB3LYP) =  -1291.60203651     A.U. after   11 cycles
 SCF Done:  E(RB3LYP) =  -1291.60215615     A.U. after   12 cycles
 SCF Done:  E(RB3LYP) =  -1291.60224423     A.U. after   12 cycles
 SCF Done:  E(RB3LYP) =  -1291.60233842     A.U. after   12 cycles
 SCF Done:  E(RB3LYP) =  -1291.60543946     A.U. after   10 cycles
 SCF Done:  E(RB3LYP) =  -1291.60544150     A.U. after    8 cycles
 SCF Done:  E(RB3LYP) =  -1291.60544220     A.U. after    9 cycles
 SCF Done:  E(RB3LYP) =  -1291.60544231     A.U. after    8 cycles
 SCF Done:  E(RB3LYP) =  -1291.60544235     A.U. after    7 cycles
 Optimization completed.
    -- Stationary point found.
 Normal termination of Gaussian 16 at Mon Dec 14 17:01:56 2020.

 --------------------------------------------------------------------
 #N Geom=AllCheck Guess=TCheck SCRF=Check GenChk RB3LYP/6-31G(d) Freq
 --------------------------------------------------------------------

 Structure from the checkpoint file:  "JID_9366.chk"
 -------------------------------
 CID_108413930_JID_9366_neutraal
 -------------------------------
 Charge =  0 Multiplicity = 1

 SCF Done:  E(RB3LYP) =  -1291.60544235     A.U. after    1 cycles

  Exact polarizability: 211.626  -8.392 174.272  14.929   3.760 109.799
 Approx polarizability: 288.509   2.160 280.296  37.759  12.930 178.180

                      1                      2                      3
                      A                      A                      A
 Frequencies --     25.7754                39.7153                41.1015
 Red. masses --      6.1295                 4.4645                 4.8422
 Frc consts  --      0.0024                 0.0041                 0.0048
 IR Inten    --      0.2795                 0.0979                 1.4606

                      4                      5                      6
                      A                      A                      A
 Frequencies --     67.4749                78.3891                93.5137
 Red. masses --      5.7852                 4.8792                 2.9543
 Frc consts  --      0.0155                 0.0177                 0.0152
 IR Inten    --      0.2195                 3.3617                 3.0147

                      7                      8                      9
                      A                      A                      A
 Frequencies --    110.8455               124.1569               144.6093
 Red. masses --      4.6070                 5.1888                 5.0227
 Frc consts  --      0.0334                 0.0471                 0.0619
 IR Inten    --      1.5851                 8.4510                 1.1766

                     10                     11                     12
                      A                      A                      A
 Frequencies --    151.8001               179.8640               186.4983
 Red. masses --      2.9104                 3.8361                 2.2168
 Frc consts  --      0.0395                 0.0731                 0.0454
 IR Inten    --      0.8627                 0.6614                35.3509

                     13                     14                     15
                      A                      A                      A
 Frequencies --    221.6906               234.2933               240.5050
 Red. masses --      1.1734                 2.0847                 2.6883
 Frc consts  --      0.0340                 0.0674                 0.0916
 IR Inten    --     68.5480                 7.5656                 2.0315

                     16                     17                     18
                      A                      A                      A
 Frequencies --    269.6461               273.5531               310.8093
 Red. masses --      4.2562                 3.3578                 7.8549
 Frc consts  --      0.1823                 0.1480                 0.4471
 IR Inten    --      9.7489                 3.6324                15.4669

                     19                     20                     21
                      A                      A                      A
 Frequencies --    324.3289               356.2547               372.2641
 Red. masses --      7.3696                 2.8579                 5.6215
 Frc consts  --      0.4567                 0.2137                 0.4590
 IR Inten    --      4.8070                 3.8350                 9.2887

                     22                     23                     24
                      A                      A                      A
 Frequencies --    434.4151               456.4130               478.1714
 Red. masses --      4.1525                 7.6674                 3.1486
 Frc consts  --      0.4617                 0.9410                 0.4242
 IR Inten    --      2.8810                 3.9329                 6.1071

                     25                     26                     27
                      A                      A                      A
 Frequencies --    483.4077               532.4598               566.9543
 Red. masses --      5.7088                 5.4492                 6.7815
 Frc consts  --      0.7860                 0.9102                 1.2843
 IR Inten    --      1.6196                 9.9391                 9.0194

                     28                     29                     30
                      A                      A                      A
 Frequencies --    610.9592               661.0720               666.2320
 Red. masses --      3.0086                 5.7257                 5.1830
 Frc consts  --      0.6617                 1.4743                 1.3554
 IR Inten    --     49.0674                 3.3539                 6.3205

                     31                     32                     33
                      A                      A                      A
 Frequencies --    694.7549               696.5941               707.3210
 Red. masses --      4.4000                 6.5256                 2.5058
 Frc consts  --      1.2513                 1.8656                 0.7386
 IR Inten    --      1.0581                22.6931                45.5354

                     34                     35                     36
                      A                      A                      A
 Frequencies --    723.7474               775.5569               799.5991
 Red. masses --      3.0467                 3.1448                 7.1079
 Frc consts  --      0.9403                 1.1145                 2.6775
 IR Inten    --     27.2645                21.6408                33.7334

                     37                     38                     39
                      A                      A                      A
 Frequencies --    864.2809               885.1337               913.5021
 Red. masses --      2.2479                 2.3061                 3.3373
 Frc consts  --      0.9893                 1.0645                 1.6408
 IR Inten    --      5.2605                 0.5979                 5.4228

                     40                     41                     42
                      A                      A                      A
 Frequencies --    966.2568               987.7512               994.2726
 Red. masses --      1.8054                 1.6309                 3.3108
 Frc consts  --      0.9931                 0.9375                 1.9284
 IR Inten    --      0.7681                 6.3940                14.7579

                     43                     44                     45
                      A                      A                      A
 Frequencies --   1000.0483              1012.0074              1030.8318
 Red. masses --      2.4172                 3.0099                 2.8969
 Frc consts  --      1.4243                 1.8162                 1.8137
 IR Inten    --      9.7093                11.9747               105.1207

                     46                     47                     48
                      A                      A                      A
 Frequencies --   1047.8624              1126.1831              1132.3113
 Red. masses --      1.5334                 2.1187                 3.1152
 Frc consts  --      0.9920                 1.5832                 2.3533
 IR Inten    --     11.7660                 3.3925                79.7699

                     49                     50                     51
                      A                      A                      A
 Frequencies --   1161.3111              1174.4269              1181.2620
 Red. masses --      3.0026                 4.0905                 2.4003
 Frc consts  --      2.3859                 3.3241                 1.9734
 IR Inten    --     16.6678               138.0134                47.9022

                     52                     53                     54
                      A                      A                      A
 Frequencies --   1191.9844              1194.4764              1217.3236
 Red. masses --      1.7929                 1.3822                 1.8377
 Frc consts  --      1.5009                 1.1620                 1.6045
 IR Inten    --     32.9487                 5.2951                54.0936

                     55                     56                     57
                      A                      A                      A
 Frequencies --   1229.3494              1241.7689              1253.0387
 Red. masses --      1.3506                 1.6375                 2.0883
 Frc consts  --      1.2026                 1.4877                 1.9318
 IR Inten    --     89.2986                22.1118                 2.8199

                     58                     59                     60
                      A                      A                      A
 Frequencies --   1268.1100              1270.7889              1295.1297
 Red. masses --      1.2185                 1.6623                 1.1132
 Frc consts  --      1.1545                 1.5816                 1.1001
 IR Inten    --     15.1984                 9.0899                 8.8010

                     61                     62                     63
                      A                      A                      A
 Frequencies --   1312.4024              1336.9413              1342.5562
 Red. masses --      1.9036                 1.3365                 1.6354
 Frc consts  --      1.9318                 1.4074                 1.7368
 IR Inten    --     11.7254                 5.0628                32.1153

                     64                     65                     66
                      A                      A                      A
 Frequencies --   1367.8033              1390.1653              1403.8895
 Red. masses --      1.4018                 2.2287                 3.3749
 Frc consts  --      1.5452                 2.5376                 3.9190
 IR Inten    --      9.9456                11.9339               281.3099

                     67                     68                     69
                      A                      A                      A
 Frequencies --   1436.2967              1438.0393              1464.9015
 Red. masses --      1.5817                 2.3434                 1.4273
 Frc consts  --      1.9225                 2.8552                 1.8046
 IR Inten    --      3.4813                50.6679                 4.9646

                     70                     71                     72
                      A                      A                      A
 Frequencies --   1502.5443              1505.1042              1514.5066
 Red. masses --      1.1638                 1.7573                 1.0485
 Frc consts  --      1.5480                 2.3455                 1.4170
 IR Inten    --     11.8052               107.0272                 4.4067

                     73                     74                     75
                      A                      A                      A
 Frequencies --   1516.5221              1531.5567              1534.6121
 Red. masses --      1.0971                 1.0740                 1.1623
 Frc consts  --      1.4866                 1.4843                 1.6128
 IR Inten    --     11.3060                41.4148                73.4876

                     76                     77                     78
                      A                      A                      A
 Frequencies --   1540.4024              1556.3681              1560.2347
 Red. masses --      1.0838                 1.1118                 4.7455
 Frc consts  --      1.5152                 1.5867                 6.8063
 IR Inten    --     12.1208                32.5128               661.6356

                     79                     80                     81
                      A                      A                      A
 Frequencies --   1624.5809              1751.4283              1770.8876
 Red. masses --      6.2516                 8.8732                11.1661
 Frc consts  --      9.7213                16.0366                20.6316
 IR Inten    --     40.9126               185.4556               625.6696

                     82                     83                     84
                      A                      A                      A
 Frequencies --   2990.1828              3013.3888              3014.5969
 Red. masses --      1.0373                 1.0632                 1.0647
 Frc consts  --      5.4645                 5.6882                 5.7008
 IR Inten    --     68.6030                79.3383                17.5035

                     85                     86                     87
                      A                      A                      A
 Frequencies --   3035.2503              3074.5128              3076.8346
 Red. masses --      1.1046                 1.1012                 1.0692
 Frc consts  --      5.9959                 6.1329                 5.9640
 IR Inten    --     64.5616                39.8776                14.6120

                     88                     89                     90
                      A                      A                      A
 Frequencies --   3095.5677              3101.1195              3130.4671
 Red. masses --      1.0966                 1.0618                 1.0972
 Frc consts  --      6.1913                 6.0160                 6.3350
 IR Inten    --     18.8364                14.0877                37.6980

                     91                     92                     93
                      A                      A                      A
 Frequencies --   3145.5990              3156.9561              3169.6384
 Red. masses --      1.0846                 1.0971                 1.1065
 Frc consts  --      6.3231                 6.4423                 6.5498
 IR Inten    --     17.4221                 2.4333                 4.0663

                     94                     95                     96
                      A                      A                      A
 Frequencies --   3220.3471              3569.5057              3775.1055
 Red. masses --      1.0916                 1.0745                 1.0667
 Frc consts  --      6.6698                 8.0660                 8.9571
 IR Inten    --      3.9867                53.5470                27.6493

 - Thermochemistry -
 -------------------
 Temperature   298.150 Kelvin.  Pressure   1.00000 Atm.
 Atom     1 has atomic number  6 and mass  12.00000

 Molecular mass:   285.07833 amu.
 Principal axes and moments of inertia in atomic units:
                           1         2         3
     Eigenvalues --  3241.645469031.38544**********
           X            0.99998   0.00333  -0.00467
           Y           -0.00325   0.99983   0.01823
           Z            0.00473  -0.01822   0.99982
 This molecule is an asymmetric top.
 Rotational symmetry number  1.
 Warning -- assumption of classical behavior for rotation
           may cause significant error
 Rotational temperatures (Kelvin)      0.02672     0.00959     0.00777
 Rotational constants (GHZ):           0.55674     0.19983     0.16194
 Zero-point vibrational energy     710252.7 (Joules/Mol)
                                  169.75446 (Kcal/Mol)
 Warning -- explicit consideration of  28 degrees of freedom as
           vibrations may cause significant error
 Vibrational temperatures:     37.09    57.14    59.14    97.08   112.78
          (Kelvin)            134.55   159.48   178.63   208.06   218.41
                              258.78   268.33   318.96   337.10   346.03
                              387.96   393.58   447.19   466.64   512.57
                              535.61   625.03   656.68   687.98   695.52
                              766.09   815.72   879.03   951.14   958.56
                              999.60  1002.24  1017.68  1041.31  1115.85
                             1150.44  1243.51  1273.51  1314.33  1390.23
                             1421.15  1430.54  1438.85  1456.05  1483.14
                             1507.64  1620.33  1629.14  1670.87  1689.74
                             1699.57  1715.00  1718.59  1751.46  1768.76
                             1786.63  1802.84  1824.53  1828.38  1863.40
                             1888.25  1923.56  1931.64  1967.96  2000.14
                             2019.88  2066.51  2069.02  2107.67  2161.83
                             2165.51  2179.04  2181.94  2203.57  2207.96
                             2216.30  2239.27  2244.83  2337.41  2519.91
                             2547.91  4302.21  4335.59  4337.33  4367.05
                             4423.54  4426.88  4453.83  4461.82  4504.04
                             4525.82  4542.16  4560.40  4633.36  5135.72
                             5431.53

 Zero-point correction=                           0.270521 (Hartree/Particle)
 Thermal correction to Energy=                    0.289265
 Thermal correction to Enthalpy=                  0.290209
 Thermal correction to Gibbs Free Energy=         0.221762
 Sum of electronic and zero-point Energies=          -1291.334921
 Sum of electronic and thermal Energies=             -1291.316177
 Sum of electronic and thermal Enthalpies=           -1291.315233
 Sum of electronic and thermal Free Energies=        -1291.383680

                     E (Thermal)             CV                S
                      KCal/Mol        Cal/Mol-Kelvin    Cal/Mol-Kelvin
 Total                  181.517             68.124            144.060
 Electronic               0.000              0.000              0.000
 Translational            0.889              2.981             42.841
 Rotational               0.889              2.981             34.144
 Vibrational            179.739             62.162             67.075
 Vibration     1          0.593              1.985              6.131
 Vibration     2          0.594              1.981              5.273
 Vibration     3          0.594              1.981              5.205
 Vibration     4          0.598              1.970              4.226
 Vibration     5          0.600              1.964              3.931
 Vibration     6          0.603              1.954              3.585
 Vibration     7          0.607              1.940              3.254
 Vibration     8          0.610              1.929              3.035
 Vibration     9          0.616              1.908              2.742
 Vibration    10          0.619              1.901              2.650
 Vibration    11          0.629              1.867              2.330
 Vibration    12          0.632              1.858              2.262
 Vibration    13          0.648              1.808              1.945
 Vibration    14          0.654              1.788              1.846
 Vibration    15          0.658              1.778              1.799
 Vibration    16          0.674              1.729              1.598
 Vibration    17          0.676              1.722              1.574
 Vibration    18          0.700              1.653              1.358
 Vibration    19          0.709              1.627              1.288
 Vibration    20          0.732              1.562              1.138
 Vibration    21          0.744              1.529              1.070
 Vibration    22          0.795              1.395              0.844
 Vibration    23          0.815              1.347              0.777
 Vibration    24          0.835              1.298              0.715
 Vibration    25          0.840              1.287              0.701
 Vibration    26          0.887              1.178              0.582
 Vibration    27          0.923              1.103              0.510
 Vibration    28          0.970              1.009              0.431

 Optimization completed.
    -- Stationary point found.
 Normal termination of Gaussian 16 at Mon Dec 14 17:18:51 2020.

 ----------------------------------------------------------------------
 # B3LYP/6-311++G(d,p) empiricaldispersion=gd3bj scf=xqc pop=npa geom=c
 heck
 ----------------------------------------------------------------------

 ---------------------------------------
 CID_108413930_JID_9366_Energie_neutraal
 ---------------------------------------
 Structure from the checkpoint file:  "JID_9366.chk"
 Charge =  0 Multiplicity = 1

 SCF Done:  E(RB3LYP) =  -1291.89938718     A.U. after   16 cycles
 Normal termination of Gaussian 16 at Mon Dec 14 17:26:41 2020.

 ----------------------------------------------------------------------
 # B3LYP/6-311++G(d,p) empiricaldispersion=gd3bj scf=xqc pop=npa geom=c
 heck
 ----------------------------------------------------------------------

 -------------------------------------
 CID_108413930_JID_9366_Energie_kation
 -------------------------------------
 Structure from the checkpoint file:  "JID_9366.chk"
 Charge =  1 Multiplicity = 2

 SCF Done:  E(UB3LYP) =  -1291.59566404     A.U. after   32 cycles
 Normal termination of Gaussian 16 at Mon Dec 14 17:49:02 2020.
 Gaussian 16:  ES64L-G16RevA.03 25-Dec-2016

 ----------------------------------------------------------------------
 # B3LYP/6-311++G(d,p) empiricaldispersion=gd3bj scf=xqc pop=npa geom=c
 heck
 ----------------------------------------------------------------------

 ------------------------------------
 CID_108413930_JID_9366_Energie_anion
 ------------------------------------
 Structure from the checkpoint file:  "JID_9366.chk"
 Charge = -1 Multiplicity = 2

                         Standard orientation:
 ---------------------------------------------------------------------
 Center     Atomic      Atomic             Coordinates (Angstroms)
 Number     Number       Type             X           Y           Z
 ---------------------------------------------------------------------
      1          6           0        3.774343    3.178637    0.194097
      2          8           0        3.154699    2.075892   -0.427841
      3          6           0        2.968691    0.988882    0.463721
      4          6           0        2.300328   -0.140589   -0.320035
      5          6           0        3.164962   -0.616834   -1.487458
      6          8           0        4.329224   -1.220926   -0.924767
      7          7           0        2.021141   -1.262580    0.567673
      8          6           0        0.850781   -1.950344    0.718807
      9          8           0        0.837429   -3.104277    1.142162
     10          6           0       -0.443314   -1.283091    0.345486
     11          6           0       -1.422931   -2.087018   -0.188452
     12          7           0       -2.675721   -1.683966   -0.547823
     13          6           0       -2.944876   -0.435111   -0.298171
     14          7           0       -2.078200    0.449709    0.270081
     15          6           0       -0.763678    0.094106    0.672927
     16          8           0       -0.074263    0.932510    1.243548
     17          6           0       -2.623439    1.768579    0.597754
     18          6           0       -3.814972    1.978802   -0.340785
     19         16           0       -4.513318    0.299027   -0.651573
     20          1           0        3.873336    3.964445   -0.559835
     21          1           0        4.775446    2.920349    0.575597
     22          1           0        3.173551    3.560941    1.034560
     23          1           0        3.936725    0.645997    0.861011
     24          1           0        2.316698    1.268086    1.299065
     25          1           0        1.362445    0.240802   -0.725412
     26          1           0        2.594015   -1.342423   -2.086149
     27          1           0        3.422679    0.245002   -2.115931
     28          1           0        4.860897   -1.587748   -1.645354
     29          1           0        2.831165   -1.840728    0.768302
     30          1           0       -1.201053   -3.137322   -0.351399
     31          1           0       -2.928805    1.773361    1.650163
     32          1           0       -1.841583    2.517323    0.464981
     33          1           0       -4.580883    2.611798    0.108791
     34          1           0       -3.504186    2.411850   -1.294909
 ---------------------------------------------------------------------

 SCF Done:  E(UB3LYP) =  -1291.91466791     A.U. after   33 cycles
 SCF Done:  E(UB3LYP) =  -1291.91466791     a.u. after    1 cycles

 The electronic state is 2-A.
 Alpha  occ. eigenvalues --  -88.73966 -19.03854 -19.03183 -18.95093 -18.93751
 Alpha  occ. eigenvalues --  -14.22200 -14.19683 -14.16140 -10.13595 -10.12790
 Alpha  occ. eigenvalues --  -10.12473 -10.11839 -10.11057 -10.10867 -10.10821
 Alpha  occ. eigenvalues --  -10.10345 -10.09780 -10.03913 -10.01451  -7.82603
 Alpha  occ. eigenvalues --   -5.78975  -5.78627  -5.78009  -0.94574  -0.93745
 Alpha  occ. eigenvalues --   -0.91215  -0.89083  -0.85452  -0.79223  -0.77146
 Alpha  occ. eigenvalues --   -0.69703  -0.66571  -0.63712  -0.61490  -0.60777
 Alpha  occ. eigenvalues --   -0.55704  -0.52830  -0.50446  -0.49203  -0.49055
 Alpha  occ. eigenvalues --   -0.45916  -0.42285  -0.40320  -0.39573  -0.38687
 Alpha  occ. eigenvalues --   -0.38642  -0.38026  -0.36352  -0.34527  -0.34323
 Alpha  occ. eigenvalues --   -0.33153  -0.32668  -0.31845  -0.31221  -0.30074
 Alpha  occ. eigenvalues --   -0.28769  -0.28667  -0.27588  -0.27155  -0.26188
 Alpha  occ. eigenvalues --   -0.25413  -0.25065  -0.24330  -0.23320  -0.23110
 Alpha  occ. eigenvalues --   -0.22439  -0.19373  -0.17281  -0.16693  -0.14164
 Alpha  occ. eigenvalues --   -0.13472  -0.13050  -0.12203  -0.11422  -0.08952
 Alpha  occ. eigenvalues --    0.04112
 Alpha virt. eigenvalues --    0.05856   0.06927   0.07371   0.09143   0.09874
 Alpha virt. eigenvalues --    0.10339   0.10695   0.10952   0.11326   0.11990
 Alpha virt. eigenvalues --    0.12077   0.12581   0.12995   0.13553   0.13914

  Beta  occ. eigenvalues --  -88.73957 -19.03846 -19.03181 -18.95087 -18.93649
  Beta  occ. eigenvalues --  -14.21905 -14.19662 -14.16362 -10.13601 -10.12789
  Beta  occ. eigenvalues --  -10.12398 -10.11833 -10.10857 -10.10832 -10.10456
  Beta  occ. eigenvalues --  -10.10346 -10.09771 -10.03384 -10.01293  -7.82594
  Beta  occ. eigenvalues --   -5.78979  -5.78637  -5.77953  -0.94569  -0.93729
  Beta  occ. eigenvalues --   -0.91033  -0.88898  -0.85025  -0.79140  -0.76893
  Beta  occ. eigenvalues --   -0.69497  -0.66530  -0.63086  -0.61306  -0.60752
  Beta  occ. eigenvalues --   -0.55688  -0.52630  -0.49793  -0.49040  -0.48897
  Beta  occ. eigenvalues --   -0.45690  -0.42180  -0.40257  -0.39376  -0.38643
  Beta  occ. eigenvalues --   -0.38407  -0.37993  -0.36141  -0.34507  -0.34302
  Beta  occ. eigenvalues --   -0.32866  -0.32488  -0.31255  -0.31063  -0.29944
  Beta  occ. eigenvalues --   -0.28700  -0.28421  -0.27227  -0.26991  -0.25944
  Beta  occ. eigenvalues --   -0.25276  -0.24606  -0.24089  -0.23037  -0.22699
  Beta  occ. eigenvalues --   -0.22336  -0.19362  -0.16700  -0.15668  -0.14132
  Beta  occ. eigenvalues --   -0.12975  -0.12729  -0.11959  -0.11269  -0.07946
  Beta virt. eigenvalues --    0.05901   0.06905   0.07335   0.09046   0.09851
  Beta virt. eigenvalues --    0.10287   0.10545   0.10862   0.11070   0.11390
  Beta virt. eigenvalues --    0.11960   0.12053   0.12632   0.13347   0.13572

 Mulliken charges and spin densities:
               1          2
     1  C   -0.199293  -0.013415
     2  O   -0.094497   0.001865
     3  C   -0.331190   0.001039
     4  C   -0.569100   0.058855
     5  C   -0.440493  -0.143672
     6  O   -0.261984   0.005647
     7  N    0.113698   0.018804
     8  C   -0.468112   0.073112
     9  O   -0.359845   0.029950
    10  C    0.931353   0.134228
    11  C   -0.199730   0.398842
    12  N   -0.060877  -0.121302
    13  C   -0.121224   0.355969
    14  N    0.326284   0.089559
    15  C   -0.469520  -0.045267
    16  O   -0.350871   0.005483
    17  C   -0.259155  -0.010133
    18  C   -0.564925   0.014177
    19  S   -0.302248   0.023733
    20  H    0.114564   0.007174
    21  H    0.103770   0.011776
    22  H    0.121516   0.003427
    23  H    0.152746  -0.003654
    24  H    0.268583  -0.001750
    25  H    0.273326   0.007415
    26  H    0.126717   0.032317
    27  H    0.130846   0.024914
    28  H    0.193233   0.053541
    29  H    0.297335  -0.001060
    30  H    0.205808  -0.024275
    31  H    0.175481   0.013142
    32  H    0.160875   0.001286
    33  H    0.152263  -0.001979
    34  H    0.204666   0.000253
 Sum of Mulliken charges =  -1.00000   1.00000

 Dipole moment (field-independent basis, Debye):
    X=              3.6574    Y=              7.8449    Z=             -2.4313  Tot=              8.9905
 Quadrupole moment (field-independent basis, Debye-Ang):
   XX=           -155.8805   YY=           -147.7655   ZZ=           -131.3264
   XY=             -9.6537   XZ=             -9.1746   YZ=              6.9180

 Summary of Natural Population Analysis:

                                       Natural Population
                Natural  -----------------------------------------------
    Atom  No    Charge         Core      Valence    Rydberg      Total
 -----------------------------------------------------------------------
      C    1   -0.09588      0.99964     2.08780    0.00845     3.09588
      O    2   -0.30062      0.99988     3.29138    0.00936     4.30062
      C    3   -0.01317      0.99955     2.00324    0.01038     3.01317
      C    4   -0.03528      0.99958     2.01743    0.01828     3.03528
      C    5   -0.01476      0.99957     2.00464    0.01056     3.01476
      O    6   -0.37702      0.99989     3.37083    0.00629     4.37702
      N    7   -0.32137      0.99965     2.80971    0.01201     3.82137
      C    8    0.35617      0.99964     1.62263    0.02156     2.64383
      O    9   -0.32683      0.99988     3.32109    0.00586     4.32683
      C   10   -0.14066      0.99941     2.12781    0.01344     3.14066
      C   11    0.16375      0.99953     1.82345    0.01327     2.83625
      N   12   -0.31327      0.99965     2.80146    0.01216     3.81327
      C   13    0.26637      0.99956     1.71605    0.01802     2.73363
      N   14   -0.21424      0.99957     2.70188    0.01279     3.71424
      C   15    0.32993      0.99959     1.64991    0.02057     2.67007
      O   16   -0.35222      0.99988     3.34589    0.00646     4.35222
      C   17   -0.08764      0.99964     2.07799    0.01001     3.08764
      C   18   -0.24581      0.99961     2.23868    0.00751     3.24581
      S   19    0.11360      4.99957     2.86716    0.01968     7.88640
      H   20    0.08499      0.00000     0.41416    0.00084     0.41501
      H   21    0.07361      0.00000     0.42479    0.00160     0.42639
      H   22    0.07835      0.00000     0.42014    0.00151     0.42165
      H   23    0.07757      0.00000     0.42078    0.00165     0.42243
      H   24    0.10323      0.00000     0.39565    0.00111     0.39677
      H   25    0.11606      0.00000     0.38168    0.00226     0.38394
      H   26    0.08160      0.00000     0.41702    0.00139     0.41840
      H   27    0.08432      0.00000     0.41395    0.00173     0.41568
      H   28    0.22749      0.00000     0.26939    0.00311     0.27251
      H   29    0.19206      0.00000     0.30513    0.00282     0.30794
      H   30    0.08718      0.00000     0.41161    0.00121     0.41282
      H   31    0.09536      0.00000     0.40347    0.00117     0.40464
      H   32    0.10946      0.00000     0.38904    0.00150     0.39054
      H   33    0.10057      0.00000     0.39818    0.00124     0.39943
      H   34    0.09711      0.00000     0.40152    0.00137     0.40289
 =======================================================================
   * Total *   -0.00000     22.99328    51.74555    0.26117    75.00000

 Normal termination of Gaussian 16 at Mon Dec 14 18:11:19 2020.
