 Gaussian 16, Revision A.03,

 -----------------------------------------------------------
 # opt freq B3LYP/6-31G(d) empiricaldispersion=gd3bj scf=xqc
 -----------------------------------------------------------

 ------------------------------
 CID_65937108_JID_5282_neutraal
 ------------------------------
 Symbolic Z-matrix:
 Charge =  0 Multiplicity = 1

 SCF Done:  E(RB3LYP) =  -671.321368048     A.U. after   14 cycles
 SCF Done:  E(RB3LYP) =  -671.333123455     A.U. after   12 cycles
 SCF Done:  E(RB3LYP) =  -671.335941740     A.U. after   13 cycles
 SCF Done:  E(RB3LYP) =  -671.336997155     A.U. after   12 cycles
 SCF Done:  E(RB3LYP) =  -671.337348243     A.U. after   11 cycles
 SCF Done:  E(RB3LYP) =  -671.337552519     A.U. after   11 cycles
 SCF Done:  E(RB3LYP) =  -671.337682969     A.U. after   10 cycles
 SCF Done:  E(RB3LYP) =  -671.337745070     A.U. after   11 cycles
 SCF Done:  E(RB3LYP) =  -671.337772832     A.U. after   10 cycles
 SCF Done:  E(RB3LYP) =  -671.337786493     A.U. after    9 cycles
 SCF Done:  E(RB3LYP) =  -671.337793874     A.U. after    9 cycles
 SCF Done:  E(RB3LYP) =  -671.337796231     A.U. after    8 cycles
 SCF Done:  E(RB3LYP) =  -671.337797646     A.U. after    8 cycles
 SCF Done:  E(RB3LYP) =  -671.337798031     A.U. after    7 cycles
 Optimization completed.
    -- Stationary point found.
 Normal termination of Gaussian 16 at Thu Dec 10 15:22:35 2020.

 --------------------------------------------------------------------
 #N Geom=AllCheck Guess=TCheck SCRF=Check GenChk RB3LYP/6-31G(d) Freq
 --------------------------------------------------------------------

 Structure from the checkpoint file:  "JID_5282.chk"
 ------------------------------
 CID_65937108_JID_5282_neutraal
 ------------------------------
 Charge =  0 Multiplicity = 1

 SCF Done:  E(RB3LYP) =  -671.337798031     A.U. after    1 cycles

  Exact polarizability: 156.732  -1.524 125.262  -7.424   0.509 116.602
 Approx polarizability: 190.470  -4.658 187.200 -12.210   7.814 185.549

                      1                      2                      3
                      A                      A                      A
 Frequencies --     23.1202                46.8654                55.3590
 Red. masses --      3.8081                 3.7630                 2.9402
 Frc consts  --      0.0012                 0.0049                 0.0053
 IR Inten    --      1.3473                 2.3554                 0.9491

                      4                      5                      6
                      A                      A                      A
 Frequencies --     73.8241               123.7509               145.7716
 Red. masses --      2.4944                 2.6914                 1.4542
 Frc consts  --      0.0080                 0.0243                 0.0182
 IR Inten    --      0.1101                 0.9586                 1.1952

                      7                      8                      9
                      A                      A                      A
 Frequencies --    158.6770               166.5555               205.7989
 Red. masses --      2.6159                 2.6468                 1.9014
 Frc consts  --      0.0388                 0.0433                 0.0474
 IR Inten    --      0.7826                 4.2092                 3.7774

                     10                     11                     12
                      A                      A                      A
 Frequencies --    211.5874               229.1108               260.6292
 Red. masses --      1.3875                 1.1015                 2.5063
 Frc consts  --      0.0366                 0.0341                 0.1003
 IR Inten    --      1.5213                 0.5661                 0.8636

                     13                     14                     15
                      A                      A                      A
 Frequencies --    291.5541               315.6458               339.1034
 Red. masses --      2.5790                 3.0851                 1.8549
 Frc consts  --      0.1292                 0.1811                 0.1257
 IR Inten    --      0.5345                 8.5756                32.9115

                     16                     17                     18
                      A                      A                      A
 Frequencies --    355.8223               381.9000               402.9527
 Red. masses --      2.8647                 1.7251                 2.8359
 Frc consts  --      0.2137                 0.1482                 0.2713
 IR Inten    --      0.4072                19.6969                 0.8375

                     19                     20                     21
                      A                      A                      A
 Frequencies --    406.0464               444.2939               474.5996
 Red. masses --      2.6415                 2.6874                 2.2816
 Frc consts  --      0.2566                 0.3126                 0.3028
 IR Inten    --      4.5814                13.8669                 0.8642

                     22                     23                     24
                      A                      A                      A
 Frequencies --    493.8867               533.3390               590.7784
 Red. masses --      3.4932                 2.4332                 3.4533
 Frc consts  --      0.5020                 0.4078                 0.7101
 IR Inten    --     16.5945                 3.2679                 4.3729

                     25                     26                     27
                      A                      A                      A
 Frequencies --    632.9003               679.4724               717.8899
 Red. masses --      4.1201                 5.0211                 3.3342
 Frc consts  --      0.9724                 1.3658                 1.0124
 IR Inten    --      1.9911                 6.3630                 1.8507

                     28                     29                     30
                      A                      A                      A
 Frequencies --    734.5675               845.0623               849.1470
 Red. masses --      2.8773                 2.7658                 2.9713
 Frc consts  --      0.9147                 1.1637                 1.2623
 IR Inten    --      3.6459                20.7573                 9.7044

                     31                     32                     33
                      A                      A                      A
 Frequencies --    875.0674               898.9188               930.9438
 Red. masses --      2.1036                 1.5512                 2.4850
 Frc consts  --      0.9491                 0.7385                 1.2689
 IR Inten    --     15.4927                86.5954                 6.9455

                     34                     35                     36
                      A                      A                      A
 Frequencies --    940.9170               948.2098               961.9719
 Red. masses --      1.2523                 1.9803                 2.3702
 Frc consts  --      0.6532                 1.0490                 1.2923
 IR Inten    --      0.0733                 3.0131                 3.1778

                     37                     38                     39
                      A                      A                      A
 Frequencies --    963.6026               978.6502               999.9368
 Red. masses --      1.4724                 1.4465                 2.5676
 Frc consts  --      0.8055                 0.8162                 1.5126
 IR Inten    --      1.6150                 1.5918                 3.7781

                     40                     41                     42
                      A                      A                      A
 Frequencies --   1027.9649              1049.4947              1055.6611
 Red. masses --      1.8535                 2.3656                 2.2167
 Frc consts  --      1.1540                 1.5351                 1.4555
 IR Inten    --     30.8390                16.2438                 7.8785

                     43                     44                     45
                      A                      A                      A
 Frequencies --   1083.6859              1125.8447              1128.4059
 Red. masses --      2.6387                 1.8661                 2.0552
 Frc consts  --      1.8258                 1.3936                 1.5418
 IR Inten    --      9.1424                 7.1429                27.3848

                     46                     47                     48
                      A                      A                      A
 Frequencies --   1133.8640              1149.6339              1154.3684
 Red. masses --      2.0572                 1.4706                 1.1535
 Frc consts  --      1.5583                 1.1451                 0.9056
 IR Inten    --     33.6182                10.0031                 0.1655

                     49                     50                     51
                      A                      A                      A
 Frequencies --   1166.9756              1173.3464              1209.1857
 Red. masses --      1.9667                 1.5821                 1.6077
 Frc consts  --      1.5781                 1.2833                 1.3850
 IR Inten    --     10.5112                11.7542                10.6333

                     52                     53                     54
                      A                      A                      A
 Frequencies --   1214.9189              1232.6344              1245.6613
 Red. masses --      1.7289                 1.2690                 1.7004
 Frc consts  --      1.5035                 1.1360                 1.5545
 IR Inten    --      8.6766                 6.5358                10.2218

                     55                     56                     57
                      A                      A                      A
 Frequencies --   1266.3988              1287.6103              1296.6255
 Red. masses --      2.6934                 1.4317                 1.4179
 Frc consts  --      2.5450                 1.3985                 1.4046
 IR Inten    --     20.1225                 5.8699                 9.4389

                     58                     59                     60
                      A                      A                      A
 Frequencies --   1305.3403              1336.0268              1344.7293
 Red. masses --      2.6529                 1.9460                 1.4614
 Frc consts  --      2.6633                 2.0465                 1.5570
 IR Inten    --     47.7031                49.6157                13.3746

                     61                     62                     63
                      A                      A                      A
 Frequencies --   1355.4105              1362.2438              1384.8837
 Red. masses --      1.5090                 1.3951                 2.0530
 Frc consts  --      1.6334                 1.5253                 2.3199
 IR Inten    --      3.3012                 0.7106                 0.8985

                     64                     65                     66
                      A                      A                      A
 Frequencies --   1387.5117              1409.8865              1428.2021
 Red. masses --      1.4008                 1.6354                 1.2561
 Frc consts  --      1.5889                 1.9153                 1.5096
 IR Inten    --     14.5116                14.6823                 4.6773

                     67                     68                     69
                      A                      A                      A
 Frequencies --   1451.8645              1452.7617              1472.4405
 Red. masses --      1.3006                 1.3785                 1.7313
 Frc consts  --      1.6153                 1.7142                 2.2115
 IR Inten    --     38.1609                18.1068                55.2784

                     70                     71                     72
                      A                      A                      A
 Frequencies --   1515.5413              1516.4957              1518.0488
 Red. masses --      1.0880                 1.0516                 1.0557
 Frc consts  --      1.4723                 1.4249                 1.4334
 IR Inten    --      7.7095                 0.5297                 0.9710

                     73                     74                     75
                      A                      A                      A
 Frequencies --   1521.9716              1522.9226              1539.6140
 Red. masses --      1.0457                 1.0563                 1.1167
 Frc consts  --      1.4271                 1.4434                 1.5595
 IR Inten    --      8.7596                 5.7028                 8.6670

                     76                     77                     78
                      A                      A                      A
 Frequencies --   1542.5605              1546.8673              1553.1145
 Red. masses --      1.0623                 1.0630                 1.1023
 Frc consts  --      1.4893                 1.4986                 1.5666
 IR Inten    --      3.6692                14.1311                 5.6947

                     79                     80                     81
                      A                      A                      A
 Frequencies --   1568.2149              1697.3982              1778.0673
 Red. masses --      1.1460                 1.1001                 9.5648
 Frc consts  --      1.6605                 1.8674                17.8165
 IR Inten    --      9.6212                29.3147               297.8812

                     82                     83                     84
                      A                      A                      A
 Frequencies --   2983.3424              3013.1721              3016.5814
 Red. masses --      1.0826                 1.0639                 1.0647
 Frc consts  --      5.6771                 5.6910                 5.7082
 IR Inten    --     36.8820                19.2356                65.6882

                     85                     86                     87
                      A                      A                      A
 Frequencies --   3032.1013              3046.4513              3052.5871
 Red. masses --      1.0417                 1.0413                 1.0554
 Frc consts  --      5.6424                 5.6937                 5.7944
 IR Inten    --     69.9304                 9.7701                46.7819

                     88                     89                     90
                      A                      A                      A
 Frequencies --   3058.1890              3067.4465              3067.8759
 Red. masses --      1.0426                 1.0927                 1.0983
 Frc consts  --      5.7450                 6.0576                 6.0901
 IR Inten    --     26.6043                29.6830                63.7470

                     91                     92                     93
                      A                      A                      A
 Frequencies --   3085.6360              3086.6342              3098.8896
 Red. masses --      1.0731                 1.1003                 1.0819
 Frc consts  --      6.0196                 6.1764                 6.1216
 IR Inten    --     31.5968                30.7899                31.0070

                     94                     95                     96
                      A                      A                      A
 Frequencies --   3103.0211              3109.2268              3118.4382
 Red. masses --      1.1008                 1.1051                 1.1015
 Frc consts  --      6.2452                 6.2944                 6.3112
 IR Inten    --     34.8353                14.8048                49.8425

                     97                     98                     99
                      A                      A                      A
 Frequencies --   3132.9144              3144.0097              3156.6407
 Red. masses --      1.1006                 1.1033                 1.0983
 Frc consts  --      6.3650                 6.4253                 6.4481
 IR Inten    --     36.3107                16.0892                14.2847

                    100                    101                    102
                      A                      A                      A
 Frequencies --   3165.4890              3449.4502              3539.9474
 Red. masses --      1.0986                 1.0493                 1.0931
 Frc consts  --      6.4862                 7.3560                 8.0704
 IR Inten    --      1.6112                 5.0266                 1.1927

 - Thermochemistry -
 -------------------
 Temperature   298.150 Kelvin.  Pressure   1.00000 Atm.
 Atom     1 has atomic number  6 and mass  12.00000

 Molecular mass:   211.16846 amu.
 Principal axes and moments of inertia in atomic units:
                           1         2         3
     Eigenvalues --  1480.609724928.065325496.11875
           X            0.99996   0.00075  -0.00940
           Y           -0.00095   0.99976  -0.02206
           Z            0.00939   0.02207   0.99971
 This molecule is an asymmetric top.
 Rotational symmetry number  1.
 Warning -- assumption of classical behavior for rotation
           may cause significant error
 Rotational temperatures (Kelvin)      0.05850     0.01758     0.01576
 Rotational constants (GHZ):           1.21892     0.36622     0.32837
 Zero-point vibrational energy     847737.7 (Joules/Mol)
                                  202.61417 (Kcal/Mol)
 Warning -- explicit consideration of  24 degrees of freedom as
           vibrations may cause significant error
 Vibrational temperatures:     33.26    67.43    79.65   106.22   178.05
          (Kelvin)            209.73   228.30   239.64   296.10   304.43
                              329.64   374.99   419.48   454.14   487.89
                              511.95   549.47   579.76   584.21   639.24
                              682.84   710.59   767.36   850.00   910.60
                              977.61  1032.88  1056.88  1215.86  1221.73
                             1259.03  1293.34  1339.42  1353.77  1364.26
                             1384.06  1386.41  1408.06  1438.69  1479.01
                             1509.99  1518.86  1559.18  1619.84  1623.52
                             1631.38  1654.07  1660.88  1679.02  1688.18
                             1739.75  1748.00  1773.49  1792.23  1822.07
                             1852.58  1865.55  1878.09  1922.24  1934.77
                             1950.13  1959.97  1992.54  1996.32  2028.51
                             2054.86  2088.91  2090.20  2118.51  2180.53
                             2181.90  2184.13  2189.78  2191.15  2215.16
                             2219.40  2225.60  2234.59  2256.31  2442.18
                             2558.24  4292.36  4335.28  4340.19  4362.52
                             4383.16  4391.99  4400.05  4413.37  4413.99
                             4439.54  4440.98  4458.61  4464.56  4473.48
                             4486.74  4507.57  4523.53  4541.70  4554.43
                             4962.99  5093.19

 Zero-point correction=                           0.322886 (Hartree/Particle)
 Thermal correction to Energy=                    0.338851
 Thermal correction to Enthalpy=                  0.339795
 Thermal correction to Gibbs Free Energy=         0.279126
 Sum of electronic and zero-point Energies=           -671.014912
 Sum of electronic and thermal Energies=              -670.998947
 Sum of electronic and thermal Enthalpies=            -670.998003
 Sum of electronic and thermal Free Energies=         -671.058672

                     E (Thermal)             CV                S
                      KCal/Mol        Cal/Mol-Kelvin    Cal/Mol-Kelvin
 Total                  212.632             60.580            127.689
 Electronic               0.000              0.000              0.000
 Translational            0.889              2.981             41.946
 Rotational               0.889              2.981             32.061
 Vibrational            210.855             54.618             53.681
 Vibration     1          0.593              1.985              6.346
 Vibration     2          0.595              1.979              4.945
 Vibration     3          0.596              1.975              4.616
 Vibration     4          0.599              1.966              4.049
 Vibration     5          0.610              1.929              3.041
 Vibration     6          0.617              1.907              2.727
 Vibration     7          0.621              1.893              2.566
 Vibration     8          0.624              1.884              2.474
 Vibration     9          0.640              1.832              2.081
 Vibration    10          0.643              1.823              2.030
 Vibration    11          0.652              1.797              1.886
 Vibration    12          0.669              1.745              1.658
 Vibration    13          0.687              1.689              1.465
 Vibration    14          0.703              1.644              1.333
 Vibration    15          0.719              1.597              1.216
 Vibration    16          0.731              1.563              1.140
 Vibration    17          0.751              1.509              1.032
 Vibration    18          0.768              1.464              0.952
 Vibration    19          0.771              1.457              0.941
 Vibration    20          0.804              1.373              0.813
 Vibration    21          0.831              1.306              0.725
 Vibration    22          0.850              1.264              0.674
 Vibration    23          0.888              1.176              0.580
 Vibration    24          0.948              1.051              0.466

                           ! Non-Optimized Parameters !
 Normal termination of Gaussian 16 at Thu Dec 10 15:34:43 2020.

 ----------------------------------------------------------------------
 # B3LYP/6-311++G(d,p) empiricaldispersion=gd3bj scf=xqc pop=npa geom=c
 heck
 ----------------------------------------------------------------------

 --------------------------------------
 CID_65937108_JID_5282_Energie_neutraal
 --------------------------------------
 Structure from the checkpoint file:  "JID_5282.chk"
 Charge =  0 Multiplicity = 1

 SCF Done:  E(RB3LYP) =  -671.530472907     A.U. after   15 cycles
 Normal termination of Gaussian 16 at Thu Dec 10 15:40:01 2020.

 ----------------------------------------------------------------------
 # B3LYP/6-311++G(d,p) empiricaldispersion=gd3bj scf=xqc pop=npa geom=c
 heck
 ----------------------------------------------------------------------

 ------------------------------------
 CID_65937108_JID_5282_Energie_kation
 ------------------------------------
 Structure from the checkpoint file:  "JID_5282.chk"
 Charge =  1 Multiplicity = 2

 SCF Done:  E(UB3LYP) =  -671.250823048     A.U. after   25 cycles
 Normal termination of Gaussian 16 at Thu Dec 10 15:54:12 2020.
 Gaussian 16:  ES64L-G16RevA.03 25-Dec-2016

 ----------------------------------------------------------------------
 # B3LYP/6-311++G(d,p) empiricaldispersion=gd3bj scf=xqc pop=npa geom=c
 heck
 ----------------------------------------------------------------------

 -----------------------------------
 CID_65937108_JID_5282_Energie_anion
 -----------------------------------
 Structure from the checkpoint file:  "JID_5282.chk"
 Charge = -1 Multiplicity = 2

                         Standard orientation:
 ---------------------------------------------------------------------
 Center     Atomic      Atomic             Coordinates (Angstroms)
 Number     Number       Type             X           Y           Z
 ---------------------------------------------------------------------
      1          6           0       -3.171431   -1.599244   -0.524566
      2          6           0       -3.067826   -0.070415   -0.610779
      3          6           0       -4.174283    0.583623    0.228124
      4          6           0       -1.679040    0.474811   -0.220980
      5          6           0       -1.139318    0.030225    1.163938
      6          7           0       -0.164357   -0.873104    0.502324
      7          6           0       -0.458594   -0.294603   -0.830817
      8          6           0        1.207318   -0.858397    0.998822
      9          6           0        2.103909   -1.917142    0.331922
     10          6           0        2.915893   -1.148768   -0.730915
     11          7           0        2.873370    0.229362   -0.264273
     12          6           0        1.913471    0.474792    0.676473
     13          8           0        1.607841    1.584625    1.104039
     14          6           0        3.595825    1.288253   -0.931172
     15          7           0       -1.665935    1.926209   -0.357588
     16          1           0       -3.007114   -1.950628    0.499861
     17          1           0       -2.448324   -2.108250   -1.168119
     18          1           0       -4.173310   -1.922160   -0.828580
     19          1           0       -3.224957    0.215192   -1.664528
     20          1           0       -4.077075    0.297847    1.283109
     21          1           0       -4.119677    1.672474    0.172403
     22          1           0       -5.162456    0.254488   -0.113411
     23          1           0       -0.680870    0.863111    1.706247
     24          1           0       -1.834971   -0.496469    1.827850
     25          1           0       -0.645033   -1.044946   -1.608374
     26          1           0        0.297842    0.411153   -1.203025
     27          1           0        1.153594   -0.990618    2.083215
     28          1           0        2.784316   -2.349287    1.071650
     29          1           0        1.507508   -2.725219   -0.096504
     30          1           0        3.952685   -1.497654   -0.805587
     31          1           0        2.468018   -1.224994   -1.733039
     32          1           0        4.676778    1.110876   -0.883636
     33          1           0        3.302018    1.362160   -1.987239
     34          1           0        3.354417    2.224135   -0.423940
     35          1           0       -0.747912    2.280909   -0.091052
     36          1           0       -1.815287    2.184796   -1.333137
 ---------------------------------------------------------------------

 SCF Done:  E(UB3LYP) =  -671.519210787     A.U. after   31 cycles

 The electronic state is 2-A.
 Alpha  occ. eigenvalues --  -18.99222 -14.24706 -14.20995 -14.19733 -10.16663
 Alpha  occ. eigenvalues --  -10.11247 -10.11152 -10.10805 -10.09925 -10.09117
 Alpha  occ. eigenvalues --  -10.09024 -10.08398 -10.07768 -10.06530 -10.06418
 Alpha  occ. eigenvalues --   -0.94232  -0.85719  -0.84796  -0.78691  -0.70740
 Alpha  occ. eigenvalues --   -0.69433  -0.63335  -0.60744  -0.59408  -0.58354
 Alpha  occ. eigenvalues --   -0.56785  -0.51985  -0.49029  -0.44397  -0.43489
 Alpha  occ. eigenvalues --   -0.41999  -0.40575  -0.39984  -0.38010  -0.37431
 Alpha  occ. eigenvalues --   -0.36501  -0.35000  -0.33763  -0.33146  -0.32863
 Alpha  occ. eigenvalues --   -0.31348  -0.30591  -0.30044  -0.29589  -0.29052
 Alpha  occ. eigenvalues --   -0.28197  -0.27978  -0.27437  -0.26367  -0.25406
 Alpha  occ. eigenvalues --   -0.24472  -0.24260  -0.22483  -0.21358  -0.17679
 Alpha  occ. eigenvalues --   -0.15097  -0.14780  -0.11655   0.04197
 Alpha virt. eigenvalues --    0.06106   0.06877   0.07781   0.08017   0.08324
 Alpha virt. eigenvalues --    0.08919   0.09667   0.10203   0.10541   0.10943
 Alpha virt. eigenvalues --    0.11238   0.11707   0.11919   0.12290   0.13253

  Beta  occ. eigenvalues --  -18.99217 -14.24708 -14.20994 -14.19722 -10.16656
  Beta  occ. eigenvalues --  -10.11247 -10.11150 -10.10760 -10.09881 -10.09111
  Beta  occ. eigenvalues --  -10.09000 -10.08388 -10.07748 -10.06516 -10.06411
  Beta  occ. eigenvalues --   -0.94226  -0.85709  -0.84785  -0.78673  -0.70716
  Beta  occ. eigenvalues --   -0.69410  -0.63294  -0.60683  -0.59381  -0.58322
  Beta  occ. eigenvalues --   -0.56742  -0.51948  -0.48990  -0.44348  -0.43449
  Beta  occ. eigenvalues --   -0.41975  -0.40547  -0.39924  -0.37981  -0.37400
  Beta  occ. eigenvalues --   -0.36478  -0.34977  -0.33730  -0.33126  -0.32831
  Beta  occ. eigenvalues --   -0.31323  -0.30569  -0.29995  -0.29565  -0.29040
  Beta  occ. eigenvalues --   -0.28168  -0.27952  -0.27402  -0.26341  -0.25383
  Beta  occ. eigenvalues --   -0.24450  -0.24229  -0.22461  -0.21340  -0.17671
  Beta  occ. eigenvalues --   -0.15075  -0.14761  -0.11643
  Beta virt. eigenvalues --    0.06224   0.07123   0.07397   0.08208   0.08513
  Beta virt. eigenvalues --    0.08847   0.09307   0.09955   0.10469   0.10911
  Beta virt. eigenvalues --    0.11257   0.11451   0.12014   0.12043   0.12549

 Mulliken charges and spin densities:
               1          2
     1  C    0.038702  -0.534061
     2  C   -0.487093   0.452762
     3  C   -0.069988  -0.544030
     4  C    1.786692  -1.312942
     5  C   -0.403869  -0.228149
     6  N    0.330976  -0.021761
     7  C   -1.258881   0.390729
     8  C   -0.924841   0.855755
     9  C    0.281497  -0.620154
    10  C    0.947300  -1.320169
    11  N   -0.064028   0.192225
    12  C   -0.155793  -0.100196
    13  O   -0.350950   0.002023
    14  C    1.055557  -1.289996
    15  N   -0.330709   0.030200
    16  H    0.027086   0.118399
    17  H    0.059739   0.074704
    18  H   -0.022444   0.174647
    19  H   -0.246149   0.410569
    20  H    0.067942   0.061829
    21  H    0.159536   0.002107
    22  H    0.034506   0.092918
    23  H    0.246323  -0.054562
    24  H    0.129158   0.025764
    25  H   -0.531614   0.705343
    26  H    0.495515  -0.318530
    27  H   -0.072196   0.294623
    28  H   -0.228126   0.400067
    29  H    0.043394   0.121972
    30  H   -0.862113   1.059613
    31  H   -0.184526   0.367611
    32  H   -0.416852   0.587428
    33  H   -0.421592   0.581491
    34  H    0.073269   0.089407
    35  H    0.211187   0.057218
    36  H    0.043385   0.195143
 Sum of Mulliken charges =  -1.00000   1.00000

 Dipole moment (field-independent basis, Debye):
    X=             -6.2419    Y=              0.6074    Z=              3.5241  Tot=              7.1937
 Quadrupole moment (field-independent basis, Debye-Ang):
   XX=           -180.7699   YY=           -134.7430   ZZ=           -133.1735
   XY=              5.9008   XZ=              5.6749   YZ=             -5.0953

 Summary of Natural Population Analysis:

                                       Natural Population
                Natural  -----------------------------------------------
    Atom  No    Charge         Core      Valence    Rydberg      Total
 -----------------------------------------------------------------------
      C    1   -0.28632      0.99965     2.27976    0.00690     3.28632
      C    2   -0.11154      0.99956     2.10098    0.01100     3.11154
      C    3   -0.28552      0.99965     2.28076    0.00511     3.28552
      C    4    0.05334      0.99953     1.93151    0.01562     2.94666
      C    5   -0.08319      0.99959     2.07426    0.00935     3.08319
      N    6   -0.28033      0.99973     2.76792    0.01267     3.78033
      C    7   -0.08905      0.99959     2.07705    0.01242     3.08905
      C    8   -0.03615      0.99954     2.02283    0.01378     3.03615
      C    9   -0.19736      0.99962     2.18812    0.00961     3.19736
      C   10   -0.07677      0.99962     2.06660    0.01054     3.07677
      N   11   -0.24904      0.99963     2.73735    0.01206     3.74904
      C   12    0.33998      0.99960     1.63575    0.02467     2.66002
      O   13   -0.33627      0.99987     3.33109    0.00531     4.33627
      C   14   -0.17959      0.99963     2.17122    0.00874     3.17959
      N   15   -0.42559      0.99974     2.91595    0.00990     3.92559
      H   16    0.09864      0.00000     0.40043    0.00093     0.40136
      H   17    0.10386      0.00000     0.39520    0.00094     0.39614
      H   18    0.09671      0.00000     0.40254    0.00074     0.40329
      H   19    0.09326      0.00000     0.40483    0.00190     0.40674
      H   20    0.09459      0.00000     0.40452    0.00089     0.40541
      H   21    0.10943      0.00000     0.38955    0.00102     0.39057
      H   22    0.09439      0.00000     0.40479    0.00082     0.40561
      H   23    0.10356      0.00000     0.39513    0.00130     0.39644
      H   24    0.08943      0.00000     0.40943    0.00114     0.41057
      H   25    0.09484      0.00000     0.40326    0.00191     0.40516
      H   26    0.09022      0.00000     0.40734    0.00244     0.40978
      H   27    0.10534      0.00000     0.39352    0.00114     0.39466
      H   28    0.10299      0.00000     0.39565    0.00136     0.39701
      H   29    0.10837      0.00000     0.38995    0.00167     0.39163
      H   30    0.10082      0.00000     0.39507    0.00412     0.39918
      H   31    0.09340      0.00000     0.40394    0.00266     0.40660
      H   32    0.09874      0.00000     0.39953    0.00173     0.40126
      H   33    0.09699      0.00000     0.40126    0.00175     0.40301
      H   34    0.11064      0.00000     0.38816    0.00119     0.38936
      H   35    0.18407      0.00000     0.31396    0.00197     0.31593
      H   36    0.17311      0.00000     0.32526    0.00163     0.32689
 =======================================================================
   * Total *    0.00000     14.99456    42.80449    0.20095    58.00000

 Normal termination of Gaussian 16 at Thu Dec 10 16:12:34 2020.
