 Gaussian 16, Revision A.03,

 -----------------------------------------------------------
 # opt freq B3LYP/6-31G(d) empiricaldispersion=gd3bj scf=xqc
 -----------------------------------------------------------

 ------------------------------
 CID_67764881_JID_1055_neutraal
 ------------------------------
 Symbolic Z-matrix:
 Charge =  0 Multiplicity = 1

 SCF Done:  E(RB3LYP) =  -519.123841000     A.U. after   14 cycles
 SCF Done:  E(RB3LYP) =  -519.127069309     A.U. after   12 cycles
 SCF Done:  E(RB3LYP) =  -519.127369283     A.U. after   12 cycles
 SCF Done:  E(RB3LYP) =  -519.127769809     A.U. after   11 cycles
 SCF Done:  E(RB3LYP) =  -519.127942840     A.U. after   11 cycles
 SCF Done:  E(RB3LYP) =  -519.128035856     A.U. after   11 cycles
 SCF Done:  E(RB3LYP) =  -519.128055576     A.U. after    9 cycles
 SCF Done:  E(RB3LYP) =  -519.128057250     A.U. after    8 cycles
 SCF Done:  E(RB3LYP) =  -519.128057541     A.U. after    7 cycles
 SCF Done:  E(RB3LYP) =  -519.128057655     A.U. after    7 cycles
 Optimization completed.
    -- Stationary point found.
 Normal termination of Gaussian 16 at Tue Dec  8 19:11:02 2020.

 --------------------------------------------------------------------
 #N Geom=AllCheck Guess=TCheck SCRF=Check GenChk RB3LYP/6-31G(d) Freq
 --------------------------------------------------------------------

 Structure from the checkpoint file:  "JID_1055.chk"
 ------------------------------
 CID_67764881_JID_1055_neutraal
 ------------------------------
 Charge =  0 Multiplicity = 1

 SCF Done:  E(RB3LYP) =  -519.128057655     A.U. after    1 cycles

  Exact polarizability: 105.093  -0.351  98.537  -2.238  -5.524  76.262
 Approx polarizability: 136.061  10.576 140.085  -5.494 -11.910 118.310

                      1                      2                      3
                      A                      A                      A
 Frequencies --     58.9111                78.1813                97.3107
 Red. masses --      2.9467                 4.1607                 3.5772
 Frc consts  --      0.0060                 0.0150                 0.0200
 IR Inten    --      0.3831                 2.8710                 2.4067

                      4                      5                      6
                      A                      A                      A
 Frequencies --    145.6021               195.5876               231.5324
 Red. masses --      2.7180                 2.8670                 1.1314
 Frc consts  --      0.0339                 0.0646                 0.0357
 IR Inten    --      1.5495                 3.3377                 0.7855

                      7                      8                      9
                      A                      A                      A
 Frequencies --    254.7394               286.7851               307.8936
 Red. masses --      1.9280                 1.4129                 2.1349
 Frc consts  --      0.0737                 0.0685                 0.1192
 IR Inten    --      3.4234                27.1104                40.5080

                     10                     11                     12
                      A                      A                      A
 Frequencies --    337.1165               369.5505               409.4783
 Red. masses --      2.4681                 4.6167                 3.0236
 Frc consts  --      0.1653                 0.3715                 0.2987
 IR Inten    --     32.3457                 4.1361                20.7078

                     13                     14                     15
                      A                      A                      A
 Frequencies --    441.2333               455.0392               504.6996
 Red. masses --      3.4304                 2.3667                 3.6831
 Frc consts  --      0.3935                 0.2887                 0.5528
 IR Inten    --      4.0273                 9.2698                 0.9386

                     16                     17                     18
                      A                      A                      A
 Frequencies --    512.1498               596.1580               655.5088
 Red. masses --      2.1557                 3.8154                 2.9194
 Frc consts  --      0.3331                 0.7989                 0.7391
 IR Inten    --      5.9703                 3.1339                 7.3583

                     19                     20                     21
                      A                      A                      A
 Frequencies --    742.4407               803.6842               817.1089
 Red. masses --      3.2486                 1.2455                 1.8628
 Frc consts  --      1.0550                 0.4740                 0.7328
 IR Inten    --      1.0267                 6.5430                 3.8300

                     22                     23                     24
                      A                      A                      A
 Frequencies --    882.3366               923.2763               940.3110
 Red. masses --      1.6681                 2.5765                 2.4025
 Frc consts  --      0.7651                 1.2940                 1.2516
 IR Inten    --      0.4267                 5.2940                 8.5019

                     25                     26                     27
                      A                      A                      A
 Frequencies --    957.6127               984.3979              1050.1408
 Red. masses --      2.0390                 1.7167                 2.7626
 Frc consts  --      1.1016                 0.9801                 1.7950
 IR Inten    --      6.8282                13.6287                 8.3325

                     28                     29                     30
                      A                      A                      A
 Frequencies --   1076.6549              1081.5912              1110.8824
 Red. masses --      3.0220                 1.9894                 2.0473
 Frc consts  --      2.0640                 1.3712                 1.4886
 IR Inten    --     97.7352                25.8879                 8.3270

                     31                     32                     33
                      A                      A                      A
 Frequencies --   1127.6924              1135.6489              1174.8426
 Red. masses --      2.1471                 2.5118                 1.8646
 Frc consts  --      1.6087                 1.9087                 1.5163
 IR Inten    --     18.3248                16.5394                 6.3903

                     34                     35                     36
                      A                      A                      A
 Frequencies --   1182.9023              1236.9355              1250.6379
 Red. masses --      1.3400                 1.3244                 2.4337
 Frc consts  --      1.1047                 1.1939                 2.2428
 IR Inten    --     10.7265                 4.5250                47.6526

                     37                     38                     39
                      A                      A                      A
 Frequencies --   1275.7993              1277.3846              1314.3415
 Red. masses --      1.3098                 1.2658                 1.4858
 Frc consts  --      1.2561                 1.2169                 1.5122
 IR Inten    --     27.0607                 0.1809                48.4136

                     40                     41                     42
                      A                      A                      A
 Frequencies --   1339.3977              1363.3006              1374.1220
 Red. masses --      1.2670                 1.3253                 1.4588
 Frc consts  --      1.3392                 1.4513                 1.6229
 IR Inten    --     31.0188                18.1650                14.4669

                     43                     44                     45
                      A                      A                      A
 Frequencies --   1398.5661              1405.2343              1408.6543
 Red. masses --      1.4221                 1.3803                 1.3623
 Frc consts  --      1.6388                 1.6059                 1.5926
 IR Inten    --      0.2088                25.0294                37.9758

                     46                     47                     48
                      A                      A                      A
 Frequencies --   1413.2468              1435.9425              1450.3429
 Red. masses --      1.4940                 1.2827                 1.3154
 Frc consts  --      1.7580                 1.5582                 1.6302
 IR Inten    --     15.4234                19.0727                23.9185

                     49                     50                     51
                      A                      A                      A
 Frequencies --   1476.9279              1502.8841              1514.4354
 Red. masses --      1.5883                 1.0841                 1.1088
 Frc consts  --      2.0412                 1.4427                 1.4983
 IR Inten    --     65.7381                 5.9383                 1.7870

                     52                     53                     54
                      A                      A                      A
 Frequencies --   1514.8224              1520.2669              1532.5159
 Red. masses --      1.1201                 1.0584                 1.1434
 Frc consts  --      1.5144                 1.4413                 1.5822
 IR Inten    --      9.0877                 4.0089                20.0447

                     55                     56                     57
                      A                      A                      A
 Frequencies --   1536.1578              1551.5483              1740.8983
 Red. masses --      1.0723                 1.1408                 9.5838
 Frc consts  --      1.4908                 1.6180                17.1133
 IR Inten    --      7.6441                21.0417               270.6908

                     58                     59                     60
                      A                      A                      A
 Frequencies --   2986.2741              3016.8838              3044.7808
 Red. masses --      1.0724                 1.0688                 1.0716
 Frc consts  --      5.6348                 5.7314                 5.8530
 IR Inten    --     46.4913                40.1926                 2.6982

                     61                     62                     63
                      A                      A                      A
 Frequencies --   3051.8882              3055.0486              3063.1068
 Red. masses --      1.0374                 1.0627                 1.0698
 Frc consts  --      5.6930                 5.8436                 5.9139
 IR Inten    --     21.3317                31.8151                35.6196

                     64                     65                     66
                      A                      A                      A
 Frequencies --   3075.3609              3087.0502              3097.8552
 Red. masses --      1.0904                 1.0928                 1.0943
 Frc consts  --      6.0763                 6.1358                 6.1873
 IR Inten    --      5.0491                24.8128                57.7998

                     67                     68                     69
                      A                      A                      A
 Frequencies --   3102.7117              3111.6970              3118.9879
 Red. masses --      1.0945                 1.1013                 1.0925
 Frc consts  --      6.2080                 6.2829                 6.2618
 IR Inten    --     23.2336                28.8235                12.0514

                     70                     71                     72
                      A                      A                      A
 Frequencies --   3143.7952              3155.3567              3725.1739
 Red. masses --      1.0971                 1.1004                 1.0659
 Frc consts  --      6.3888                 6.4549                 8.7146
 IR Inten    --     17.0808                15.6156                 9.6103

 - Thermochemistry -
 -------------------
 Temperature   298.150 Kelvin.  Pressure   1.00000 Atm.
 Atom     1 has atomic number  6 and mass  12.00000

 Molecular mass:   157.11028 amu.
 Principal axes and moments of inertia in atomic units:
                           1         2         3
     Eigenvalues --  1221.881411978.384442869.73439
           X            0.99572  -0.09223  -0.00650
           Y            0.09220   0.99573  -0.00537
           Z            0.00697   0.00475   0.99996
 This molecule is an asymmetric top.
 Rotational symmetry number  1.
 Warning -- assumption of classical behavior for rotation
           may cause significant error
 Rotational temperatures (Kelvin)      0.07089     0.04378     0.03018
 Rotational constants (GHZ):           1.47702     0.91223     0.62889
 Zero-point vibrational energy     607699.0 (Joules/Mol)
                                  145.24354 (Kcal/Mol)
 Warning -- explicit consideration of  17 degrees of freedom as
           vibrations may cause significant error
 Vibrational temperatures:     84.76   112.49   140.01   209.49   281.41
          (Kelvin)            333.12   366.51   412.62   442.99   485.04
                              531.70   589.15   634.84   654.70   726.15
                              736.87   857.74   943.13  1068.21  1156.32
                             1175.64  1269.49  1328.39  1352.90  1377.79
                             1416.33  1510.92  1549.07  1556.17  1598.31
                             1622.50  1633.95  1690.34  1701.93  1779.67
                             1799.39  1835.59  1837.87  1891.04  1927.09
                             1961.49  1977.06  2012.22  2021.82  2026.74
                             2033.35  2066.00  2086.72  2124.97  2162.32
                             2178.93  2179.49  2187.33  2204.95  2210.19
                             2232.33  2504.76  4296.58  4340.62  4380.76
                             4390.99  4395.53  4407.13  4424.76  4441.58
                             4457.12  4464.11  4477.04  4487.53  4523.22
                             4539.85  5359.69

 Zero-point correction=                           0.231460 (Hartree/Particle)
 Thermal correction to Energy=                    0.242804
 Thermal correction to Enthalpy=                  0.243748
 Thermal correction to Gibbs Free Energy=         0.194461
 Sum of electronic and zero-point Energies=           -518.896597
 Sum of electronic and thermal Energies=              -518.885254
 Sum of electronic and thermal Enthalpies=            -518.884309
 Sum of electronic and thermal Free Energies=         -518.933597

                     E (Thermal)             CV                S
                      KCal/Mol        Cal/Mol-Kelvin    Cal/Mol-Kelvin
 Total                  152.362             43.037            103.734
 Electronic               0.000              0.000              0.000
 Translational            0.889              2.981             41.065
 Rotational               0.889              2.981             30.318
 Vibrational            150.584             37.076             32.351
 Vibration     1          0.596              1.974              4.493
 Vibration     2          0.599              1.964              3.936
 Vibration     3          0.603              1.951              3.507
 Vibration     4          0.617              1.907              2.729
 Vibration     5          0.636              1.846              2.174
 Vibration     6          0.653              1.793              1.867
 Vibration     7          0.665              1.755              1.698
 Vibration     8          0.684              1.698              1.493
 Vibration     9          0.698              1.659              1.374
 Vibration    10          0.718              1.601              1.226
 Vibration    11          0.742              1.535              1.082
 Vibration    12          0.774              1.450              0.928
 Vibration    13          0.801              1.380              0.823
 Vibration    14          0.813              1.350              0.781
 Vibration    15          0.860              1.240              0.646
 Vibration    16          0.867              1.223              0.628
 Vibration    17          0.954              1.040              0.456

                           ! Non-Optimized Parameters !
 Normal termination of Gaussian 16 at Tue Dec  8 19:16:19 2020.

 ----------------------------------------------------------------------
 # B3LYP/6-311++G(d,p) empiricaldispersion=gd3bj scf=xqc pop=npa geom=c
 heck
 ----------------------------------------------------------------------

 --------------------------------------
 CID_67764881_JID_1055_Energie_neutraal
 --------------------------------------
 Structure from the checkpoint file:  "JID_1055.chk"
 Charge =  0 Multiplicity = 1

 SCF Done:  E(RB3LYP) =  -519.287365103     A.U. after   14 cycles
 Normal termination of Gaussian 16 at Tue Dec  8 19:18:22 2020.

 ----------------------------------------------------------------------
 # B3LYP/6-311++G(d,p) empiricaldispersion=gd3bj scf=xqc pop=npa geom=c
 heck
 ----------------------------------------------------------------------

 ------------------------------------
 CID_67764881_JID_1055_Energie_kation
 ------------------------------------
 Structure from the checkpoint file:  "JID_1055.chk"
 Charge =  1 Multiplicity = 2

 SCF Done:  E(UB3LYP) =  -518.968988818     A.U. after   23 cycles
 Normal termination of Gaussian 16 at Tue Dec  8 19:22:40 2020.
 Gaussian 16:  ES64L-G16RevA.03 25-Dec-2016

 ----------------------------------------------------------------------
 # B3LYP/6-311++G(d,p) empiricaldispersion=gd3bj scf=xqc pop=npa geom=c
 heck
 ----------------------------------------------------------------------

 -----------------------------------
 CID_67764881_JID_1055_Energie_anion
 -----------------------------------
 Structure from the checkpoint file:  "JID_1055.chk"
 Charge = -1 Multiplicity = 2

                         Standard orientation:
 ---------------------------------------------------------------------
 Center     Atomic      Atomic             Coordinates (Angstroms)
 Number     Number       Type             X           Y           Z
 ---------------------------------------------------------------------
      1          6           0        2.779310   -1.390848   -0.491526
      2          6           0        2.175918   -0.660703    0.708086
      3          7           0        0.854962   -0.088812    0.414114
      4          6           0       -0.269586   -1.007639    0.601190
      5          6           0       -1.450028   -0.839524   -0.367047
      6          6           0       -2.403455    0.282677    0.048012
      7          6           0       -1.666716    1.547543    0.502754
      8          6           0       -0.474064    1.904869   -0.390849
      9          6           0        0.844987    1.171103   -0.136055
     10          8           0        1.898479    1.745578   -0.405270
     11          8           0       -2.142117   -2.076988   -0.514212
     12          1           0        2.124953   -2.197957   -0.841682
     13          1           0        3.746764   -1.831920   -0.226068
     14          1           0        2.932968   -0.684094   -1.311247
     15          1           0        2.058121   -1.338785    1.561155
     16          1           0        2.828322    0.159210    1.010859
     17          1           0        0.113882   -2.017034    0.427172
     18          1           0       -0.628642   -0.975273    1.643394
     19          1           0       -1.036885   -0.637228   -1.360588
     20          1           0       -3.036810   -0.085181    0.869481
     21          1           0       -3.073817    0.502688   -0.790962
     22          1           0       -1.314974    1.427580    1.535051
     23          1           0       -2.370157    2.387309    0.518265
     24          1           0       -0.208509    2.958631   -0.272217
     25          1           0       -0.735589    1.782666   -1.450977
     26          1           0       -2.653448   -2.222510    0.298032
 ---------------------------------------------------------------------

 SCF Done:  E(UB3LYP) =  -519.275386325     A.U. after   30 cycles

 The electronic state is 2-A.
 Alpha  occ. eigenvalues --  -19.01882 -18.97906 -14.24008 -10.16624 -10.12305
 Alpha  occ. eigenvalues --  -10.10211 -10.10166 -10.07635 -10.06884 -10.06614
 Alpha  occ. eigenvalues --  -10.06220  -0.93394  -0.92274  -0.83174  -0.71076
 Alpha  occ. eigenvalues --   -0.65835  -0.65070  -0.59369  -0.55831  -0.52653
 Alpha  occ. eigenvalues --   -0.48528  -0.44549  -0.39864  -0.39648  -0.37939
 Alpha  occ. eigenvalues --   -0.36747  -0.34307  -0.33681  -0.33414  -0.31872
 Alpha  occ. eigenvalues --   -0.30904  -0.29486  -0.28850  -0.28671  -0.27007
 Alpha  occ. eigenvalues --   -0.25620  -0.24762  -0.24093  -0.23230  -0.21389
 Alpha  occ. eigenvalues --   -0.17929  -0.15170  -0.14029   0.04659
 Alpha virt. eigenvalues --    0.06833   0.07456   0.08339   0.09550   0.09964
 Alpha virt. eigenvalues --    0.10255   0.10537   0.11673   0.12352   0.12498
 Alpha virt. eigenvalues --    0.13017   0.13250   0.13763   0.14475   0.15043

  Beta  occ. eigenvalues --  -19.01836 -18.97891 -14.24009 -10.16612 -10.12303
  Beta  occ. eigenvalues --  -10.10198 -10.10126 -10.07630 -10.06854 -10.06598
  Beta  occ. eigenvalues --  -10.06174  -0.93368  -0.92190  -0.83155  -0.71032
  Beta  occ. eigenvalues --   -0.65800  -0.65022  -0.59312  -0.55768  -0.52602
  Beta  occ. eigenvalues --   -0.48430  -0.44500  -0.39811  -0.39574  -0.37906
  Beta  occ. eigenvalues --   -0.36702  -0.34258  -0.33628  -0.33374  -0.31835
  Beta  occ. eigenvalues --   -0.30858  -0.29451  -0.28810  -0.28611  -0.26975
  Beta  occ. eigenvalues --   -0.25593  -0.24717  -0.24031  -0.23184  -0.21329
  Beta  occ. eigenvalues --   -0.17884  -0.15154  -0.13993
  Beta virt. eigenvalues --    0.07082   0.07782   0.08579   0.08970   0.09970
  Beta virt. eigenvalues --    0.10483   0.10696   0.10894   0.11849   0.12692
  Beta virt. eigenvalues --    0.12886   0.13458   0.13816   0.14041   0.14738

 Mulliken charges and spin densities:
               1          2
     1  C    0.151086  -0.544266
     2  C   -0.190964  -0.031541
     3  N   -0.014281   0.179511
     4  C    1.042981  -1.629060
     5  C   -0.928107   0.764498
     6  C    1.799338  -2.130528
     7  C   -0.390325   0.217210
     8  C    0.284081  -0.516718
     9  C   -0.141515  -0.044635
    10  O   -0.360965   0.010376
    11  O   -0.242579   0.021978
    12  H   -0.002278   0.128107
    13  H   -0.130650   0.261911
    14  H    0.138405   0.035725
    15  H   -0.338267   0.501785
    16  H    0.125016   0.049957
    17  H    0.153004   0.022422
    18  H   -0.752593   0.983589
    19  H    0.163416   0.043626
    20  H   -0.610189   0.763488
    21  H   -0.252807   0.421247
    22  H    0.085615   0.071049
    23  H   -0.691835   0.892157
    24  H    0.095976   0.096006
    25  H    0.101704   0.074138
    26  H   -0.093268   0.357968
 Sum of Mulliken charges =  -1.00000   1.00000

 Dipole moment (field-independent basis, Debye):
    X=              4.4996    Y=              1.2700    Z=             -3.4452  Tot=              5.8076
 Quadrupole moment (field-independent basis, Debye-Ang):
   XX=           -130.4586   YY=           -113.4468   ZZ=           -100.1566
   XY=             -3.8158   XZ=              7.0091   YZ=              5.9079

 Summary of Natural Population Analysis:

                                       Natural Population
                Natural  -----------------------------------------------
    Atom  No    Charge         Core      Valence    Rydberg      Total
 -----------------------------------------------------------------------
      C    1   -0.29295      0.99966     2.28806    0.00523     3.29295
      C    2   -0.08544      0.99962     2.07474    0.01107     3.08544
      N    3   -0.25741      0.99964     2.74677    0.01100     3.75741
      C    4   -0.09565      0.99957     2.08335    0.01273     3.09565
      C    5    0.05971      0.99954     1.92709    0.01366     2.94029
      C    6   -0.19907      0.99961     2.18900    0.01047     3.19907
      C    7   -0.19592      0.99963     2.18703    0.00926     3.19592
      C    8   -0.23215      0.99959     2.22308    0.00948     3.23215
      C    9    0.34962      0.99964     1.62882    0.02192     2.65038
      O   10   -0.33582      0.99988     3.33069    0.00525     4.33582
      O   11   -0.36938      0.99990     3.36292    0.00656     4.36938
      H   12    0.09717      0.00000     0.40198    0.00085     0.40283
      H   13    0.09788      0.00000     0.40128    0.00084     0.40212
      H   14    0.10480      0.00000     0.39433    0.00087     0.39520
      H   15    0.09463      0.00000     0.40406    0.00131     0.40537
      H   16    0.10794      0.00000     0.39090    0.00115     0.39206
      H   17    0.10510      0.00000     0.39310    0.00180     0.39490
      H   18    0.09889      0.00000     0.39766    0.00345     0.40111
      H   19    0.08564      0.00000     0.41238    0.00198     0.41436
      H   20    0.10491      0.00000     0.38992    0.00517     0.39509
      H   21    0.10047      0.00000     0.39820    0.00133     0.39953
      H   22    0.09990      0.00000     0.39841    0.00169     0.40010
      H   23    0.10498      0.00000     0.39341    0.00161     0.39502
      H   24    0.11339      0.00000     0.38557    0.00104     0.38661
      H   25    0.10589      0.00000     0.39295    0.00115     0.39411
      H   26    0.23287      0.00000     0.26090    0.00623     0.26713
 =======================================================================
   * Total *    0.00000     10.99627    31.85662    0.14712    43.00000

 Normal termination of Gaussian 16 at Tue Dec  8 19:28:38 2020.
