 Gaussian 16, Revision A.03,

 -----------------------------------------------------------
 # opt freq B3LYP/6-31G(d) empiricaldispersion=gd3bj scf=xqc
 -----------------------------------------------------------

 ------------------------------
 CID_81633560_JID_6309_neutraal
 ------------------------------
 Symbolic Z-matrix:
 Charge =  0 Multiplicity = 1

 SCF Done:  E(RB3LYP) =  -1052.48088950     A.U. after   15 cycles
 SCF Done:  E(RB3LYP) =  -1052.48508945     A.U. after   13 cycles
 SCF Done:  E(RB3LYP) =  -1052.48579783     A.U. after   13 cycles
 SCF Done:  E(RB3LYP) =  -1052.48603093     A.U. after   12 cycles
 SCF Done:  E(RB3LYP) =  -1052.48615204     A.U. after   11 cycles
 SCF Done:  E(RB3LYP) =  -1052.48620455     A.U. after   11 cycles
 SCF Done:  E(RB3LYP) =  -1052.48621824     A.U. after   10 cycles
 SCF Done:  E(RB3LYP) =  -1052.48622025     A.U. after    9 cycles
 SCF Done:  E(RB3LYP) =  -1052.48622118     A.U. after    8 cycles
 SCF Done:  E(RB3LYP) =  -1052.48622146     A.U. after    8 cycles
 SCF Done:  E(RB3LYP) =  -1052.48702927     A.U. after   11 cycles
 SCF Done:  E(RB3LYP) =  -1052.48702597     A.U. after   11 cycles
 SCF Done:  E(RB3LYP) =  -1052.48703665     A.U. after   10 cycles
 SCF Done:  E(RB3LYP) =  -1052.48703724     A.U. after    9 cycles
 SCF Done:  E(RB3LYP) =  -1052.48703718     A.U. after    8 cycles
 SCF Done:  E(RB3LYP) =  -1052.48703769     A.U. after    8 cycles
 Optimization completed.
    -- Stationary point found.
 Normal termination of Gaussian 16 at Thu Dec 10 22:23:00 2020.

 --------------------------------------------------------------------
 #N Geom=AllCheck Guess=TCheck SCRF=Check GenChk RB3LYP/6-31G(d) Freq
 --------------------------------------------------------------------

 Structure from the checkpoint file:  "JID_6309.chk"
 ------------------------------
 CID_81633560_JID_6309_neutraal
 ------------------------------
 Charge =  0 Multiplicity = 1

 SCF Done:  E(RB3LYP) =  -1052.48703769     A.U. after    1 cycles

  Exact polarizability: 234.139   1.740 147.905   4.028  -0.226  90.202
 Approx polarizability: 305.418   2.815 295.884   5.327  -3.594 141.176

                      1                      2                      3
                      A                      A                      A
 Frequencies --     20.5629                40.5146                58.8454
 Red. masses --      3.5818                 4.2650                 4.5060
 Frc consts  --      0.0009                 0.0041                 0.0092
 IR Inten    --      0.6397                 0.1327                 0.7047

                      4                      5                      6
                      A                      A                      A
 Frequencies --     86.6691               104.8340               151.7717
 Red. masses --      7.8306                 5.0745                 5.0697
 Frc consts  --      0.0347                 0.0329                 0.0688
 IR Inten    --      0.4305                 0.8294                 1.5900

                      7                      8                      9
                      A                      A                      A
 Frequencies --    169.6511               221.9351               244.1608
 Red. masses --      5.2281                 2.4349                 4.0853
 Frc consts  --      0.0887                 0.0707                 0.1435
 IR Inten    --      2.3523                 0.4155                 6.9438

                     10                     11                     12
                      A                      A                      A
 Frequencies --    249.0165               251.4824               286.4896
 Red. masses --      1.9513                 1.9925                 1.1223
 Frc consts  --      0.0713                 0.0742                 0.0543
 IR Inten    --      1.1559                 1.2060                 0.0798

                     13                     14                     15
                      A                      A                      A
 Frequencies --    313.3495               323.4628               334.4292
 Red. masses --      1.0651                 2.9236                 3.1467
 Frc consts  --      0.0616                 0.1802                 0.2074
 IR Inten    --      0.0770                 2.0157                 0.2878

                     16                     17                     18
                      A                      A                      A
 Frequencies --    357.6400               397.8971               421.8081
 Red. masses --      4.2177                 3.1481                 4.5782
 Frc consts  --      0.3179                 0.2937                 0.4799
 IR Inten    --      0.3456                 0.9053                 2.5286

                     19                     20                     21
                      A                      A                      A
 Frequencies --    448.4792               534.8039               539.8970
 Red. masses --      3.4247                 4.7550                 3.9876
 Frc consts  --      0.4058                 0.8013                 0.6848
 IR Inten    --      1.0140                 1.3981                 2.5202

                     22                     23                     24
                      A                      A                      A
 Frequencies --    596.7286               620.1398               631.2434
 Red. masses --      3.6389                 4.0327                 3.8542
 Frc consts  --      0.7634                 0.9137                 0.9048
 IR Inten    --      0.6839                11.5303                 4.7090

                     25                     26                     27
                      A                      A                      A
 Frequencies --    639.2275               705.4280               741.5353
 Red. masses --      4.2869                 8.9980                 1.3382
 Frc consts  --      1.0321                 2.6382                 0.4336
 IR Inten    --      3.1015                 4.6055                 4.7851

                     28                     29                     30
                      A                      A                      A
 Frequencies --    749.7472               759.4384               814.9653
 Red. masses --      6.0880                 2.7611                 2.2803
 Frc consts  --      2.0163                 0.9382                 0.8923
 IR Inten    --      9.2771                53.1648                50.3617

                     31                     32                     33
                      A                      A                      A
 Frequencies --    825.2848               831.0667               842.0219
 Red. masses --      2.4152                 1.3587                 3.6161
 Frc consts  --      0.9692                 0.5529                 1.5106
 IR Inten    --     40.9645                13.6449                31.7452

                     34                     35                     36
                      A                      A                      A
 Frequencies --    875.4367               895.4145               913.6951
 Red. masses --      1.4133                 5.8495                 1.4036
 Frc consts  --      0.6382                 2.7632                 0.6904
 IR Inten    --      9.1354                27.7137                 0.1643

                     37                     38                     39
                      A                      A                      A
 Frequencies --    942.0954               953.3235               978.7579
 Red. masses --      1.7815                 1.7196                 1.1981
 Frc consts  --      0.9316                 0.9208                 0.6762
 IR Inten    --      0.7350                 0.5997                 0.0223

                     40                     41                     42
                      A                      A                      A
 Frequencies --    996.1943              1035.7339              1050.2544
 Red. masses --      3.5404                 1.9010                 2.2173
 Frc consts  --      2.0701                 1.2015                 1.4410
 IR Inten    --      7.3999                13.9020                26.3992

                     43                     44                     45
                      A                      A                      A
 Frequencies --   1063.8975              1076.6552              1105.9997
 Red. masses --      1.3850                 1.6158                 1.9092
 Frc consts  --      0.9237                 1.1035                 1.3760
 IR Inten    --      0.0324                 8.0457                13.9655

                     46                     47                     48
                      A                      A                      A
 Frequencies --   1118.5706              1190.4667              1218.3458
 Red. masses --      1.6009                 4.5841                 4.1391
 Frc consts  --      1.1801                 3.8277                 3.6199
 IR Inten    --     19.5268                27.0667               123.4757

                     49                     50                     51
                      A                      A                      A
 Frequencies --   1235.7432              1241.5424              1262.8430
 Red. masses --      2.0023                 2.6582                 1.5352
 Frc consts  --      1.8015                 2.4141                 1.4425
 IR Inten    --      8.8905                 3.1479                23.3944

                     52                     53                     54
                      A                      A                      A
 Frequencies --   1273.0344              1295.9635              1356.2947
 Red. masses --      1.4485                 2.7762                 3.0874
 Frc consts  --      1.3831                 2.7471                 3.3462
 IR Inten    --      0.1734                72.3333               139.3705

                     55                     56                     57
                      A                      A                      A
 Frequencies --   1371.0771              1420.9457              1427.1391
 Red. masses --      3.3160                 5.8222                 1.2363
 Frc consts  --      3.6727                 6.9261                 1.4835
 IR Inten    --      2.2841                18.3705                 8.2626

                     58                     59                     60
                      A                      A                      A
 Frequencies --   1427.4846              1457.3137              1509.5467
 Red. masses --      1.2123                 1.2422                 4.4037
 Frc consts  --      1.4554                 1.5543                 5.9124
 IR Inten    --      5.3844                 1.2885               146.3903

                     61                     62                     63
                      A                      A                      A
 Frequencies --   1510.5059              1515.0963              1520.1909
 Red. masses --      1.0518                 1.0455                 1.0832
 Frc consts  --      1.4139                 1.4141                 1.4749
 IR Inten    --      0.5473                 0.0867                 7.2279

                     64                     65                     66
                      A                      A                      A
 Frequencies --   1532.9298              1534.8085              1550.6916
 Red. masses --      1.0544                 1.0498                 1.1139
 Frc consts  --      1.4598                 1.4570                 1.5781
 IR Inten    --      9.0787                 6.0447                19.1824

                     67                     68                     69
                      A                      A                      A
 Frequencies --   1554.3607              1591.9758              1616.3395
 Red. masses --      3.9593                 5.2355                 5.6764
 Frc consts  --      5.6360                 7.8178                 8.7375
 IR Inten    --     90.0717                17.0426                35.7730

                     70                     71                     72
                      A                      A                      A
 Frequencies --   1718.1223              3048.2375              3049.3348
 Red. masses --     13.0318                 1.0345                 1.0343
 Frc consts  --     22.6654                 5.6633                 5.6664
 IR Inten    --    202.6455                21.0490                21.2179

                     73                     74                     75
                      A                      A                      A
 Frequencies --   3056.1726              3117.6634              3119.4706
 Red. masses --      1.0356                 1.1026                 1.1029
 Frc consts  --      5.6990                 6.3145                 6.3233
 IR Inten    --     24.8640                 1.1152                 6.7943

                     76                     77                     78
                      A                      A                      A
 Frequencies --   3123.1124              3126.4495              3127.7299
 Red. masses --      1.1036                 1.1018                 1.1029
 Frc consts  --      6.3419                 6.3452                 6.3569
 IR Inten    --      9.5297                88.4089                35.4665

                     79                     80                     81
                      A                      A                      A
 Frequencies --   3129.6987              3231.9481              3246.3331
 Red. masses --      1.1026                 1.0888                 1.0961
 Frc consts  --      6.3634                 6.7011                 6.8059
 IR Inten    --     27.3635                 8.6542                 4.2064

                     82                     83                     84
                      A                      A                      A
 Frequencies --   3288.9836              3309.2072              3313.4082
 Red. masses --      1.0903                 1.0983                 1.1066
 Frc consts  --      6.9493                 7.0864                 7.1581
 IR Inten    --      0.8217                 0.5161                 1.3493

 - Thermochemistry -
 -------------------
 Temperature   298.150 Kelvin.  Pressure   1.00000 Atm.
 Atom     1 has atomic number  6 and mass  12.00000

 Molecular mass:   234.07145 amu.
 Principal axes and moments of inertia in atomic units:
                           1         2         3
     Eigenvalues --  1289.368308291.182399068.21874
           X            0.99998   0.00512   0.00199
           Y           -0.00512   0.99999  -0.00023
           Z           -0.00199   0.00022   1.00000
 This molecule is an asymmetric top.
 Rotational symmetry number  1.
 Warning -- assumption of classical behavior for rotation
           may cause significant error
 Rotational temperatures (Kelvin)      0.06718     0.01045     0.00955
 Rotational constants (GHZ):           1.39971     0.21767     0.19902
 Zero-point vibrational energy     633668.3 (Joules/Mol)
                                  151.45036 (Kcal/Mol)
 Warning -- explicit consideration of  23 degrees of freedom as
           vibrations may cause significant error
 Vibrational temperatures:     29.59    58.29    84.67   124.70   150.83
          (Kelvin)            218.37   244.09   319.32   351.29   358.28
                              361.83   412.19   450.84   465.39   481.17
                              514.56   572.49   606.89   645.26   769.46
                              776.79   858.56   892.24   908.22   919.71
                             1014.95  1066.90  1078.72  1092.66  1172.55
                             1187.40  1195.72  1211.48  1259.56  1288.30
                             1314.60  1355.47  1371.62  1408.21  1433.30
                             1490.19  1511.08  1530.71  1549.07  1591.29
                             1609.37  1712.82  1752.93  1777.96  1786.30
                             1816.95  1831.61  1864.60  1951.41  1972.67
                             2044.42  2053.33  2053.83  2096.75  2171.90
                             2173.28  2179.89  2187.22  2205.54  2208.25
                             2231.10  2236.38  2290.50  2325.55  2471.99
                             4385.73  4387.31  4397.15  4485.62  4488.22
                             4493.46  4498.26  4500.11  4502.94  4650.05
                             4670.75  4732.11  4761.21  4767.26

 Zero-point correction=                           0.241352 (Hartree/Particle)
 Thermal correction to Energy=                    0.256663
 Thermal correction to Enthalpy=                  0.257607
 Thermal correction to Gibbs Free Energy=         0.197579
 Sum of electronic and zero-point Energies=          -1052.245686
 Sum of electronic and thermal Energies=             -1052.230375
 Sum of electronic and thermal Enthalpies=           -1052.229431
 Sum of electronic and thermal Free Energies=        -1052.289458

                     E (Thermal)             CV                S
                      KCal/Mol        Cal/Mol-Kelvin    Cal/Mol-Kelvin
 Total                  161.058             58.367            126.338
 Electronic               0.000              0.000              0.000
 Translational            0.889              2.981             42.253
 Rotational               0.889              2.981             32.938
 Vibrational            159.281             52.405             51.147
 Vibration     1          0.593              1.986              6.579
 Vibration     2          0.594              1.981              5.234
 Vibration     3          0.596              1.974              4.496
 Vibration     4          0.601              1.958              3.734
 Vibration     5          0.605              1.945              3.362
 Vibration     6          0.619              1.901              2.650
 Vibration     7          0.625              1.880              2.439
 Vibration     8          0.648              1.808              1.943
 Vibration     9          0.659              1.772              1.772
 Vibration    10          0.662              1.764              1.738
 Vibration    11          0.663              1.760              1.720
 Vibration    12          0.684              1.699              1.495
 Vibration    13          0.701              1.648              1.345
 Vibration    14          0.708              1.628              1.293
 Vibration    15          0.716              1.607              1.239
 Vibration    16          0.733              1.560              1.132
 Vibration    17          0.764              1.475              0.970
 Vibration    18          0.784              1.423              0.886
 Vibration    19          0.807              1.364              0.800
 Vibration    20          0.890              1.173              0.577
 Vibration    21          0.895              1.162              0.566
 Vibration    22          0.955              1.039              0.455
 Vibration    23          0.980              0.989              0.416

 Optimization completed.
    -- Stationary point found.
 Normal termination of Gaussian 16 at Thu Dec 10 22:32:24 2020.

 ----------------------------------------------------------------------
 # B3LYP/6-311++G(d,p) empiricaldispersion=gd3bj scf=xqc pop=npa geom=c
 heck
 ----------------------------------------------------------------------

 --------------------------------------
 CID_81633560_JID_6309_Energie_neutraal
 --------------------------------------
 Structure from the checkpoint file:  "JID_6309.chk"
 Charge =  0 Multiplicity = 1

 SCF Done:  E(RB3LYP) =  -1052.69067812     A.U. after   17 cycles
 Normal termination of Gaussian 16 at Thu Dec 10 22:37:50 2020.

 ----------------------------------------------------------------------
 # B3LYP/6-311++G(d,p) empiricaldispersion=gd3bj scf=xqc pop=npa geom=c
 heck
 ----------------------------------------------------------------------

 ------------------------------------
 CID_81633560_JID_6309_Energie_kation
 ------------------------------------
 Structure from the checkpoint file:  "JID_6309.chk"
 Charge =  1 Multiplicity = 2

 SCF Done:  E(UB3LYP) =  -1052.38677818     A.U. after   30 cycles
 Normal termination of Gaussian 16 at Thu Dec 10 22:51:50 2020.
 Gaussian 16:  ES64L-G16RevA.03 25-Dec-2016

 ----------------------------------------------------------------------
 # B3LYP/6-311++G(d,p) empiricaldispersion=gd3bj scf=xqc pop=npa geom=c
 heck
 ----------------------------------------------------------------------

 -----------------------------------
 CID_81633560_JID_6309_Energie_anion
 -----------------------------------
 Structure from the checkpoint file:  "JID_6309.chk"
 Charge = -1 Multiplicity = 2

                         Standard orientation:
 ---------------------------------------------------------------------
 Center     Atomic      Atomic             Coordinates (Angstroms)
 Number     Number       Type             X           Y           Z
 ---------------------------------------------------------------------
      1          6           0       -4.184906   -1.562223    0.296178
      2          6           0       -3.548089   -0.203926   -0.042441
      3          6           0       -3.913168    0.174329   -1.494723
      4          6           0       -4.105121    0.866601    0.921225
      5          6           0       -2.039669   -0.285885    0.099598
      6          6           0       -1.264576   -1.365373    0.461100
      7          6           0        0.126553   -1.082379    0.480357
      8          6           0        0.419119    0.216625    0.125093
      9         16           0       -1.042318    1.113966   -0.207024
     10          6           0        1.700476    0.933634    0.066729
     11          8           0        1.737147    2.162946    0.055649
     12          6           0        2.953974    0.152739    0.010464
     13          6           0        3.172151   -1.121869   -0.443588
     14          8           0        4.493566   -1.421842   -0.402679
     15          6           0        5.141370   -0.315377    0.089065
     16          6           0        4.253844    0.676676    0.345261
     17          1           0       -5.272872   -1.495351    0.191458
     18          1           0       -3.963666   -1.861984    1.326071
     19          1           0       -3.829778   -2.349520   -0.377312
     20          1           0       -5.002203    0.216750   -1.610868
     21          1           0       -3.504837    1.153052   -1.766756
     22          1           0       -3.518754   -0.564081   -2.200665
     23          1           0       -3.847862    0.628919    1.958703
     24          1           0       -3.701856    1.858524    0.692522
     25          1           0       -5.196800    0.917206    0.838110
     26          1           0       -1.676431   -2.334768    0.713310
     27          1           0        0.881356   -1.797203    0.784014
     28          1           0        2.528762   -1.881021   -0.858442
     29          1           0        6.211314   -0.411341    0.186870
     30          1           0        4.453272    1.667091    0.725707
 ---------------------------------------------------------------------

 SCF Done:  E(UB3LYP) =  -1052.70976799     A.U. after   27 cycles

 The electronic state is 2-A.
 Alpha  occ. eigenvalues --  -88.71463 -19.06356 -18.91057 -10.10100 -10.08552
 Alpha  occ. eigenvalues --  -10.08388 -10.06562 -10.06282 -10.05723 -10.05689
 Alpha  occ. eigenvalues --  -10.04750 -10.04724 -10.03734 -10.03718 -10.03087
 Alpha  occ. eigenvalues --  -10.01770  -7.80125  -5.76415  -5.76055  -5.75734
 Alpha  occ. eigenvalues --   -0.98838  -0.85369  -0.74137  -0.70112  -0.67624
 Alpha  occ. eigenvalues --   -0.62705  -0.59736  -0.58491  -0.58318  -0.57705
 Alpha  occ. eigenvalues --   -0.50815  -0.46715  -0.45230  -0.44053  -0.42023
 Alpha  occ. eigenvalues --   -0.38790  -0.37892  -0.34685  -0.34081  -0.33194
 Alpha  occ. eigenvalues --   -0.33020  -0.32576  -0.30000  -0.29508  -0.29495
 Alpha  occ. eigenvalues --   -0.27760  -0.27294  -0.26820  -0.26262  -0.25187
 Alpha  occ. eigenvalues --   -0.24779  -0.23696  -0.23166  -0.22123  -0.21499
 Alpha  occ. eigenvalues --   -0.20369  -0.18797  -0.15088  -0.11275  -0.10929
 Alpha  occ. eigenvalues --   -0.09182  -0.08357   0.03925
 Alpha virt. eigenvalues --    0.06991   0.08558   0.09056   0.09599   0.09969
 Alpha virt. eigenvalues --    0.10995   0.11260   0.11647   0.11785   0.12128
 Alpha virt. eigenvalues --    0.12693   0.13322   0.13911   0.14484   0.14759

  Beta  occ. eigenvalues --  -88.71417 -19.06292 -18.90444 -10.10141 -10.08575
  Beta  occ. eigenvalues --  -10.08159 -10.06282 -10.06216 -10.05701 -10.05668
  Beta  occ. eigenvalues --  -10.04688 -10.04402 -10.03774 -10.03703 -10.03199
  Beta  occ. eigenvalues --  -10.01522  -7.80084  -5.76393  -5.76034  -5.75588
  Beta  occ. eigenvalues --   -0.98700  -0.84273  -0.73869  -0.69981  -0.67528
  Beta  occ. eigenvalues --   -0.62474  -0.59654  -0.58440  -0.57868  -0.57477
  Beta  occ. eigenvalues --   -0.50219  -0.46624  -0.45002  -0.43758  -0.41804
  Beta  occ. eigenvalues --   -0.38602  -0.37763  -0.34477  -0.33994  -0.32959
  Beta  occ. eigenvalues --   -0.32758  -0.32478  -0.29799  -0.29420  -0.29392
  Beta  occ. eigenvalues --   -0.27663  -0.27025  -0.26804  -0.25988  -0.24873
  Beta  occ. eigenvalues --   -0.24031  -0.23106  -0.22697  -0.21977  -0.21281
  Beta  occ. eigenvalues --   -0.18975  -0.18564  -0.14447  -0.10396  -0.10068
  Beta  occ. eigenvalues --   -0.08004  -0.07263
  Beta virt. eigenvalues --    0.06959   0.08537   0.09019   0.09565   0.09931
  Beta virt. eigenvalues --    0.10086   0.11037   0.11692   0.11776   0.11858
  Beta virt. eigenvalues --    0.12134   0.12703   0.13489   0.13956   0.14729

 Mulliken charges and spin densities:
               1          2
     1  C   -0.551533   0.003836
     2  C    0.396993  -0.024829
     3  C   -0.648335  -0.012165
     4  C   -0.676537   0.006580
     5  C    0.193398   0.228999
     6  C    0.340992  -0.063515
     7  C   -0.303041   0.204727
     8  C    0.984313  -0.026349
     9  S   -0.615169   0.089080
    10  C   -2.043328   0.214746
    11  O   -0.388949   0.224151
    12  C    0.794241  -0.036290
    13  C   -0.520659   0.168641
    14  O   -0.022128   0.007441
    15  C   -0.284739  -0.026189
    16  C    0.473196   0.026790
    17  H    0.136691   0.000369
    18  H    0.123751  -0.001384
    19  H    0.124343   0.000386
    20  H    0.109900   0.009702
    21  H    0.142282  -0.004425
    22  H    0.143720  -0.001166
    23  H    0.147465   0.000908
    24  H    0.133285   0.003405
    25  H    0.117812  -0.000150
    26  H    0.113610   0.006009
    27  H    0.108160   0.000241
    28  H    0.153389   0.001464
    29  H    0.145663   0.001763
    30  H    0.171214  -0.002774
 Sum of Mulliken charges =  -1.00000   1.00000

 Dipole moment (field-independent basis, Debye):
    X=             -4.1007    Y=             -3.7259    Z=              0.1045  Tot=              5.5416
 Quadrupole moment (field-independent basis, Debye-Ang):
   XX=           -137.1785   YY=           -123.9681   ZZ=           -112.9413
   XY=             -2.3659   XZ=              2.0426   YZ=              0.3034

 Summary of Natural Population Analysis:

                                       Natural Population
                Natural  -----------------------------------------------
    Atom  No    Charge         Core      Valence    Rydberg      Total
 -----------------------------------------------------------------------
      C    1   -0.28115      0.99964     2.27574    0.00577     3.28115
      C    2   -0.06140      0.99954     2.05394    0.00792     3.06140
      C    3   -0.27655      0.99964     2.27104    0.00588     3.27655
      C    4   -0.27652      0.99964     2.27099    0.00589     3.27652
      C    5   -0.03414      0.99946     2.02025    0.01443     3.03414
      C    6   -0.16919      0.99948     2.16047    0.00924     3.16919
      C    7   -0.07481      0.99950     2.06575    0.00956     3.07481
      C    8   -0.12408      0.99947     2.11285    0.01176     3.12408
      S    9    0.22089      4.99939     2.75885    0.02087     7.77911
      C   10    0.27594      0.99953     1.70433    0.02021     2.72406
      O   11   -0.24332      0.99989     3.23778    0.00565     4.24332
      C   12   -0.09905      0.99950     2.08928    0.01026     3.09905
      C   13    0.11194      0.99949     1.87485    0.01372     2.88806
      O   14   -0.23699      0.99987     3.22771    0.00941     4.23699
      C   15    0.02848      0.99952     1.95762    0.01437     2.97152
      C   16   -0.12639      0.99954     2.11766    0.00920     3.12639
      H   17    0.09261      0.00000     0.40658    0.00081     0.40739
      H   18    0.10005      0.00000     0.39897    0.00098     0.39995
      H   19    0.09996      0.00000     0.39905    0.00099     0.40004
      H   20    0.08857      0.00000     0.41048    0.00094     0.41143
      H   21    0.10300      0.00000     0.39608    0.00092     0.39700
      H   22    0.10050      0.00000     0.39872    0.00078     0.39950
      H   23    0.10073      0.00000     0.39850    0.00077     0.39927
      H   24    0.10330      0.00000     0.39579    0.00091     0.39670
      H   25    0.08835      0.00000     0.41071    0.00094     0.41165
      H   26    0.09646      0.00000     0.40231    0.00123     0.40354
      H   27    0.10013      0.00000     0.39889    0.00099     0.39987
      H   28    0.09345      0.00000     0.40541    0.00114     0.40655
      H   29    0.08724      0.00000     0.41179    0.00098     0.41276
      H   30    0.11202      0.00000     0.38690    0.00109     0.38798
 =======================================================================
   * Total *    0.00001     19.99310    41.81928    0.18761    61.99999

 Normal termination of Gaussian 16 at Thu Dec 10 23:04:13 2020.
