 Gaussian 16, Revision A.03,

 -----------------------------------------------------------
 # opt freq B3LYP/6-31G(d) empiricaldispersion=gd3bj scf=xqc
 -----------------------------------------------------------

 -------------------------------
 CID_135542481_JID_6166_neutraal
 -------------------------------
 Symbolic Z-matrix:
 Charge =  0 Multiplicity = 1

 SCF Done:  E(RB3LYP) =  -703.432368724     A.U. after   15 cycles
 SCF Done:  E(RB3LYP) =  -703.435057233     A.U. after   12 cycles
 SCF Done:  E(RB3LYP) =  -703.435293645     A.U. after   11 cycles
 SCF Done:  E(RB3LYP) =  -703.435321967     A.U. after    9 cycles
 SCF Done:  E(RB3LYP) =  -703.435325461     A.U. after    8 cycles
 SCF Done:  E(RB3LYP) =  -703.435325668     A.U. after    8 cycles
 SCF Done:  E(RB3LYP) =  -703.435325889     A.U. after    7 cycles
 Optimization completed.
    -- Stationary point found.
 Normal termination of Gaussian 16 at Thu Dec 10 21:08:09 2020.

 --------------------------------------------------------------------
 #N Geom=AllCheck Guess=TCheck SCRF=Check GenChk RB3LYP/6-31G(d) Freq
 --------------------------------------------------------------------

 Structure from the checkpoint file:  "JID_6166.chk"
 -------------------------------
 CID_135542481_JID_6166_neutraal
 -------------------------------
 Charge =  0 Multiplicity = 1

 SCF Done:  E(RB3LYP) =  -703.435325889     A.U. after    1 cycles

  Exact polarizability: 209.460  -2.491 178.223  -0.005   0.003  60.522
 Approx polarizability: 376.041  -0.046 288.717  -0.017   0.008  96.397

                      1                      2                      3
                      A                      A                      A
 Frequencies --     61.6329               103.0081               122.0692
 Red. masses --      3.8695                 3.9361                 5.1000
 Frc consts  --      0.0087                 0.0246                 0.0448
 IR Inten    --      2.0616                 0.6953                 0.0085

                      4                      5                      6
                      A                      A                      A
 Frequencies --    197.2561               201.4862               225.5768
 Red. masses --      2.1757                 5.0991                 1.3128
 Frc consts  --      0.0499                 0.1220                 0.0394
 IR Inten    --      1.3244                 0.5296                 1.5690

                      7                      8                      9
                      A                      A                      A
 Frequencies --    272.7769               273.0945               301.5866
 Red. masses --      1.8607                 2.9985                 1.6992
 Frc consts  --      0.0816                 0.1318                 0.0911
 IR Inten    --      0.4139                 1.3028                 0.0754

                     10                     11                     12
                      A                      A                      A
 Frequencies --    309.8792               324.0640               363.0289
 Red. masses --      5.0197                 3.7257                 1.1092
 Frc consts  --      0.2840                 0.2305                 0.0861
 IR Inten    --      6.9784                 0.1562               116.8916

                     13                     14                     15
                      A                      A                      A
 Frequencies --    385.3678               404.9275               451.1260
 Red. masses --      4.4087                 5.3962                 6.1113
 Frc consts  --      0.3858                 0.5213                 0.7328
 IR Inten    --      0.1076                14.4603                 2.7448

                     16                     17                     18
                      A                      A                      A
 Frequencies --    458.0076               477.4384               489.0864
 Red. masses --      3.0873                 4.9912                 5.0771
 Frc consts  --      0.3816                 0.6703                 0.7155
 IR Inten    --      1.6843                 0.2409                 0.8586

                     19                     20                     21
                      A                      A                      A
 Frequencies --    574.6863               602.9150               628.5554
 Red. masses --      3.8303                 3.9358                 3.6132
 Frc consts  --      0.7453                 0.8429                 0.8411
 IR Inten    --      0.3671                 2.5916                 2.0108

                     22                     23                     24
                      A                      A                      A
 Frequencies --    671.0078               675.5040               716.0745
 Red. masses --      4.7869                 7.4282                 6.2177
 Frc consts  --      1.2699                 1.9970                 1.8784
 IR Inten    --      3.0715                 0.8932                 0.2177

                     25                     26                     27
                      A                      A                      A
 Frequencies --    716.8068               719.3311               753.0672
 Red. masses --      5.3112                 5.1292                 4.0817
 Frc consts  --      1.6078                 1.5637                 1.3638
 IR Inten    --      0.0593                 4.0680                 6.6018

                     28                     29                     30
                      A                      A                      A
 Frequencies --    809.6523               853.8880               859.1894
 Red. masses --      1.6433                 5.4719                 1.5086
 Frc consts  --      0.6347                 2.3507                 0.6561
 IR Inten    --     19.2186                 1.6640                19.7065

                     31                     32                     33
                      A                      A                      A
 Frequencies --    883.8206               918.5118               936.5661
 Red. masses --      1.3371                 6.7592                 1.2965
 Frc consts  --      0.6154                 3.3598                 0.6700
 IR Inten    --     18.4660                32.6763                 1.9937

                     34                     35                     36
                      A                      A                      A
 Frequencies --   1020.8897              1034.5663              1046.1465
 Red. masses --      1.8914                 1.6144                 3.8371
 Frc consts  --      1.1614                 1.0181                 2.4742
 IR Inten    --     10.1126                 2.1739                 0.9998

                     37                     38                     39
                      A                      A                      A
 Frequencies --   1079.1723              1079.3808              1084.0649
 Red. masses --      1.4567                 1.4973                 5.1271
 Frc consts  --      0.9995                 1.0278                 3.5500
 IR Inten    --      2.8147                 0.5544                 2.6082

                     40                     41                     42
                      A                      A                      A
 Frequencies --   1100.6707              1119.0420              1189.1698
 Red. masses --      3.5990                 3.2800                 1.3754
 Frc consts  --      2.5689                 2.4200                 1.1459
 IR Inten    --      3.9802                 6.5868                13.2349

                     43                     44                     45
                      A                      A                      A
 Frequencies --   1220.7603              1243.0503              1283.1436
 Red. masses --      1.3745                 1.8351                 2.5562
 Frc consts  --      1.2069                 1.6706                 2.4797
 IR Inten    --    203.6043                 2.3277                30.2998

                     46                     47                     48
                      A                      A                      A
 Frequencies --   1294.2682              1347.3447              1366.6653
 Red. masses --      2.4342                 3.6297                 3.3806
 Frc consts  --      2.4024                 3.8822                 3.7202
 IR Inten    --      6.6123                 2.9041                60.4401

                     49                     50                     51
                      A                      A                      A
 Frequencies --   1375.1493              1401.8226              1432.5624
 Red. masses --      3.1322                 6.4594                 1.6621
 Frc consts  --      3.4898                 7.4788                 2.0097
 IR Inten    --     89.4061                16.4118                19.2618

                     52                     53                     54
                      A                      A                      A
 Frequencies --   1437.9751              1450.9903              1500.4886
 Red. masses --      1.4101                 2.1525                 3.4327
 Frc consts  --      1.7180                 2.6701                 4.5536
 IR Inten    --     11.5118                40.2576                20.7450

                     55                     56                     57
                      A                      A                      A
 Frequencies --   1512.7727              1516.2679              1516.2935
 Red. masses --      1.0441                 1.1062                 1.3086
 Frc consts  --      1.4078                 1.4985                 1.7726
 IR Inten    --      7.9396                 8.1530                 3.6100

                     58                     59                     60
                      A                      A                      A
 Frequencies --   1517.0528              1539.7930              1561.8505
 Red. masses --      1.4005                 2.2296                 3.3363
 Frc consts  --      1.8990                 3.1146                 4.7950
 IR Inten    --     21.8675                13.7625                 6.8631

                     61                     62                     63
                      A                      A                      A
 Frequencies --   1592.9889              1621.1256              1685.0872
 Red. masses --      5.3400                 5.8388                 6.3985
 Frc consts  --      7.9839                 9.0408                10.7046
 IR Inten    --     40.6413                97.0103               104.6848

                     64                     65                     66
                      A                      A                      A
 Frequencies --   1691.8894              3042.2011              3049.5155
 Red. masses --      6.9075                 1.0389                 1.0391
 Frc consts  --     11.6498                 5.6650                 5.6932
 IR Inten    --     59.6171                30.6677                16.1108

                     67                     68                     69
                      A                      A                      A
 Frequencies --   3092.0836              3103.9088              3139.7971
 Red. masses --      1.1006                 1.1021                 1.0993
 Frc consts  --      6.1999                 6.2559                 6.3854
 IR Inten    --     17.7620                12.8476                16.0630

                     70                     71                     72
                      A                      A                      A
 Frequencies --   3159.3892              3181.0105              3226.5322
 Red. masses --      1.0981                 1.0899                 1.0914
 Frc consts  --      6.4581                 6.4977                 6.6942
 IR Inten    --      4.3691                17.2098                 7.4320

                     73                     74                     75
                      A                      A                      A
 Frequencies --   3229.6442              3294.5727              3754.0976
 Red. masses --      1.0918                 1.0893                 1.0660
 Frc consts  --      6.7098                 6.9661                 8.8517
 IR Inten    --      3.7928                 1.2383                72.8321

 - Thermochemistry -
 -------------------
 Temperature   298.150 Kelvin.  Pressure   1.00000 Atm.
 Atom     1 has atomic number  6 and mass  12.00000

 Molecular mass:   213.09021 amu.
 Principal axes and moments of inertia in atomic units:
                           1         2         3
     Eigenvalues --  2435.981543451.364645864.77757
           X            0.99903  -0.04412   0.00000
           Y            0.04412   0.99903  -0.00000
           Z           -0.00000   0.00000   1.00000
 This molecule is an asymmetric top.
 Rotational symmetry number  1.
 Warning -- assumption of classical behavior for rotation
           may cause significant error
 Rotational temperatures (Kelvin)      0.03556     0.02510     0.01477
 Rotational constants (GHZ):           0.74087     0.52291     0.30773
 Zero-point vibrational energy     561504.3 (Joules/Mol)
                                  134.20275 (Kcal/Mol)
 Warning -- explicit consideration of  20 degrees of freedom as
           vibrations may cause significant error
 Vibrational temperatures:     88.68   148.21   175.63   283.81   289.89
          (Kelvin)            324.55   392.47   392.92   433.92   445.85
                              466.26   522.32   554.46   582.60   649.07
                              658.97   686.93   703.69   826.85   867.46
                              904.35   965.43   971.90  1030.27  1031.33
                             1034.96  1083.50  1164.91  1228.55  1236.18
                             1271.62  1321.53  1347.51  1468.83  1488.51
                             1505.17  1552.69  1552.99  1559.73  1583.62
                             1610.05  1710.95  1756.40  1788.47  1846.16
                             1862.16  1938.53  1966.33  1978.53  2016.91
                             2061.14  2068.93  2087.65  2158.87  2176.54
                             2181.57  2181.61  2182.70  2215.42  2247.15
                             2291.96  2332.44  2424.46  2434.25  4377.05
                             4387.57  4448.82  4465.83  4517.47  4545.66
                             4576.76  4642.26  4646.74  4740.16  5401.31

 Zero-point correction=                           0.213866 (Hartree/Particle)
 Thermal correction to Energy=                    0.226557
 Thermal correction to Enthalpy=                  0.227501
 Thermal correction to Gibbs Free Energy=         0.175435
 Sum of electronic and zero-point Energies=           -703.221460
 Sum of electronic and thermal Energies=              -703.208769
 Sum of electronic and thermal Enthalpies=            -703.207825
 Sum of electronic and thermal Free Energies=         -703.259891

                     E (Thermal)             CV                S
                      KCal/Mol        Cal/Mol-Kelvin    Cal/Mol-Kelvin
 Total                  142.166             51.409            109.581
 Electronic               0.000              0.000              0.000
 Translational            0.889              2.981             41.973
 Rotational               0.889              2.981             32.267
 Vibrational            140.389             45.447             35.342
 Vibration     1          0.597              1.973              4.404
 Vibration     2          0.605              1.947              3.397
 Vibration     3          0.610              1.931              3.067
 Vibration     4          0.637              1.844              2.159
 Vibration     5          0.638              1.838              2.119
 Vibration     6          0.650              1.802              1.914
 Vibration     7          0.676              1.724              1.579
 Vibration     8          0.676              1.723              1.577
 Vibration     9          0.694              1.671              1.408
 Vibration    10          0.699              1.655              1.363
 Vibration    11          0.709              1.627              1.290
 Vibration    12          0.737              1.548              1.109
 Vibration    13          0.754              1.501              1.018
 Vibration    14          0.770              1.459              0.945
 Vibration    15          0.810              1.358              0.792
 Vibration    16          0.816              1.343              0.772
 Vibration    17          0.834              1.300              0.717
 Vibration    18          0.845              1.274              0.686
 Vibration    19          0.931              1.086              0.495
 Vibration    20          0.961              1.026              0.445

 Optimization completed.
    -- Stationary point found.
 Normal termination of Gaussian 16 at Thu Dec 10 21:17:20 2020.

 ----------------------------------------------------------------------
 # B3LYP/6-311++G(d,p) empiricaldispersion=gd3bj scf=xqc pop=npa geom=c
 heck
 ----------------------------------------------------------------------

 ---------------------------------------
 CID_135542481_JID_6166_Energie_neutraal
 ---------------------------------------
 Structure from the checkpoint file:  "JID_6166.chk"
 Charge =  0 Multiplicity = 1

 SCF Done:  E(RB3LYP) =  -703.621074559     A.U. after   15 cycles
 Normal termination of Gaussian 16 at Thu Dec 10 21:21:10 2020.

 ----------------------------------------------------------------------
 # B3LYP/6-311++G(d,p) empiricaldispersion=gd3bj scf=xqc pop=npa geom=c
 heck
 ----------------------------------------------------------------------

 -------------------------------------
 CID_135542481_JID_6166_Energie_kation
 -------------------------------------
 Structure from the checkpoint file:  "JID_6166.chk"
 Charge =  1 Multiplicity = 2

 SCF Done:  E(UB3LYP) =  -703.341317377     A.U. after   22 cycles
 Normal termination of Gaussian 16 at Thu Dec 10 21:29:16 2020.
 Gaussian 16:  ES64L-G16RevA.03 25-Dec-2016

 ----------------------------------------------------------------------
 # B3LYP/6-311++G(d,p) empiricaldispersion=gd3bj scf=xqc pop=npa geom=c
 heck
 ----------------------------------------------------------------------

 ------------------------------------
 CID_135542481_JID_6166_Energie_anion
 ------------------------------------
 Structure from the checkpoint file:  "JID_6166.chk"
 Charge = -1 Multiplicity = 2

                         Standard orientation:
 ---------------------------------------------------------------------
 Center     Atomic      Atomic             Coordinates (Angstroms)
 Number     Number       Type             X           Y           Z
 ---------------------------------------------------------------------
      1          6           0       -0.435031    3.628358    0.000198
      2          6           0        0.121463    2.229687    0.000061
      3          6           0        1.463876    2.013514   -0.000199
      4          6           0        1.982908    0.688221   -0.000248
      5          7           0        3.237284    0.278784   -0.000329
      6          7           0        3.212286   -1.093116   -0.000147
      7          6           0        1.962241   -1.506353    0.000076
      8          7           0        1.114716   -0.404919    0.000037
      9          6           0       -0.277390   -0.244508    0.000019
     10          6           0       -0.781062    1.088741    0.000138
     11          6           0       -2.179680    1.248112    0.000201
     12          6           0       -3.045930    0.168386    0.000094
     13          6           0       -2.523235   -1.132026   -0.000132
     14          6           0       -1.147239   -1.338075   -0.000178
     15          8           0       -3.313571   -2.243139   -0.000330
     16          6           0        1.583967   -2.946750    0.000562
     17          1           0       -1.059535    3.813865   -0.882629
     18          1           0        0.373807    4.363357    0.000240
     19          1           0       -1.059487    3.813714    0.883087
     20          1           0        2.179961    2.827337   -0.000325
     21          1           0       -2.594243    2.249575    0.000311
     22          1           0       -4.121792    0.326740    0.000150
     23          1           0       -0.787370   -2.354858   -0.000433
     24          1           0       -4.244203   -1.970703   -0.000322
     25          1           0        1.004371   -3.225565    0.888271
     26          1           0        1.005148   -3.226417   -0.887399
     27          1           0        2.512583   -3.521030    0.001216
 ---------------------------------------------------------------------

 SCF Done:  E(UB3LYP) =  -703.625378169     A.U. after   33 cycles
 SCF Done:  E(UB3LYP) =  -703.625378169     a.u. after    1 cycles

 The electronic state is 2-A.
 Alpha  occ. eigenvalues --  -19.03815 -14.24098 -14.18240 -14.16188 -10.09598
 Alpha  occ. eigenvalues --  -10.09579 -10.09577 -10.08205 -10.06574 -10.04470
 Alpha  occ. eigenvalues --  -10.04125 -10.03847 -10.03145 -10.03043 -10.02470
 Alpha  occ. eigenvalues --  -10.01604  -0.94861  -0.91795  -0.79992  -0.71756
 Alpha  occ. eigenvalues --   -0.70022  -0.66636  -0.61987  -0.61289  -0.59509
 Alpha  occ. eigenvalues --   -0.56774  -0.51921  -0.49578  -0.46944  -0.45754
 Alpha  occ. eigenvalues --   -0.43088  -0.39790  -0.37006  -0.35242  -0.34477
 Alpha  occ. eigenvalues --   -0.34427  -0.31270  -0.30467  -0.30451  -0.29856
 Alpha  occ. eigenvalues --   -0.29224  -0.29032  -0.28975  -0.27947  -0.26159
 Alpha  occ. eigenvalues --   -0.24602  -0.23069  -0.22377  -0.20898  -0.18311
 Alpha  occ. eigenvalues --   -0.17222  -0.17089  -0.12062  -0.11679  -0.11006
 Alpha  occ. eigenvalues --   -0.07289   0.05179
 Alpha virt. eigenvalues --    0.07292   0.08630   0.09125   0.10487   0.10842
 Alpha virt. eigenvalues --    0.11717   0.12001   0.12207   0.12434   0.13333
 Alpha virt. eigenvalues --    0.14505   0.14539   0.15686   0.15961   0.16296

  Beta  occ. eigenvalues --  -19.03761 -14.23979 -14.18295 -14.15995 -10.09626
  Beta  occ. eigenvalues --  -10.09530 -10.09367 -10.08191 -10.06578 -10.04490
  Beta  occ. eigenvalues --  -10.04153 -10.03863 -10.02902 -10.02846 -10.02069
  Beta  occ. eigenvalues --  -10.01386  -0.94713  -0.91650  -0.79820  -0.71394
  Beta  occ. eigenvalues --   -0.69742  -0.66273  -0.61687  -0.61020  -0.59355
  Beta  occ. eigenvalues --   -0.56532  -0.51792  -0.49171  -0.46723  -0.45370
  Beta  occ. eigenvalues --   -0.42898  -0.39577  -0.36857  -0.35059  -0.34292
  Beta  occ. eigenvalues --   -0.34155  -0.31145  -0.30338  -0.30083  -0.29731
  Beta  occ. eigenvalues --   -0.28912  -0.28885  -0.28406  -0.27856  -0.26082
  Beta  occ. eigenvalues --   -0.24415  -0.22627  -0.22189  -0.20748  -0.17310
  Beta  occ. eigenvalues --   -0.17141  -0.16010  -0.11540  -0.10976  -0.10152
  Beta  occ. eigenvalues --   -0.05896
  Beta virt. eigenvalues --    0.07262   0.08583   0.09100   0.10306   0.10383
  Beta virt. eigenvalues --    0.11250   0.11679   0.12255   0.12390   0.12607
  Beta virt. eigenvalues --    0.13278   0.14481   0.15620   0.15689   0.15885

 Mulliken charges and spin densities:
               1          2
     1  C   -0.520752  -0.048768
     2  C    0.839191   0.143206
     3  C   -0.586261   0.217655
     4  C   -0.157049  -0.022198
     5  N   -0.185138   0.085210
     6  N   -0.076605  -0.032052
     7  C    0.353932   0.063423
     8  N    0.058879   0.038030
     9  C   -0.112801  -0.017240
    10  C    0.415290  -0.066187
    11  C   -0.676739   0.380166
    12  C   -0.243108  -0.044352
    13  C   -0.196593   0.107592
    14  C   -0.572936   0.126461
    15  O   -0.248052   0.012402
    16  C   -0.639933  -0.008825
    17  H    0.080925   0.054625
    18  H    0.135798  -0.000068
    19  H    0.080877   0.054664
    20  H    0.120233  -0.015336
    21  H    0.127222  -0.023615
    22  H    0.072168  -0.000607
    23  H    0.207759  -0.010160
    24  H    0.249865  -0.001157
    25  H    0.144463   0.003526
    26  H    0.144464   0.003506
    27  H    0.184899   0.000101
 Sum of Mulliken charges =  -1.00000   1.00000

 Dipole moment (field-independent basis, Debye):
    X=             -5.9940    Y=             -1.4247    Z=              0.0008  Tot=              6.1610
 Quadrupole moment (field-independent basis, Debye-Ang):
   XX=           -136.1297   YY=           -112.2128   ZZ=           -103.9771
   XY=              0.1866   XZ=              0.0041   YZ=             -0.0020

 Summary of Natural Population Analysis:

                                       Natural Population
                Natural  -----------------------------------------------
    Atom  No    Charge         Core      Valence    Rydberg      Total
 -----------------------------------------------------------------------
      C    1   -0.29529      0.99965     2.29070    0.00494     3.29529
      C    2    0.04287      0.99950     1.94679    0.01084     2.95713
      C    3   -0.08677      0.99947     2.07847    0.00884     3.08677
      C    4    0.18084      0.99960     1.80420    0.01536     2.81916
      N    5   -0.15501      0.99969     2.63926    0.01606     3.65501
      N    6   -0.17888      0.99969     2.66432    0.01488     3.67888
      C    7    0.18031      0.99964     1.80543    0.01462     2.81969
      N    8   -0.21025      0.99959     2.69263    0.01803     3.71025
      C    9    0.16192      0.99949     1.82558    0.01301     2.83808
      C   10   -0.07821      0.99952     2.06392    0.01477     3.07821
      C   11   -0.00859      0.99956     2.00054    0.00849     3.00859
      C   12   -0.15613      0.99953     2.14722    0.00938     3.15613
      C   13    0.19326      0.99940     1.79529    0.01205     2.80674
      C   14   -0.15128      0.99955     2.13507    0.01666     3.15128
      O   15   -0.34281      0.99988     3.33691    0.00602     4.34281
      C   16   -0.30713      0.99964     2.30322    0.00427     3.30713
      H   17    0.10005      0.00000     0.39875    0.00119     0.39995
      H   18    0.09692      0.00000     0.40235    0.00072     0.40308
      H   19    0.10006      0.00000     0.39875    0.00119     0.39994
      H   20    0.09740      0.00000     0.40159    0.00101     0.40260
      H   21    0.09094      0.00000     0.40775    0.00131     0.40906
      H   22    0.08706      0.00000     0.41167    0.00127     0.41294
      H   23    0.10152      0.00000     0.39675    0.00174     0.39848
      H   24    0.22684      0.00000     0.27075    0.00241     0.27316
      H   25    0.10237      0.00000     0.39637    0.00127     0.39763
      H   26    0.10236      0.00000     0.39638    0.00127     0.39764
      H   27    0.11065      0.00000     0.38814    0.00121     0.38935
 =======================================================================
   * Total *    0.00499     15.99338    39.79880    0.20283    55.99501

 Normal termination of Gaussian 16 at Thu Dec 10 21:40:14 2020.
