 Gaussian 16, Revision A.03,

 -----------------------------------------------------------
 # opt freq B3LYP/6-31G(d) empiricaldispersion=gd3bj scf=xqc
 -----------------------------------------------------------

 -------------------------------
 CID_116284083_JID_2148_neutraal
 -------------------------------
 Symbolic Z-matrix:
 Charge =  0 Multiplicity = 1

 SCF Done:  E(RB3LYP) =  -627.762411736     A.U. after   15 cycles
 SCF Done:  E(RB3LYP) =  -627.766070331     A.U. after   12 cycles
 SCF Done:  E(RB3LYP) =  -627.767907990     A.U. after   13 cycles
 SCF Done:  E(RB3LYP) =  -627.768733611     A.U. after   14 cycles
 SCF Done:  E(RB3LYP) =  -627.769001894     A.U. after   12 cycles
 SCF Done:  E(RB3LYP) =  -627.769093650     A.U. after   11 cycles
 SCF Done:  E(RB3LYP) =  -627.769145838     A.U. after   10 cycles
 SCF Done:  E(RB3LYP) =  -627.769152571     A.U. after    9 cycles
 SCF Done:  E(RB3LYP) =  -627.769155209     A.U. after   10 cycles
 SCF Done:  E(RB3LYP) =  -627.769156863     A.U. after   10 cycles
 SCF Done:  E(RB3LYP) =  -627.769161088     A.U. after    7 cycles
 SCF Done:  E(RB3LYP) =  -627.769161172     A.U. after    7 cycles
 SCF Done:  E(RB3LYP) =  -627.769161275     A.U. after    7 cycles
 SCF Done:  E(RB3LYP) =  -627.769161371     A.U. after    7 cycles
 SCF Done:  E(RB3LYP) =  -627.769161416     A.U. after    7 cycles
 Optimization completed.
    -- Stationary point found.
 Normal termination of Gaussian 16 at Wed Dec  9 16:52:17 2020.

 --------------------------------------------------------------------
 #N Geom=AllCheck Guess=TCheck SCRF=Check GenChk RB3LYP/6-31G(d) Freq
 --------------------------------------------------------------------

 Structure from the checkpoint file:  "JID_2148.chk"
 -------------------------------
 CID_116284083_JID_2148_neutraal
 -------------------------------
 Charge =  0 Multiplicity = 1

 SCF Done:  E(RB3LYP) =  -627.769161416     A.U. after    1 cycles

  Exact polarizability: 125.135  -3.158  97.031   4.932   1.829  57.767
 Approx polarizability: 166.878 -11.326 164.713  12.025   0.909  86.031

                      1                      2                      3
                      A                      A                      A
 Frequencies --     30.7497                40.5485                72.1250
 Red. masses --      4.4159                 1.1274                 4.4125
 Frc consts  --      0.0025                 0.0011                 0.0135
 IR Inten    --      0.7066                 0.3132                 0.6340

                      4                      5                      6
                      A                      A                      A
 Frequencies --     88.5124               134.6378               145.7934
 Red. masses --      4.3626                 2.4864                 3.3084
 Frc consts  --      0.0201                 0.0266                 0.0414
 IR Inten    --      0.4422                 9.9377                15.8111

                      7                      8                      9
                      A                      A                      A
 Frequencies --    160.8946               202.8836               208.7862
 Red. masses --      2.0285                 3.5847                 3.4241
 Frc consts  --      0.0309                 0.0869                 0.0879
 IR Inten    --     33.1505                 0.8030                14.7788

                     10                     11                     12
                      A                      A                      A
 Frequencies --    303.1291               337.9820               353.5027
 Red. masses --      3.8788                 4.9735                 4.6842
 Frc consts  --      0.2100                 0.3347                 0.3449
 IR Inten    --      7.3986                 0.9629                 1.5778

                     13                     14                     15
                      A                      A                      A
 Frequencies --    430.4086               511.4989               546.5824
 Red. masses --      3.5593                 4.5858                 4.8951
 Frc consts  --      0.3885                 0.7069                 0.8616
 IR Inten    --     19.0751                16.0238                 0.5059

                     16                     17                     18
                      A                      A                      A
 Frequencies --    560.4869               635.7990               652.7118
 Red. masses --      1.3382                 5.0870                 3.2765
 Frc consts  --      0.2477                 1.2116                 0.8224
 IR Inten    --     56.0639                15.3195                40.7732

                     19                     20                     21
                      A                      A                      A
 Frequencies --    665.2766               711.0136               762.2601
 Red. masses --      4.2082                 4.5759                 8.1699
 Frc consts  --      1.0974                 1.3630                 2.7969
 IR Inten    --     29.4146                14.4795                23.7238

                     22                     23                     24
                      A                      A                      A
 Frequencies --    782.1100               833.2685               884.2586
 Red. masses --      4.3140                 1.2550                 5.6527
 Frc consts  --      1.5548                 0.5134                 2.6042
 IR Inten    --     19.5032                20.6073                 0.8977

                     25                     26                     27
                      A                      A                      A
 Frequencies --   1001.7892              1013.3446              1038.5342
 Red. masses --      1.7434                 4.6846                 2.6071
 Frc consts  --      1.0309                 2.8343                 1.6567
 IR Inten    --     19.6453                18.9714                37.9066

                     28                     29                     30
                      A                      A                      A
 Frequencies --   1052.9595              1073.2802              1123.4458
 Red. masses --      2.3532                 1.4756                 4.5685
 Frc consts  --      1.5372                 1.0015                 3.3972
 IR Inten    --     30.3881                 2.6992               229.7476

                     31                     32                     33
                      A                      A                      A
 Frequencies --   1162.6209              1178.4779              1251.0800
 Red. masses --      3.7756                 1.5164                 1.9250
 Frc consts  --      3.0069                 1.2408                 1.7752
 IR Inten    --    123.3000                24.6470                46.6079

                     34                     35                     36
                      A                      A                      A
 Frequencies --   1261.1699              1279.6037              1313.3514
 Red. masses --      1.8381                 1.8668                 1.7110
 Frc consts  --      1.7225                 1.8009                 1.7389
 IR Inten    --     51.0361                20.9348                 3.1729

                     37                     38                     39
                      A                      A                      A
 Frequencies --   1341.4706              1377.2859              1410.8884
 Red. masses --      1.1380                 2.8461                 1.7489
 Frc consts  --      1.2066                 3.1809                 2.0511
 IR Inten    --      3.8718                 3.5983               156.0651

                     40                     41                     42
                      A                      A                      A
 Frequencies --   1446.0932              1475.5582              1497.5150
 Red. masses --      1.2245                 2.7587                 1.1970
 Frc consts  --      1.5087                 3.5389                 1.5816
 IR Inten    --      1.5422                66.2345                 6.3032

                     43                     44                     45
                      A                      A                      A
 Frequencies --   1512.0914              1523.6615              1573.5948
 Red. masses --      1.0442                 1.1583                 9.4401
 Frc consts  --      1.4067                 1.5843                13.7725
 IR Inten    --      5.9907                 3.4980                73.6419

                     46                     47                     48
                      A                      A                      A
 Frequencies --   1645.4370              1685.2906              1827.8333
 Red. masses --      7.2304                 1.0699                 9.6077
 Frc consts  --     11.5339                 1.7904                18.9123
 IR Inten    --      6.6312                29.9318               440.9138

                     49                     50                     51
                      A                      A                      A
 Frequencies --   3049.9739              3064.1500              3097.8493
 Red. masses --      1.0570                 1.0358                 1.1067
 Frc consts  --      5.7934                 5.7301                 6.2577
 IR Inten    --     30.1165                16.7245                12.3434

                     52                     53                     54
                      A                      A                      A
 Frequencies --   3124.3732              3140.8146              3268.6309
 Red. masses --      1.1004                 1.1037                 1.0967
 Frc consts  --      6.3287                 6.4150                 6.9035
 IR Inten    --     10.4975                17.1387                 2.2373

                     55                     56                     57
                      A                      A                      A
 Frequencies --   3418.8769              3519.2554              3700.5579
 Red. masses --      1.0484                 1.0954                 1.0641
 Frc consts  --      7.2201                 7.9931                 8.5856
 IR Inten    --      1.7830                 0.3327                81.7298

 - Thermochemistry -
 -------------------
 Temperature   298.150 Kelvin.  Pressure   1.00000 Atm.
 Atom     1 has atomic number  6 and mass  12.00000

 Molecular mass:   171.05316 amu.
 Principal axes and moments of inertia in atomic units:
                           1         2         3
     Eigenvalues --   982.392403457.533104121.15122
           X            0.99980   0.01938  -0.00392
           Y           -0.01934   0.99976   0.01020
           Z            0.00412  -0.01012   0.99994
 This molecule is an asymmetric top.
 Rotational symmetry number  1.
 Warning -- assumption of classical behavior for rotation
           may cause significant error
 Rotational temperatures (Kelvin)      0.08817     0.02505     0.02102
 Rotational constants (GHZ):           1.83709     0.52197     0.43792
 Zero-point vibrational energy     427701.3 (Joules/Mol)
                                  102.22307 (Kcal/Mol)
 Warning -- explicit consideration of  16 degrees of freedom as
           vibrations may cause significant error
 Vibrational temperatures:     44.24    58.34   103.77   127.35   193.71
          (Kelvin)            209.76   231.49   291.90   300.40   436.14
                              486.28   508.61   619.26   735.93   786.41
                              806.42   914.77   939.11   957.18  1022.99
                             1096.72  1125.28  1198.89  1272.25  1441.35
                             1457.98  1494.22  1514.97  1544.21  1616.39
                             1672.75  1695.57  1800.03  1814.54  1841.06
                             1889.62  1930.08  1981.61  2029.95  2080.61
                             2123.00  2154.59  2175.56  2192.21  2264.05
                             2367.42  2424.76  2629.84  4388.23  4408.63
                             4457.11  4495.28  4518.93  4702.83  4919.00
                             5063.42  5324.28

 Zero-point correction=                           0.162903 (Hartree/Particle)
 Thermal correction to Energy=                    0.175223
 Thermal correction to Enthalpy=                  0.176167
 Thermal correction to Gibbs Free Energy=         0.122577
 Sum of electronic and zero-point Energies=           -627.606259
 Sum of electronic and thermal Energies=              -627.593938
 Sum of electronic and thermal Enthalpies=            -627.592994
 Sum of electronic and thermal Free Energies=         -627.646584

                     E (Thermal)             CV                S
                      KCal/Mol        Cal/Mol-Kelvin    Cal/Mol-Kelvin
 Total                  109.954             43.010            112.790
 Electronic               0.000              0.000              0.000
 Translational            0.889              2.981             41.318
 Rotational               0.889              2.981             31.016
 Vibrational            108.177             37.048             40.457
 Vibration     1          0.594              1.984              5.780
 Vibration     2          0.594              1.981              5.232
 Vibration     3          0.598              1.967              4.095
 Vibration     4          0.601              1.957              3.693
 Vibration     5          0.613              1.919              2.879
 Vibration     6          0.617              1.907              2.726
 Vibration     7          0.622              1.890              2.539
 Vibration     8          0.639              1.836              2.107
 Vibration     9          0.642              1.827              2.054
 Vibration    10          0.695              1.668              1.400
 Vibration    11          0.718              1.600              1.222
 Vibration    12          0.730              1.568              1.151
 Vibration    13          0.792              1.404              0.857
 Vibration    14          0.867              1.225              0.630
 Vibration    15          0.902              1.147              0.551
 Vibration    16          0.916              1.117              0.523

 Optimization completed.
    -- Stationary point found.
 Normal termination of Gaussian 16 at Wed Dec  9 16:56:14 2020.

 ----------------------------------------------------------------------
 # B3LYP/6-311++G(d,p) empiricaldispersion=gd3bj scf=xqc pop=npa geom=c
 heck
 ----------------------------------------------------------------------

 ---------------------------------------
 CID_116284083_JID_2148_Energie_neutraal
 ---------------------------------------
 Structure from the checkpoint file:  "JID_2148.chk"
 Charge =  0 Multiplicity = 1

 SCF Done:  E(RB3LYP) =  -627.966277081     A.U. after   14 cycles
 Normal termination of Gaussian 16 at Wed Dec  9 16:58:04 2020.

 ----------------------------------------------------------------------
 # B3LYP/6-311++G(d,p) empiricaldispersion=gd3bj scf=xqc pop=npa geom=c
 heck
 ----------------------------------------------------------------------

 -------------------------------------
 CID_116284083_JID_2148_Energie_kation
 -------------------------------------
 Structure from the checkpoint file:  "JID_2148.chk"
 Charge =  1 Multiplicity = 2

 SCF Done:  E(UB3LYP) =  -627.651371081     A.U. after   23 cycles
 Normal termination of Gaussian 16 at Wed Dec  9 17:03:06 2020.
 Gaussian 16:  ES64L-G16RevA.03 25-Dec-2016

 ----------------------------------------------------------------------
 # B3LYP/6-311++G(d,p) empiricaldispersion=gd3bj scf=xqc pop=npa geom=c
 heck
 ----------------------------------------------------------------------

 ------------------------------------
 CID_116284083_JID_2148_Energie_anion
 ------------------------------------
 Structure from the checkpoint file:  "JID_2148.chk"
 Charge = -1 Multiplicity = 2

                         Standard orientation:
 ---------------------------------------------------------------------
 Center     Atomic      Atomic             Coordinates (Angstroms)
 Number     Number       Type             X           Y           Z
 ---------------------------------------------------------------------
      1          6           0        1.555501    2.394922   -0.024436
      2          6           0        0.701925    1.170406   -0.158930
      3          6           0        1.088684   -0.151180   -0.076101
      4          8           0       -0.000037   -0.973050   -0.247693
      5          6           0       -1.074815   -0.177689   -0.445126
      6          6           0       -0.704990    1.139989   -0.400783
      7          6           0       -2.394048   -0.847993   -0.669256
      8          8           0       -3.470776   -0.040312   -0.222000
      9          7           0       -3.461924   -0.036758    1.225252
     10          6           0        2.360881   -0.820464    0.145709
     11          8           0        2.541676   -2.020628    0.175710
     12          8           0        3.371547    0.080760    0.323161
     13          1           0        0.963399    3.296092   -0.206972
     14          1           0        1.992487    2.464996    0.977231
     15          1           0        2.390852    2.376424   -0.730653
     16          1           0       -1.359127    1.990608   -0.532161
     17          1           0       -2.584129   -0.991812   -1.740496
     18          1           0       -2.397105   -1.827131   -0.176355
     19          1           0       -3.228128    0.929024    1.466841
     20          1           0       -4.453630   -0.142578    1.445727
     21          1           0        4.170725   -0.460426    0.460196
 ---------------------------------------------------------------------

 SCF Done:  E(UB3LYP) =  -627.961436939     A.U. after   33 cycles
 SCF Done:  E(UB3LYP) =  -627.961436939     a.u. after    1 cycles

 The electronic state is 2-A.
 Alpha  occ. eigenvalues --  -19.04350 -19.03785 -19.03116 -18.95652 -14.23268
 Alpha  occ. eigenvalues --  -10.14506 -10.10623 -10.08851 -10.07770 -10.05198
 Alpha  occ. eigenvalues --  -10.04564 -10.03655  -0.97963  -0.96296  -0.95151
 Alpha  occ. eigenvalues --   -0.87168  -0.71650  -0.68606  -0.64132  -0.58659
 Alpha  occ. eigenvalues --   -0.56337  -0.49374  -0.46131  -0.41833  -0.39628
 Alpha  occ. eigenvalues --   -0.39169  -0.37201  -0.34823  -0.34441  -0.33022
 Alpha  occ. eigenvalues --   -0.32788  -0.30515  -0.29616  -0.29091  -0.28483
 Alpha  occ. eigenvalues --   -0.26500  -0.25590  -0.25098  -0.22810  -0.19029
 Alpha  occ. eigenvalues --   -0.16962  -0.14924  -0.14617  -0.14132  -0.09891
 Alpha  occ. eigenvalues --    0.05155
 Alpha virt. eigenvalues --    0.07185   0.08150   0.09233   0.09683   0.10711
 Alpha virt. eigenvalues --    0.11586   0.12595   0.13063   0.13774   0.14755
 Alpha virt. eigenvalues --    0.15543   0.16322   0.16493   0.18121   0.18553

  Beta  occ. eigenvalues --  -19.04147 -19.03767 -19.03042 -18.95409 -14.23208
  Beta  occ. eigenvalues --  -10.14263 -10.10640 -10.08623 -10.07729 -10.05212
  Beta  occ. eigenvalues --  -10.04344 -10.03733  -0.97630  -0.96031  -0.95103
  Beta  occ. eigenvalues --   -0.86794  -0.71500  -0.68310  -0.63790  -0.58572
  Beta  occ. eigenvalues --   -0.56010  -0.49125  -0.46030  -0.41586  -0.39462
  Beta  occ. eigenvalues --   -0.39055  -0.37023  -0.34540  -0.34009  -0.32795
  Beta  occ. eigenvalues --   -0.32221  -0.30428  -0.28994  -0.28616  -0.28234
  Beta  occ. eigenvalues --   -0.26354  -0.25423  -0.24932  -0.22658  -0.17992
  Beta  occ. eigenvalues --   -0.16877  -0.14838  -0.13920  -0.13879  -0.08739
  Beta virt. eigenvalues --    0.07783   0.08459   0.09337   0.09757   0.10383
  Beta virt. eigenvalues --    0.10927   0.11893   0.12533   0.13177   0.13778
  Beta virt. eigenvalues --    0.14858   0.16000   0.16275   0.16386   0.18266

 Mulliken charges and spin densities:
               1          2
     1  C   -0.331232  -0.114783
     2  C    0.285815   0.429163
     3  C   -0.750462  -0.016428
     4  O   -0.049707   0.064298
     5  C   -0.127101   0.067753
     6  C   -0.102715   0.059984
     7  C    0.108621  -0.765805
     8  O   -0.151402   0.034904
     9  N   -0.103049  -0.336535
    10  C    0.556797   0.035984
    11  O   -0.404572   0.082375
    12  O   -0.237774   0.012491
    13  H    0.044552   0.078839
    14  H    0.098826   0.075731
    15  H    0.152851   0.015701
    16  H   -0.147783   0.314491
    17  H   -0.025930   0.203323
    18  H    0.176509  -0.008691
    19  H    0.082467   0.151821
    20  H   -0.348438   0.613774
    21  H    0.273729   0.001609
 Sum of Mulliken charges =  -1.00000   1.00000

 Dipole moment (field-independent basis, Debye):
    X=              3.8794    Y=              2.4756    Z=             -1.3417  Tot=              4.7936
 Quadrupole moment (field-independent basis, Debye-Ang):
   XX=           -123.0980   YY=            -93.2865   ZZ=            -85.3897
   XY=              6.4675   XZ=              5.7218   YZ=              1.4647

 Summary of Natural Population Analysis:

                                       Natural Population
                Natural  -----------------------------------------------
    Atom  No    Charge         Core      Valence    Rydberg      Total
 -----------------------------------------------------------------------
      C    1   -0.29361      0.99964     2.28909    0.00488     3.29361
      C    2    0.00776      0.99951     1.98487    0.00787     2.99224
      C    3    0.08171      0.99934     1.90578    0.01317     2.91829
      O    4   -0.20662      0.99985     3.19948    0.00729     4.20662
      C    5    0.19429      0.99948     1.79128    0.01495     2.80571
      C    6   -0.18076      0.99947     2.17189    0.00941     3.18076
      C    7   -0.02780      0.99954     2.01341    0.01485     3.02780
      O    8   -0.23770      0.99991     3.22376    0.01403     4.23770
      N    9   -0.25258      0.99976     2.74114    0.01167     3.75258
      C   10    0.40041      0.99965     1.57621    0.02373     2.59959
      O   11   -0.30139      0.99987     3.29546    0.00606     4.30139
      O   12   -0.35451      0.99988     3.34815    0.00648     4.35451
      H   13    0.09504      0.00000     0.40405    0.00091     0.40496
      H   14    0.10676      0.00000     0.39173    0.00151     0.39324
      H   15    0.10628      0.00000     0.39248    0.00124     0.39372
      H   16    0.10491      0.00000     0.39408    0.00101     0.39509
      H   17    0.09605      0.00000     0.40236    0.00159     0.40395
      H   18    0.09393      0.00000     0.40441    0.00166     0.40607
      H   19    0.16812      0.00000     0.32945    0.00243     0.33188
      H   20    0.17076      0.00000     0.32242    0.00682     0.32924
      H   21    0.22894      0.00000     0.26615    0.00491     0.27106
 =======================================================================
   * Total *    0.00000     11.99589    32.84765    0.15645    45.00000

 Normal termination of Gaussian 16 at Wed Dec  9 17:10:19 2020.
