 Gaussian 16, Revision A.03,

 -----------------------------------------------------------
 # opt freq B3LYP/6-31G(d) empiricaldispersion=gd3bj scf=xqc
 -----------------------------------------------------------

 -------------------------------
 CID_151797065_JID_5077_neutraal
 -------------------------------
 Symbolic Z-matrix:
 Charge =  0 Multiplicity = 1

 SCF Done:  E(RB3LYP) =  -631.647615157     A.U. after   16 cycles
 SCF Done:  E(RB3LYP) =  -631.655976756     A.U. after   15 cycles
 SCF Done:  E(RB3LYP) =  -631.659140006     A.U. after   14 cycles
 SCF Done:  E(RB3LYP) =  -631.660762814     A.U. after   13 cycles
 SCF Done:  E(RB3LYP) =  -631.661414111     A.U. after   14 cycles
 SCF Done:  E(RB3LYP) =  -631.661895902     A.U. after   12 cycles
 SCF Done:  E(RB3LYP) =  -631.661962749     A.U. after   12 cycles
 SCF Done:  E(RB3LYP) =  -631.661975936     A.U. after   10 cycles
 SCF Done:  E(RB3LYP) =  -631.661978011     A.U. after    9 cycles
 SCF Done:  E(RB3LYP) =  -631.661978542     A.U. after    8 cycles
 SCF Done:  E(RB3LYP) =  -631.661978619     A.U. after    7 cycles
 Optimization completed.
    -- Stationary point found.
 Normal termination of Gaussian 16 at Thu Dec 10 14:46:56 2020.

 --------------------------------------------------------------------
 #N Geom=AllCheck Guess=TCheck SCRF=Check GenChk RB3LYP/6-31G(d) Freq
 --------------------------------------------------------------------

 Structure from the checkpoint file:  "JID_5077.chk"
 -------------------------------
 CID_151797065_JID_5077_neutraal
 -------------------------------
 Charge =  0 Multiplicity = 1

 SCF Done:  E(RB3LYP) =  -631.661978619     A.U. after    1 cycles

  Exact polarizability: 178.682   8.236 160.204 -14.586  -6.839 114.689
 Approx polarizability: 296.272  18.080 253.684 -55.681 -26.819 214.328

                      1                      2                      3
                      A                      A                      A
 Frequencies --     38.3531                51.5152                89.0501
 Red. masses --      8.1330                 5.7402                 3.7125
 Frc consts  --      0.0070                 0.0090                 0.0173
 IR Inten    --      0.2917                 0.7811                 0.2421

                      4                      5                      6
                      A                      A                      A
 Frequencies --    116.1372               125.3760               157.5894
 Red. masses --      4.3741                 4.2763                 2.9771
 Frc consts  --      0.0348                 0.0396                 0.0436
 IR Inten    --      0.1102                 0.1855                 1.3782

                      7                      8                      9
                      A                      A                      A
 Frequencies --    188.5260               212.2960               223.9097
 Red. masses --      4.7102                 2.6748                 2.6263
 Frc consts  --      0.0986                 0.0710                 0.0776
 IR Inten    --      0.8582                 0.8789                 3.6962

                     10                     11                     12
                      A                      A                      A
 Frequencies --    257.9579               268.8575               328.5326
 Red. masses --      2.7146                 1.9896                 2.0473
 Frc consts  --      0.1064                 0.0847                 0.1302
 IR Inten    --      1.2818                10.9681                 9.4023

                     13                     14                     15
                      A                      A                      A
 Frequencies --    337.0036               368.6874               380.1205
 Red. masses --      3.1153                 2.2110                 2.9140
 Frc consts  --      0.2085                 0.1771                 0.2481
 IR Inten    --      1.6802                 0.1949                 2.6710

                     16                     17                     18
                      A                      A                      A
 Frequencies --    414.7850               446.1644               459.3113
 Red. masses --      4.1322                 2.9119                 2.1908
 Frc consts  --      0.4189                 0.3415                 0.2723
 IR Inten    --      0.1610                 0.3514                 1.2066

                     19                     20                     21
                      A                      A                      A
 Frequencies --    496.6097               516.9294               539.7933
 Red. masses --      3.8512                 2.9308                 2.8086
 Frc consts  --      0.5596                 0.4614                 0.4822
 IR Inten    --      0.8922                 0.8950                 5.5499

                     22                     23                     24
                      A                      A                      A
 Frequencies --    573.3393               581.8996               701.8744
 Red. masses --      4.0910                 7.7648                 2.9153
 Frc consts  --      0.7923                 1.5491                 0.8461
 IR Inten    --      2.5458                19.0833                15.8931

                     25                     26                     27
                      A                      A                      A
 Frequencies --    748.2661               766.5049               827.1534
 Red. masses --      2.8252                 2.4449                 1.7753
 Frc consts  --      0.9320                 0.8463                 0.7156
 IR Inten    --      9.4119                 5.9271                38.3820

                     28                     29                     30
                      A                      A                      A
 Frequencies --    828.9503               849.1809               853.8139
 Red. masses --      1.5547                 1.8363                 1.8186
 Frc consts  --      0.6294                 0.7802                 0.7811
 IR Inten    --      2.9100               201.4204                48.7651

                     31                     32                     33
                      A                      A                      A
 Frequencies --    889.0575               938.7771               945.1319
 Red. masses --      2.2495                 1.8367                 2.2290
 Frc consts  --      1.0476                 0.9537                 1.1731
 IR Inten    --     10.9138                 2.9844                 3.2407

                     34                     35                     36
                      A                      A                      A
 Frequencies --    958.0492               979.2726              1012.7245
 Red. masses --      3.1035                 1.1425                 2.1863
 Frc consts  --      1.6783                 0.6455                 1.3211
 IR Inten    --     21.9642                 0.9822                 7.8631

                     37                     38                     39
                      A                      A                      A
 Frequencies --   1019.3687              1031.4899              1061.3954
 Red. masses --      1.2817                 2.7861                 1.9765
 Frc consts  --      0.7847                 1.7466                 1.3119
 IR Inten    --     42.0971                 3.5236                 3.3161

                     40                     41                     42
                      A                      A                      A
 Frequencies --   1078.2295              1086.6021              1110.2446
 Red. masses --      1.2684                 1.8237                 2.5584
 Frc consts  --      0.8688                 1.2687                 1.8581
 IR Inten    --     86.6415                23.8121                 3.5215

                     43                     44                     45
                      A                      A                      A
 Frequencies --   1121.9107              1153.3445              1171.1473
 Red. masses --      2.6762                 3.1825                 1.9246
 Frc consts  --      1.9847                 2.4942                 1.5553
 IR Inten    --      2.6055                 1.7196                 6.8707

                     46                     47                     48
                      A                      A                      A
 Frequencies --   1174.7721              1209.1716              1256.5602
 Red. masses --      1.2059                 1.3491                 1.3183
 Frc consts  --      0.9806                 1.1621                 1.2264
 IR Inten    --      3.1137                 0.7903                 0.9362

                     49                     50                     51
                      A                      A                      A
 Frequencies --   1261.4211              1274.4058              1294.3619
 Red. masses --      1.3190                 1.1612                 1.8996
 Frc consts  --      1.2366                 1.1112                 1.8751
 IR Inten    --      6.9824                 1.4186                77.4946

                     52                     53                     54
                      A                      A                      A
 Frequencies --   1321.5580              1325.1410              1328.8801
 Red. masses --      1.3054                 1.6474                 1.3533
 Frc consts  --      1.3433                 1.7044                 1.4080
 IR Inten    --      5.2846                47.6954                 0.3825

                     55                     56                     57
                      A                      A                      A
 Frequencies --   1341.3684              1350.9649              1359.0368
 Red. masses --      1.4650                 1.3841                 1.2686
 Frc consts  --      1.5530                 1.4884                 1.3805
 IR Inten    --      9.7558                 9.5650                 8.4810

                     58                     59                     60
                      A                      A                      A
 Frequencies --   1364.9354              1371.7743              1390.8413
 Red. masses --      1.2986                 1.1729                 1.3914
 Frc consts  --      1.4255                 1.3004                 1.5858
 IR Inten    --      4.4052                 0.8665                 2.8858

                     61                     62                     63
                      A                      A                      A
 Frequencies --   1398.2867              1403.4583              1417.0075
 Red. masses --      1.3473                 1.4372                 1.3621
 Frc consts  --      1.5521                 1.6679                 1.6114
 IR Inten    --      0.2608                 9.8190                 1.5495

                     64                     65                     66
                      A                      A                      A
 Frequencies --   1424.8438              1507.8096              1512.0535
 Red. masses --      1.3447                 1.1002                 1.1024
 Frc consts  --      1.6085                 1.4737                 1.4850
 IR Inten    --      8.8230                 2.3382                 0.7522

                     67                     68                     69
                      A                      A                      A
 Frequencies --   1513.9157              1515.9213              1518.0877
 Red. masses --      1.0915                 1.0848                 1.0879
 Frc consts  --      1.4739                 1.4688                 1.4771
 IR Inten    --      1.5037                 8.0066                 3.4839

                     70                     71                     72
                      A                      A                      A
 Frequencies --   1626.0959              1662.6263              1695.5161
 Red. masses --      4.7126                 4.7196                 5.1870
 Frc consts  --      7.3418                 7.6867                 8.7856
 IR Inten    --      0.7059                 5.6595                 2.7987

                     73                     74                     75
                      A                      A                      A
 Frequencies --   2247.9013              3019.4472              3021.5817
 Red. masses --     13.8462                 1.0642                 1.0709
 Frc consts  --     41.2227                 5.7165                 5.7606
 IR Inten    --    567.9230                42.8250                 7.0035

                     76                     77                     78
                      A                      A                      A
 Frequencies --   3036.6472              3038.7542              3050.4761
 Red. masses --      1.0647                 1.0654                 1.0596
 Frc consts  --      5.7843                 5.7963                 5.8092
 IR Inten    --     36.9478                27.1030                39.0068

                     79                     80                     81
                      A                      A                      A
 Frequencies --   3069.1330              3073.9719              3078.0028
 Red. masses --      1.1011                 1.0953                 1.1000
 Frc consts  --      6.1107                 6.0980                 6.1404
 IR Inten    --     17.7137                43.2015                50.1364

                     82                     83                     84
                      A                      A                      A
 Frequencies --   3093.8949              3111.7495              3123.0327
 Red. masses --      1.0975                 1.0922                 1.0874
 Frc consts  --      6.1897                 6.2310                 6.2489
 IR Inten    --      2.8051                21.0401                17.9038

                     85                     86                     87
                      A                      A                      A
 Frequencies --   3135.6502              3138.7658              3142.1158
 Red. masses --      1.0877                 1.0892                 1.0888
 Frc consts  --      6.3013                 6.3222                 6.3336
 IR Inten    --      8.6412                15.1229                21.0156

                     88                     89                     90
                      A                      A                      A
 Frequencies --   3146.0917              3152.8658              3157.6534
 Red. masses --      1.0884                 1.0872                 1.0876
 Frc consts  --      6.3471                 6.3676                 6.3892
 IR Inten    --      1.5673                16.2778                59.3654

 - Thermochemistry -
 -------------------
 Temperature   298.150 Kelvin.  Pressure   1.00000 Atm.
 Atom     1 has atomic number  6 and mass  12.00000

 Molecular mass:   203.14225 amu.
 Principal axes and moments of inertia in atomic units:
                           1         2         3
     Eigenvalues --  2291.190813799.515805588.37141
           X            0.99957   0.02915  -0.00273
           Y           -0.02914   0.99957   0.00349
           Z            0.00283  -0.00341   0.99999
 This molecule is an asymmetric top.
 Rotational symmetry number  1.
 Warning -- assumption of classical behavior for rotation
           may cause significant error
 Rotational temperatures (Kelvin)      0.03780     0.02280     0.01550
 Rotational constants (GHZ):           0.78769     0.47499     0.32295
 Zero-point vibrational energy     723524.1 (Joules/Mol)
                                  172.92641 (Kcal/Mol)
 Warning -- explicit consideration of  23 degrees of freedom as
           vibrations may cause significant error
 Vibrational temperatures:     55.18    74.12   128.12   167.10   180.39
          (Kelvin)            226.74   271.25   305.45   322.16   371.14
                              386.83   472.69   484.87   530.46   546.91
                              596.78   641.93   660.85   714.51   743.75
                              776.64   824.91   837.22  1009.84  1076.59
                             1102.83  1190.09  1192.67  1221.78  1228.45
                             1279.16  1350.69  1359.83  1378.42  1408.95
                             1457.08  1466.64  1484.08  1527.11  1551.33
                             1563.38  1597.39  1614.18  1659.41  1685.02
                             1690.24  1739.73  1807.91  1814.90  1833.59
                             1862.30  1901.43  1906.58  1911.96  1929.93
                             1943.74  1955.35  1963.84  1973.68  2001.11
                             2011.82  2019.26  2038.76  2050.03  2169.40
                             2175.51  2178.19  2181.07  2184.19  2339.59
                             2392.15  2439.47  3234.23  4344.31  4347.38
                             4369.06  4372.09  4388.95  4415.80  4422.76
                             4428.56  4451.42  4477.11  4493.35  4511.50
                             4515.98  4520.80  4526.52  4536.27  4543.16

 Zero-point correction=                           0.275576 (Hartree/Particle)
 Thermal correction to Energy=                    0.289983
 Thermal correction to Enthalpy=                  0.290927
 Thermal correction to Gibbs Free Energy=         0.234217
 Sum of electronic and zero-point Energies=           -631.386403
 Sum of electronic and thermal Energies=              -631.371996
 Sum of electronic and thermal Enthalpies=            -631.371052
 Sum of electronic and thermal Free Energies=         -631.427761

                     E (Thermal)             CV                S
                      KCal/Mol        Cal/Mol-Kelvin    Cal/Mol-Kelvin
 Total                  181.967             55.724            119.356
 Electronic               0.000              0.000              0.000
 Translational            0.889              2.981             41.831
 Rotational               0.889              2.981             32.253
 Vibrational            180.190             49.763             45.272
 Vibration     1          0.594              1.982              5.342
 Vibration     2          0.596              1.977              4.758
 Vibration     3          0.602              1.957              3.681
 Vibration     4          0.608              1.936              3.164
 Vibration     5          0.610              1.928              3.016
 Vibration     6          0.621              1.894              2.579
 Vibration     7          0.633              1.856              2.242
 Vibration     8          0.643              1.822              2.024
 Vibration     9          0.649              1.805              1.927
 Vibration    10          0.667              1.749              1.676
 Vibration    11          0.673              1.730              1.604
 Vibration    12          0.712              1.618              1.267
 Vibration    13          0.718              1.602              1.226
 Vibration    14          0.741              1.537              1.085
 Vibration    15          0.750              1.513              1.039
 Vibration    16          0.778              1.438              0.910
 Vibration    17          0.805              1.369              0.807
 Vibration    18          0.817              1.340              0.768
 Vibration    19          0.852              1.258              0.667
 Vibration    20          0.872              1.212              0.617
 Vibration    21          0.895              1.162              0.566
 Vibration    22          0.930              1.089              0.498
 Vibration    23          0.939              1.070              0.482

 Optimization completed.
    -- Stationary point found.
 Normal termination of Gaussian 16 at Thu Dec 10 14:57:43 2020.

 ----------------------------------------------------------------------
 # B3LYP/6-311++G(d,p) empiricaldispersion=gd3bj scf=xqc pop=npa geom=c
 heck
 ----------------------------------------------------------------------

 ---------------------------------------
 CID_151797065_JID_5077_Energie_neutraal
 ---------------------------------------
 Structure from the checkpoint file:  "JID_5077.chk"
 Charge =  0 Multiplicity = 1

 SCF Done:  E(RB3LYP) =  -631.832952332     A.U. after   16 cycles
 Normal termination of Gaussian 16 at Thu Dec 10 15:03:47 2020.

 ----------------------------------------------------------------------
 # B3LYP/6-311++G(d,p) empiricaldispersion=gd3bj scf=xqc pop=npa geom=c
 heck
 ----------------------------------------------------------------------

 -------------------------------------
 CID_151797065_JID_5077_Energie_kation
 -------------------------------------
 Structure from the checkpoint file:  "JID_5077.chk"
 Charge =  1 Multiplicity = 2

 SCF Done:  E(UB3LYP) =  -631.567773045     A.U. after   23 cycles
 Normal termination of Gaussian 16 at Thu Dec 10 15:15:53 2020.
 Gaussian 16:  ES64L-G16RevA.03 25-Dec-2016

 ----------------------------------------------------------------------
 # B3LYP/6-311++G(d,p) empiricaldispersion=gd3bj scf=xqc pop=npa geom=c
 heck
 ----------------------------------------------------------------------

 ------------------------------------
 CID_151797065_JID_5077_Energie_anion
 ------------------------------------
 Structure from the checkpoint file:  "JID_5077.chk"
 Charge = -1 Multiplicity = 2

                         Standard orientation:
 ---------------------------------------------------------------------
 Center     Atomic      Atomic             Coordinates (Angstroms)
 Number     Number       Type             X           Y           Z
 ---------------------------------------------------------------------
      1          6           0        0.386921    2.572432   -0.287701
      2          6           0       -0.562710    1.884065    0.716872
      3          6           0       -0.622047    0.344946    0.807673
      4          6           0       -1.142251   -0.418973   -0.428120
      5          6           0       -1.364225   -1.955237   -0.176311
      6          6           0       -0.122764   -2.502550    0.467013
      7          6           0        1.035293   -2.613208   -0.216971
      8          6           0        2.238387   -2.060097    0.385635
      9          6           0        2.861541   -1.097275   -0.340032
     10          6           0        2.995888    0.238761    0.218018
     11          6           0        2.532404    1.272452   -0.510396
     12          6           0        1.916708    2.534332    0.011644
     13          7           0       -2.376486    0.188310   -0.997630
     14          7           0       -3.339614    0.265550   -0.230075
     15          7           0       -4.296428    0.395765    0.383211
     16          1           0        0.085962    3.627249   -0.318916
     17          1           0        0.209482    2.185246   -1.299873
     18          1           0       -0.314697    2.252128    1.722068
     19          1           0       -1.573710    2.254973    0.508836
     20          1           0        0.367429   -0.050475    1.045612
     21          1           0       -1.269452    0.093159    1.660733
     22          1           0       -0.413461   -0.322289   -1.236953
     23          1           0       -2.246101   -2.086761    0.462997
     24          1           0       -1.581225   -2.421096   -1.144196
     25          1           0       -0.065150   -2.385485    1.548899
     26          1           0        1.005225   -2.656570   -1.306706
     27          1           0        2.252409   -1.994799    1.473754
     28          1           0        2.760582   -1.135511   -1.425410
     29          1           0        3.112407    0.338039    1.297296
     30          1           0        2.377665    1.106314   -1.578770
     31          1           0        2.091059    2.639447    1.090229
     32          1           0        2.370411    3.411188   -0.472092
 ---------------------------------------------------------------------

 SCF Done:  E(UB3LYP) =  -631.833701053     A.U. after   33 cycles
 SCF Done:  E(UB3LYP) =  -631.833701053     a.u. after    1 cycles

 The electronic state is 2-A.
 Alpha  occ. eigenvalues --  -14.33913 -14.23992 -14.22621 -10.09458 -10.05796
 Alpha  occ. eigenvalues --  -10.05661 -10.05595 -10.05427 -10.05248 -10.04009
 Alpha  occ. eigenvalues --  -10.03477 -10.03225 -10.02859 -10.02591 -10.02030
 Alpha  occ. eigenvalues --   -1.00544  -0.84785  -0.70863  -0.68504  -0.68406
 Alpha  occ. eigenvalues --   -0.62949  -0.62598  -0.56291  -0.54816  -0.50817
 Alpha  occ. eigenvalues --   -0.46862  -0.43939  -0.42970  -0.41621  -0.40227
 Alpha  occ. eigenvalues --   -0.38223  -0.37073  -0.35033  -0.34496  -0.33768
 Alpha  occ. eigenvalues --   -0.32312  -0.31390  -0.30290  -0.29676  -0.29169
 Alpha  occ. eigenvalues --   -0.27080  -0.25895  -0.25150  -0.24942  -0.23899
 Alpha  occ. eigenvalues --   -0.23495  -0.22609  -0.21761  -0.21050  -0.20523
 Alpha  occ. eigenvalues --   -0.18382  -0.16811  -0.14111  -0.12587  -0.06260
 Alpha  occ. eigenvalues --    0.04964
 Alpha virt. eigenvalues --    0.07520   0.08090   0.09170   0.09668   0.10035
 Alpha virt. eigenvalues --    0.10766   0.11042   0.11514   0.12106   0.12538
 Alpha virt. eigenvalues --    0.12740   0.13293   0.13699   0.13852   0.14542

  Beta  occ. eigenvalues --  -14.33701 -14.23716 -14.22673 -10.09350 -10.05794
  Beta  occ. eigenvalues --  -10.05634 -10.05614 -10.05456 -10.05252 -10.04031
  Beta  occ. eigenvalues --  -10.03418 -10.03094 -10.02636 -10.02291 -10.01738
  Beta  occ. eigenvalues --   -1.00144  -0.84596  -0.70604  -0.68237  -0.68115
  Beta  occ. eigenvalues --   -0.62686  -0.62352  -0.56035  -0.54639  -0.50723
  Beta  occ. eigenvalues --   -0.46703  -0.43592  -0.42665  -0.41316  -0.39725
  Beta  occ. eigenvalues --   -0.38058  -0.36725  -0.34720  -0.34359  -0.33623
  Beta  occ. eigenvalues --   -0.31842  -0.31180  -0.30053  -0.29466  -0.29020
  Beta  occ. eigenvalues --   -0.26935  -0.25767  -0.24974  -0.24573  -0.23773
  Beta  occ. eigenvalues --   -0.23235  -0.22459  -0.21653  -0.20953  -0.20362
  Beta  occ. eigenvalues --   -0.17745  -0.16411  -0.13318  -0.12262  -0.04653
  Beta virt. eigenvalues --    0.07712   0.08667   0.09344   0.09833   0.09917
  Beta virt. eigenvalues --    0.10408   0.10858   0.10990   0.11608   0.12282
  Beta virt. eigenvalues --    0.12595   0.12802   0.13495   0.13735   0.13987

 Mulliken charges and spin densities:
               1          2
     1  C   -0.104232  -0.082433
     2  C   -0.751626  -0.064578
     3  C    0.184165   0.037958
     4  C   -0.290007   0.006451
     5  C   -0.772261  -0.030770
     6  C    0.025809   0.300514
     7  C   -0.166842  -0.059200
     8  C   -0.089646   0.107333
     9  C   -0.290984   0.154344
    10  C   -0.195844  -0.083014
    11  C   -0.090100   0.275758
    12  C   -0.375284  -0.103567
    13  N   -0.450723   0.071340
    14  N    0.639142  -0.010051
    15  N   -0.241958   0.134693
    16  H   -0.019866   0.158807
    17  H    0.173841  -0.011258
    18  H    0.093783   0.050338
    19  H    0.151361  -0.025506
    20  H    0.124915  -0.010683
    21  H    0.178882   0.009907
    22  H    0.270566  -0.009871
    23  H    0.132654   0.008886
    24  H    0.131303   0.032423
    25  H    0.116863  -0.009650
    26  H    0.082126   0.037194
    27  H    0.100904  -0.002544
    28  H    0.084784  -0.006379
    29  H    0.094102   0.027853
    30  H    0.110815  -0.015225
    31  H    0.122663   0.002812
    32  H    0.020696   0.108118
 Sum of Mulliken charges =  -1.00000   1.00000

 Dipole moment (field-independent basis, Debye):
    X=             -0.3670    Y=              2.1015    Z=              0.4081  Tot=              2.1720
 Quadrupole moment (field-independent basis, Debye-Ang):
   XX=           -154.1234   YY=           -129.8213   ZZ=            -99.6632
   XY=              5.8644   XZ=              2.1506   YZ=              2.0640

 Summary of Natural Population Analysis:

                                       Natural Population
                Natural  -----------------------------------------------
    Atom  No    Charge         Core      Valence    Rydberg      Total
 -----------------------------------------------------------------------
      C    1   -0.18338      0.99962     2.17372    0.01004     3.18338
      C    2   -0.18735      0.99962     2.17807    0.00965     3.18735
      C    3   -0.20429      0.99960     2.19661    0.00808     3.20429
      C    4   -0.00069      0.99956     1.98882    0.01230     3.00069
      C    5   -0.20936      0.99960     2.19929    0.01047     3.20936
      C    6   -0.05221      0.99949     2.04091    0.01181     3.05221
      C    7   -0.10103      0.99944     2.08978    0.01181     3.10103
      C    8   -0.08604      0.99943     2.07446    0.01215     3.08604
      C    9   -0.05920      0.99945     2.04704    0.01271     3.05920
      C   10   -0.12129      0.99946     2.11257    0.00926     3.12129
      C   11   -0.04153      0.99953     2.03061    0.01140     3.04153
      C   12   -0.20898      0.99962     2.19873    0.01063     3.20898
      N   13   -0.20130      0.99970     2.68754    0.01406     3.70130
      N   14    0.12749      0.99970     2.35577    0.01704     3.37251
      N   15   -0.03792      0.99982     2.52525    0.01285     3.53792
      H   16    0.09199      0.00000     0.40650    0.00151     0.40801
      H   17    0.09560      0.00000     0.40354    0.00086     0.40440
      H   18    0.09128      0.00000     0.40768    0.00103     0.40872
      H   19    0.09693      0.00000     0.40194    0.00113     0.40307
      H   20    0.11474      0.00000     0.38386    0.00141     0.38526
      H   21    0.09305      0.00000     0.40579    0.00116     0.40695
      H   22    0.09655      0.00000     0.40213    0.00131     0.40345
      H   23    0.09662      0.00000     0.40248    0.00090     0.40338
      H   24    0.10042      0.00000     0.39825    0.00134     0.39958
      H   25    0.08234      0.00000     0.41669    0.00097     0.41766
      H   26    0.08479      0.00000     0.41372    0.00149     0.41521
      H   27    0.08390      0.00000     0.41469    0.00141     0.41610
      H   28    0.08201      0.00000     0.41657    0.00142     0.41799
      H   29    0.08769      0.00000     0.41101    0.00130     0.41231
      H   30    0.07919      0.00000     0.41976    0.00106     0.42081
      H   31    0.09275      0.00000     0.40619    0.00106     0.40725
      H   32    0.09724      0.00000     0.40152    0.00123     0.40276
 =======================================================================
   * Total *   -0.00000     14.99364    39.81148    0.19487    55.00000

 Normal termination of Gaussian 16 at Thu Dec 10 15:32:56 2020.
