 Gaussian 16, Revision A.03,

 -----------------------------------------------------------
 # opt freq B3LYP/6-31G(d) empiricaldispersion=gd3bj scf=xqc
 -----------------------------------------------------------

 ------------------------------
 CID_69814207_JID_9890_neutraal
 ------------------------------
 Symbolic Z-matrix:
 Charge =  0 Multiplicity = 1

 SCF Done:  E(RB3LYP) =  -916.668005858     A.U. after   15 cycles
 SCF Done:  E(RB3LYP) =  -916.672453312     A.U. after   14 cycles
 SCF Done:  E(RB3LYP) =  -916.667778719     A.U. after   15 cycles
 SCF Done:  E(RB3LYP) =  -916.673867811     A.U. after   13 cycles
 SCF Done:  E(RB3LYP) =  -916.674911690     A.U. after   13 cycles
 SCF Done:  E(RB3LYP) =  -916.676887959     A.U. after   12 cycles
 SCF Done:  E(RB3LYP) =  -916.677770031     A.U. after   12 cycles
 SCF Done:  E(RB3LYP) =  -916.679139599     A.U. after   13 cycles
 SCF Done:  E(RB3LYP) =  -916.679922020     A.U. after   13 cycles
 SCF Done:  E(RB3LYP) =  -916.680145183     A.U. after   12 cycles
 SCF Done:  E(RB3LYP) =  -916.681415600     A.U. after    9 cycles
 SCF Done:  E(RB3LYP) =  -916.681416082     A.U. after    8 cycles
 SCF Done:  E(RB3LYP) =  -916.681416405     A.U. after    8 cycles
 SCF Done:  E(RB3LYP) =  -916.681416563     A.U. after    8 cycles
 SCF Done:  E(RB3LYP) =  -916.681416610     A.U. after    8 cycles
 SCF Done:  E(RB3LYP) =  -916.681416641     A.U. after    6 cycles
 Optimization completed.
    -- Stationary point found.
 Normal termination of Gaussian 16 at Sun Dec 13 20:53:10 2020.

 --------------------------------------------------------------------
 #N Geom=AllCheck Guess=TCheck SCRF=Check GenChk RB3LYP/6-31G(d) Freq
 --------------------------------------------------------------------

 Structure from the checkpoint file:  "JID_9890.chk"
 ------------------------------
 CID_69814207_JID_9890_neutraal
 ------------------------------
 Charge =  0 Multiplicity = 1

 SCF Done:  E(RB3LYP) =  -916.681416641     A.U. after    2 cycles

  Exact polarizability: 192.160 -18.801 152.088 -13.463 -13.792 133.386
 Approx polarizability: 267.913 -35.088 228.324 -26.469 -39.329 227.891

                      1                      2                      3
                      A                      A                      A
 Frequencies --     30.6396                34.2999                43.2168
 Red. masses --      4.0021                 4.2588                 3.5074
 Frc consts  --      0.0022                 0.0030                 0.0039
 IR Inten    --      0.3256                 0.6501                 2.9856

                      4                      5                      6
                      A                      A                      A
 Frequencies --     59.9404                86.2097                91.2075
 Red. masses --      4.1250                 4.0299                 3.3537
 Frc consts  --      0.0087                 0.0176                 0.0164
 IR Inten    --      1.6208                 5.0624                 1.8613

                      7                      8                      9
                      A                      A                      A
 Frequencies --    103.7905               116.6954               129.9044
 Red. masses --      6.3125                 4.6321                 2.4301
 Frc consts  --      0.0401                 0.0372                 0.0242
 IR Inten    --      2.9124                 0.8526                11.3112

                     10                     11                     12
                      A                      A                      A
 Frequencies --    153.6495               192.9211               209.1056
 Red. masses --      1.5304                 3.8833                 1.3109
 Frc consts  --      0.0213                 0.0852                 0.0338
 IR Inten    --     29.0644                 0.5208                 2.0079

                     13                     14                     15
                      A                      A                      A
 Frequencies --    218.5346               243.2305               260.2511
 Red. masses --      2.4849                 3.7441                 1.0901
 Frc consts  --      0.0699                 0.1305                 0.0435
 IR Inten    --      4.7608                 2.8452                 0.4116

                     16                     17                     18
                      A                      A                      A
 Frequencies --    270.1450               275.2260               294.8855
 Red. masses --      2.7183                 1.3218                 4.1647
 Frc consts  --      0.1169                 0.0590                 0.2134
 IR Inten    --      4.3901                 0.8884                 5.5131

                     19                     20                     21
                      A                      A                      A
 Frequencies --    322.4251               350.4212               353.0841
 Red. masses --      3.1084                 2.5710                 2.3169
 Frc consts  --      0.1904                 0.1860                 0.1702
 IR Inten    --      0.3513                13.0074                31.1025

                     22                     23                     24
                      A                      A                      A
 Frequencies --    378.5273               382.0666               422.2806
 Red. masses --      2.3657                 2.4843                 3.6040
 Frc consts  --      0.1997                 0.2137                 0.3787
 IR Inten    --     70.6428                89.8863                 6.6526

                     25                     26                     27
                      A                      A                      A
 Frequencies --    423.8032               436.7619               462.7961
 Red. masses --      3.2844                 2.9169                 3.0348
 Frc consts  --      0.3476                 0.3278                 0.3830
 IR Inten    --      2.9433                20.2404                 7.1306

                     28                     29                     30
                      A                      A                      A
 Frequencies --    470.3005               504.1500               517.7023
 Red. masses --      4.7462                 3.3264                 3.8739
 Frc consts  --      0.6185                 0.4981                 0.6117
 IR Inten    --     16.1245                 1.9807                 3.4439

                     31                     32                     33
                      A                      A                      A
 Frequencies --    584.8205               648.7061               670.2852
 Red. masses --      7.0336                 6.6024                 4.3951
 Frc consts  --      1.4173                 1.6370                 1.1634
 IR Inten    --      5.9082                 1.0292                13.1947

                     34                     35                     36
                      A                      A                      A
 Frequencies --    706.4235               753.1735               764.4789
 Red. masses --      4.8061                11.0068                 3.9837
 Frc consts  --      1.4131                 3.6788                 1.3717
 IR Inten    --     16.7170                24.6427                17.8950

                     37                     38                     39
                      A                      A                      A
 Frequencies --    777.4300               807.9539               841.6184
 Red. masses --      3.9325                 5.2672                 5.9288
 Frc consts  --      1.4004                 2.0258                 2.4743
 IR Inten    --     23.3957                31.1752                 0.1478

                     40                     41                     42
                      A                      A                      A
 Frequencies --    858.8296               872.0981               876.4920
 Red. masses --      1.7298                 1.2735                 3.6713
 Frc consts  --      0.7517                 0.5707                 1.6618
 IR Inten    --     15.3731                 6.4182                26.7529

                     43                     44                     45
                      A                      A                      A
 Frequencies --    939.4466               941.0418               947.7297
 Red. masses --      1.6242                 1.8458                 3.7897
 Frc consts  --      0.8446                 0.9631                 2.0055
 IR Inten    --      0.3038                14.5153                29.6025

                     46                     47                     48
                      A                      A                      A
 Frequencies --    975.9523               986.5126               987.9119
 Red. masses --      1.3574                 1.1997                 1.3356
 Frc consts  --      0.7617                 0.6879                 0.7680
 IR Inten    --      9.4631                 0.1056                 4.6766

                     49                     50                     51
                      A                      A                      A
 Frequencies --   1000.4126              1040.6486              1068.9028
 Red. masses --      1.5073                 2.8941                 1.4100
 Frc consts  --      0.8888                 1.8466                 0.9492
 IR Inten    --     19.8342                23.1317                 0.5529

                     52                     53                     54
                      A                      A                      A
 Frequencies --   1073.5519              1077.3554              1084.2524
 Red. masses --      1.4571                 2.8230                 2.6827
 Frc consts  --      0.9894                 1.9306                 1.8582
 IR Inten    --      6.8333               134.0895               176.6880

                     55                     56                     57
                      A                      A                      A
 Frequencies --   1144.7247              1152.0566              1200.3109
 Red. masses --      1.7825                 2.6545                 1.6107
 Frc consts  --      1.3762                 2.0758                 1.3673
 IR Inten    --     27.9510                16.4366               211.1870

                     58                     59                     60
                      A                      A                      A
 Frequencies --   1213.3599              1217.6756              1235.9025
 Red. masses --      1.5971                 1.1708                 2.5852
 Frc consts  --      1.3853                 1.0228                 2.3266
 IR Inten    --    125.5529                36.0626                 9.0662

                     61                     62                     63
                      A                      A                      A
 Frequencies --   1240.3410              1273.3591              1290.5029
 Red. masses --      2.6389                 3.4059                 2.6835
 Frc consts  --      2.3919                 3.2537                 2.6331
 IR Inten    --     11.5832               237.3736                13.7061

                     64                     65                     66
                      A                      A                      A
 Frequencies --   1305.7779              1333.7249              1350.3614
 Red. masses --      2.8211                 1.6164                 2.6350
 Frc consts  --      2.8341                 1.6940                 2.8309
 IR Inten    --     69.0705                 3.3478                 3.3120

                     67                     68                     69
                      A                      A                      A
 Frequencies --   1393.2452              1400.1248              1426.2481
 Red. masses --      4.6722                 1.5341                 1.2838
 Frc consts  --      5.3435                 1.7719                 1.5387
 IR Inten    --    320.4733                 6.7191                13.0569

                     70                     71                     72
                      A                      A                      A
 Frequencies --   1428.8628              1429.6339              1437.1637
 Red. masses --      1.3359                 1.3159                 1.6282
 Frc consts  --      1.6070                 1.5847                 1.9814
 IR Inten    --     45.6650                35.5554               113.5319

                     73                     74                     75
                      A                      A                      A
 Frequencies --   1454.9623              1461.9547              1500.7599
 Red. masses --      1.2469                 2.3894                 1.0463
 Frc consts  --      1.5552                 3.0089                 1.3884
 IR Inten    --     19.9698                23.8598                 0.4265

                     76                     77                     78
                      A                      A                      A
 Frequencies --   1519.4204              1521.8186              1526.0703
 Red. masses --      1.0470                 1.0516                 1.0947
 Frc consts  --      1.4241                 1.4350                 1.5021
 IR Inten    --      1.1879                 0.9203                 1.9946

                     79                     80                     81
                      A                      A                      A
 Frequencies --   1526.5564              1533.3830              1555.8409
 Red. masses --      1.0672                 1.0542                 1.0586
 Frc consts  --      1.4652                 1.4604                 1.5097
 IR Inten    --      9.4725                 1.1168                10.5797

                     82                     83                     84
                      A                      A                      A
 Frequencies --   1558.7425              1630.0838              1672.5992
 Red. masses --      2.3985                 6.6232                 5.7232
 Frc consts  --      3.4335                10.3691                 9.4336
 IR Inten    --      1.1380                 4.2480                26.7719

                     85                     86                     87
                      A                      A                      A
 Frequencies --   1691.9307              1770.9369              1801.7415
 Red. masses --      1.1310                11.2872                 8.4997
 Frc consts  --      1.9076                20.8566                16.2569
 IR Inten    --     76.5133               424.3164               181.8627

                     88                     89                     90
                      A                      A                      A
 Frequencies --   3005.1585              3061.8584              3064.1119
 Red. masses --      1.0700                 1.0364                 1.0363
 Frc consts  --      5.6933                 5.7245                 5.7326
 IR Inten    --     57.4378                 7.8008                18.5885

                     91                     92                     93
                      A                      A                      A
 Frequencies --   3071.0273              3076.6231              3126.3509
 Red. masses --      1.0373                 1.0932                 1.1025
 Frc consts  --      5.7640                 6.0968                 6.3491
 IR Inten    --     14.0171                22.0336                 8.5487

                     94                     95                     96
                      A                      A                      A
 Frequencies --   3131.6934              3139.3604              3146.0201
 Red. masses --      1.1023                 1.1027                 1.1032
 Frc consts  --      6.3695                 6.4029                 6.4332
 IR Inten    --     10.7764                36.5137                21.7908

                     97                     98                     99
                      A                      A                      A
 Frequencies --   3166.1269              3172.9761              3182.3751
 Red. masses --      1.1015                 1.1001                 1.0892
 Frc consts  --      6.5060                 6.5257                 6.4990
 IR Inten    --      4.3022                 7.5341                15.0582

                    100                    101                    102
                      A                      A                      A
 Frequencies --   3203.2815              3217.8963              3222.0117
 Red. masses --      1.0873                 1.0940                 1.0927
 Frc consts  --      6.5731                 6.6744                 6.6838
 IR Inten    --      2.1935                 7.2960                 2.5424

                    103                    104                    105
                      A                      A                      A
 Frequencies --   3431.8994              3542.0767              3731.9834
 Red. masses --      1.0507                 1.0911                 1.0661
 Frc consts  --      7.2913                 8.0653                 8.7482
 IR Inten    --      4.2476                16.2482                14.6088

 - Thermochemistry -
 -------------------
 Temperature   298.150 Kelvin.  Pressure   1.00000 Atm.
 Atom     1 has atomic number  6 and mass  12.00000

 Molecular mass:   266.12666 amu.
 Principal axes and moments of inertia in atomic units:
                           1         2         3
     Eigenvalues --  3478.973776590.039868549.99612
           X            0.99984   0.01772  -0.00147
           Y           -0.01770   0.99978   0.01139
           Z            0.00167  -0.01136   0.99993
 This molecule is an asymmetric top.
 Rotational symmetry number  1.
 Warning -- assumption of classical behavior for rotation
           may cause significant error
 Rotational temperatures (Kelvin)      0.02490     0.01314     0.01013
 Rotational constants (GHZ):           0.51876     0.27386     0.21108
 Zero-point vibrational energy     801600.9 (Joules/Mol)
                                  191.58722 (Kcal/Mol)
 Warning -- explicit consideration of  31 degrees of freedom as
           vibrations may cause significant error
 Vibrational temperatures:     44.08    49.35    62.18    86.24   124.04
          (Kelvin)            131.23   149.33   167.90   186.90   221.07
                              277.57   300.86   314.42   349.95   374.44
                              388.68   395.99   424.27   463.90   504.18
                              508.01   544.62   549.71   607.57   609.76
                              628.40   665.86   676.66   725.36   744.86
                              841.43   933.34   964.39  1016.39  1083.65
                             1099.91  1118.55  1162.47  1210.90  1235.66
                             1254.75  1261.08  1351.65  1353.95  1363.57
                             1404.18  1419.37  1421.38  1439.37  1497.26
                             1537.91  1544.60  1550.07  1560.00  1647.00
                             1657.55  1726.98  1745.75  1751.96  1778.19
                             1784.57  1832.08  1856.75  1878.72  1918.93
                             1942.87  2004.57  2014.47  2052.05  2055.81
                             2056.92  2067.76  2093.37  2103.43  2159.26
                             2186.11  2189.56  2195.67  2196.37  2206.20
                             2238.51  2242.68  2345.33  2406.50  2434.31
                             2547.98  2592.30  4323.75  4405.33  4408.57
                             4418.52  4426.57  4498.12  4505.81  4516.84
                             4526.42  4555.35  4565.20  4578.73  4608.81
                             4629.84  4635.76  4937.74  5096.26  5369.49

 Zero-point correction=                           0.305314 (Hartree/Particle)
 Thermal correction to Energy=                    0.325158
 Thermal correction to Enthalpy=                  0.326102
 Thermal correction to Gibbs Free Energy=         0.256349
 Sum of electronic and zero-point Energies=           -916.376103
 Sum of electronic and thermal Energies=              -916.356259
 Sum of electronic and thermal Enthalpies=            -916.355315
 Sum of electronic and thermal Free Energies=         -916.425068

                     E (Thermal)             CV                S
                      KCal/Mol        Cal/Mol-Kelvin    Cal/Mol-Kelvin
 Total                  204.040             73.531            146.808
 Electronic               0.000              0.000              0.000
 Translational            0.889              2.981             42.636
 Rotational               0.889              2.981             33.638
 Vibrational            202.262             67.570             70.535
 Vibration     1          0.594              1.984              5.788
 Vibration     2          0.594              1.983              5.564
 Vibration     3          0.595              1.980              5.106
 Vibration     4          0.597              1.973              4.459
 Vibration     5          0.601              1.959              3.744
 Vibration     6          0.602              1.955              3.634
 Vibration     7          0.605              1.946              3.382
 Vibration     8          0.608              1.936              3.154
 Vibration     9          0.612              1.923              2.947
 Vibration    10          0.619              1.899              2.627
 Vibration    11          0.635              1.850              2.200
 Vibration    12          0.642              1.827              2.051
 Vibration    13          0.646              1.813              1.971
 Vibration    14          0.659              1.774              1.779
 Vibration    15          0.668              1.745              1.660
 Vibration    16          0.674              1.728              1.595
 Vibration    17          0.677              1.719              1.563
 Vibration    18          0.689              1.683              1.446
 Vibration    19          0.707              1.631              1.298
 Vibration    20          0.727              1.574              1.164
 Vibration    21          0.729              1.569              1.152
 Vibration    22          0.749              1.516              1.045
 Vibration    23          0.752              1.508              1.031
 Vibration    24          0.785              1.422              0.884
 Vibration    25          0.786              1.418              0.879
 Vibration    26          0.797              1.390              0.837
 Vibration    27          0.820              1.333              0.758
 Vibration    28          0.827              1.316              0.737
 Vibration    29          0.859              1.241              0.648
 Vibration    30          0.873              1.211              0.615
 Vibration    31          0.942              1.064              0.477

 Optimization completed.
    -- Stationary point found.
 Normal termination of Gaussian 16 at Sun Dec 13 21:12:00 2020.

 ----------------------------------------------------------------------
 # B3LYP/6-311++G(d,p) empiricaldispersion=gd3bj scf=xqc pop=npa geom=c
 heck
 ----------------------------------------------------------------------

 --------------------------------------
 CID_69814207_JID_9890_Energie_neutraal
 --------------------------------------
 Structure from the checkpoint file:  "JID_9890.chk"
 Charge =  0 Multiplicity = 1

 SCF Done:  E(RB3LYP) =  -916.955683112     A.U. after   15 cycles
 Normal termination of Gaussian 16 at Sun Dec 13 21:19:02 2020.

 ----------------------------------------------------------------------
 # B3LYP/6-311++G(d,p) empiricaldispersion=gd3bj scf=xqc pop=npa geom=c
 heck
 ----------------------------------------------------------------------

 ------------------------------------
 CID_69814207_JID_9890_Energie_kation
 ------------------------------------
 Structure from the checkpoint file:  "JID_9890.chk"
 Charge =  1 Multiplicity = 2

 SCF Done:  E(UB3LYP) =  -916.635487223     A.U. after   31 cycles
 Normal termination of Gaussian 16 at Sun Dec 13 21:39:28 2020.
 Gaussian 16:  ES64L-G16RevA.03 25-Dec-2016

 ----------------------------------------------------------------------
 # B3LYP/6-311++G(d,p) empiricaldispersion=gd3bj scf=xqc pop=npa geom=c
 heck
 ----------------------------------------------------------------------

 -----------------------------------
 CID_69814207_JID_9890_Energie_anion
 -----------------------------------
 Structure from the checkpoint file:  "JID_9890.chk"
 Charge = -1 Multiplicity = 2

                         Standard orientation:
 ---------------------------------------------------------------------
 Center     Atomic      Atomic             Coordinates (Angstroms)
 Number     Number       Type             X           Y           Z
 ---------------------------------------------------------------------
      1          6           0        0.226508    2.390311    1.242459
      2          6           0        1.433345    2.064432    0.364281
      3          6           0        1.218581    2.553082   -1.067764
      4          6           0        2.730419    2.591053    0.976179
      5          8           0        1.443907    0.587163    0.390272
      6          6           0        2.281341   -0.121002   -0.367647
      7          8           0        3.272088    0.283961   -0.950131
      8          7           0        1.900758   -1.468614   -0.423260
      9          6           0        0.806080   -2.051570    0.263927
     10          8           0        0.947380   -3.124149    0.820691
     11          6           0       -0.501313   -1.342854    0.198774
     12          6           0       -1.384013   -1.473545    1.274989
     13          6           0       -2.629047   -0.853098    1.235821
     14          6           0       -3.021142   -0.110023    0.116630
     15          6           0       -2.147688   -0.012808   -0.974505
     16          6           0       -0.897426   -0.620212   -0.933230
     17          6           0       -4.363369    0.592067    0.085725
     18          8           0       -4.905720    0.726608   -1.219896
     19          7           0        2.885029   -2.397378   -0.871557
     20          1           0        0.102256    3.475446    1.315272
     21          1           0        0.365765    1.986733    2.249978
     22          1           0       -0.684259    1.957105    0.819026
     23          1           0        1.119411    3.643572   -1.066652
     24          1           0        2.059232    2.281585   -1.708746
     25          1           0        0.297942    2.127476   -1.479097
     26          1           0        2.874364    2.171016    1.977024
     27          1           0        3.588933    2.330775    0.355513
     28          1           0        2.674497    3.681206    1.067433
     29          1           0       -1.080543   -2.063984    2.133111
     30          1           0       -3.307839   -0.952368    2.079597
     31          1           0       -2.464842    0.539307   -1.853522
     32          1           0       -0.225464   -0.542965   -1.781935
     33          1           0       -5.063816    0.080802    0.764728
     34          1           0       -4.256615    1.618991    0.455103
     35          1           0       -5.003091   -0.167395   -1.584991
     36          1           0        3.510430   -1.834312   -1.447724
     37          1           0        3.418240   -2.694713   -0.051711
 ---------------------------------------------------------------------

 SCF Done:  E(UB3LYP) =  -916.967779656     A.U. after   27 cycles

 The electronic state is 2-A.
 Alpha  occ. eigenvalues --  -19.04690 -19.01852 -18.98714 -18.93778 -14.24439
 Alpha  occ. eigenvalues --  -14.21521 -10.20442 -10.14686 -10.10818 -10.10641
 Alpha  occ. eigenvalues --  -10.06892 -10.06398 -10.06194 -10.03983 -10.03649
 Alpha  occ. eigenvalues --  -10.03466 -10.03456 -10.03076 -10.02785  -0.99936
 Alpha  occ. eigenvalues --   -0.91938  -0.91576  -0.90064  -0.84444  -0.72684
 Alpha  occ. eigenvalues --   -0.72110  -0.68102  -0.63680  -0.61197  -0.60275
 Alpha  occ. eigenvalues --   -0.59889  -0.56531  -0.53841  -0.49587  -0.47649
 Alpha  occ. eigenvalues --   -0.46582  -0.41889  -0.41407  -0.40195  -0.39240
 Alpha  occ. eigenvalues --   -0.37150  -0.36970  -0.35915  -0.35115  -0.34483
 Alpha  occ. eigenvalues --   -0.33165  -0.33086  -0.32019  -0.31491  -0.29922
 Alpha  occ. eigenvalues --   -0.29487  -0.29345  -0.28947  -0.28600  -0.27392
 Alpha  occ. eigenvalues --   -0.26381  -0.26056  -0.25585  -0.25272  -0.24174
 Alpha  occ. eigenvalues --   -0.22346  -0.21693  -0.20776  -0.19769  -0.18633
 Alpha  occ. eigenvalues --   -0.17525  -0.17381  -0.12811  -0.12480  -0.11848
 Alpha  occ. eigenvalues --   -0.10865   0.04178
 Alpha virt. eigenvalues --    0.06890   0.07853   0.08835   0.08965   0.09364
 Alpha virt. eigenvalues --    0.10156   0.10415   0.10667   0.11394   0.11889
 Alpha virt. eigenvalues --    0.12117   0.12403   0.13091   0.13440   0.13932

  Beta  occ. eigenvalues --  -19.04665 -19.01822 -18.98651 -18.93324 -14.24489
  Beta  occ. eigenvalues --  -14.21490 -10.20350 -10.14686 -10.10662 -10.10491
  Beta  occ. eigenvalues --  -10.06890 -10.06386 -10.06187 -10.04033 -10.03678
  Beta  occ. eigenvalues --  -10.03358 -10.03134 -10.02941 -10.02638  -0.99836
  Beta  occ. eigenvalues --   -0.91857  -0.91431  -0.89552  -0.84098  -0.72544
  Beta  occ. eigenvalues --   -0.71866  -0.67926  -0.63257  -0.60954  -0.60258
  Beta  occ. eigenvalues --   -0.59873  -0.56245  -0.53662  -0.49285  -0.47474
  Beta  occ. eigenvalues --   -0.46239  -0.41764  -0.41293  -0.40097  -0.39087
  Beta  occ. eigenvalues --   -0.36998  -0.36920  -0.35828  -0.34944  -0.34341
  Beta  occ. eigenvalues --   -0.32957  -0.32917  -0.31953  -0.31286  -0.29759
  Beta  occ. eigenvalues --   -0.29441  -0.29115  -0.28830  -0.28264  -0.27360
  Beta  occ. eigenvalues --   -0.26245  -0.25812  -0.25083  -0.24788  -0.23825
  Beta  occ. eigenvalues --   -0.21827  -0.21192  -0.20656  -0.19542  -0.18275
  Beta  occ. eigenvalues --   -0.17389  -0.16921  -0.12282  -0.11915  -0.11303
  Beta  occ. eigenvalues --   -0.09604
  Beta virt. eigenvalues --    0.06731   0.07761   0.08776   0.08870   0.09173
  Beta virt. eigenvalues --    0.09785   0.10325   0.10473   0.10767   0.11515
  Beta virt. eigenvalues --    0.11892   0.12035   0.12476   0.13383   0.13597

 Mulliken charges and spin densities:
               1          2
     1  C   -0.481025  -0.019992
     2  C   -0.005343   0.076920
     3  C   -0.353010  -0.154499
     4  C   -0.440506  -0.006880
     5  O    0.167944   0.008591
     6  C   -0.012228   0.029916
     7  O   -0.335510   0.021878
     8  N   -0.095323  -0.040314
     9  C   -0.445414   0.195126
    10  O   -0.384952   0.161105
    11  C    0.583970  -0.032025
    12  C   -0.163294   0.201738
    13  C   -0.510654   0.053036
    14  C    0.022810   0.398318
    15  C   -0.479591   0.010156
    16  C   -0.316343   0.088625
    17  C    0.064302  -0.437941
    18  O   -0.227224  -0.006098
    19  N   -0.276847   0.020352
    20  H    0.084866   0.036231
    21  H    0.087662   0.043507
    22  H    0.302869  -0.066211
    23  H    0.093303   0.048464
    24  H    0.143767   0.034464
    25  H    0.136652   0.019670
    26  H    0.138202   0.010683
    27  H    0.178016   0.003758
    28  H    0.129210   0.006903
    29  H    0.158356   0.005055
    30  H    0.123618   0.009019
    31  H    0.133386   0.031259
    32  H    0.161337  -0.008503
    33  H    0.146615  -0.004936
    34  H    0.017413   0.179890
    35  H    0.173235   0.055764
    36  H    0.235892   0.011653
    37  H    0.243840   0.015321
 Sum of Mulliken charges =  -1.00000   1.00000

 Dipole moment (field-independent basis, Debye):
    X=              1.4923    Y=              5.3380    Z=              0.7667  Tot=              5.5954
 Quadrupole moment (field-independent basis, Debye-Ang):
   XX=           -157.3624   YY=           -150.5478   ZZ=           -125.5301
   XY=             11.7800   XZ=             -0.4803   YZ=              5.4918

 Summary of Natural Population Analysis:

                                       Natural Population
                Natural  -----------------------------------------------
    Atom  No    Charge         Core      Valence    Rydberg      Total
 -----------------------------------------------------------------------
      C    1   -0.29126      0.99960     2.28530    0.00636     3.29126
      C    2    0.13648      0.99954     1.85036    0.01362     2.86352
      C    3   -0.30373      0.99960     2.29880    0.00533     3.30373
      C    4   -0.30014      0.99960     2.29491    0.00562     3.30014
      O    5   -0.28634      0.99984     3.27541    0.01109     4.28634
      C    6    0.47889      0.99967     1.49618    0.02526     2.52111
      O    7   -0.34211      0.99987     3.33726    0.00499     4.34211
      N    8   -0.19896      0.99961     2.68724    0.01212     3.69896
      C    9    0.38345      0.99961     1.59327    0.02367     2.61655
      O   10   -0.25777      0.99988     3.25270    0.00519     4.25777
      C   11   -0.03943      0.99946     2.02776    0.01221     3.03943
      C   12   -0.05418      0.99953     2.04600    0.00865     3.05418
      C   13   -0.12261      0.99953     2.11420    0.00888     3.12261
      C   14    0.01052      0.99950     1.97833    0.01165     2.98948
      C   15   -0.12632      0.99952     2.11695    0.00986     3.12632
      C   16   -0.06754      0.99953     2.05953    0.00848     3.06754
      C   17   -0.01200      0.99956     2.00079    0.01164     3.01200
      O   18   -0.36873      0.99990     3.36207    0.00676     4.36873
      N   19   -0.30643      0.99977     2.79579    0.01087     3.80643
      H   20    0.09441      0.00000     0.40481    0.00078     0.40559
      H   21    0.10329      0.00000     0.39569    0.00102     0.39671
      H   22    0.11682      0.00000     0.38208    0.00109     0.38318
      H   23    0.09737      0.00000     0.40171    0.00092     0.40263
      H   24    0.11183      0.00000     0.38697    0.00120     0.38817
      H   25    0.10986      0.00000     0.38889    0.00124     0.39014
      H   26    0.10128      0.00000     0.39780    0.00092     0.39872
      H   27    0.11424      0.00000     0.38478    0.00099     0.38576
      H   28    0.09606      0.00000     0.40309    0.00085     0.40394
      H   29    0.10113      0.00000     0.39750    0.00137     0.39887
      H   30    0.09091      0.00000     0.40790    0.00119     0.40909
      H   31    0.09978      0.00000     0.39898    0.00124     0.40022
      H   32    0.09487      0.00000     0.40354    0.00160     0.40513
      H   33    0.07379      0.00000     0.42467    0.00154     0.42621
      H   34    0.08815      0.00000     0.40992    0.00193     0.41185
      H   35    0.22509      0.00000     0.27168    0.00322     0.27491
      H   36    0.18001      0.00000     0.31788    0.00211     0.31999
      H   37    0.16931      0.00000     0.32811    0.00258     0.33069
 =======================================================================
   * Total *   -0.00000     18.99314    51.77883    0.22802    71.00000

 Normal termination of Gaussian 16 at Sun Dec 13 21:56:23 2020.
