 Gaussian 16, Revision A.03,

 -----------------------------------------------------------
 # opt freq B3LYP/6-31G(d) empiricaldispersion=gd3bj scf=xqc
 -----------------------------------------------------------

 -------------------------------
 CID_140518919_JID_7322_neutraal
 -------------------------------
 Symbolic Z-matrix:
 Charge =  0 Multiplicity = 1

 SCF Done:  E(RB3LYP) =  -728.102765248     A.U. after   16 cycles
 SCF Done:  E(RB3LYP) =  -728.106535016     A.U. after   14 cycles
 SCF Done:  E(RB3LYP) =  -728.106064460     A.U. after   14 cycles
 SCF Done:  E(RB3LYP) =  -728.107773530     A.U. after   13 cycles
 SCF Done:  E(RB3LYP) =  -728.107948705     A.U. after   13 cycles
 SCF Done:  E(RB3LYP) =  -728.108067799     A.U. after   13 cycles
 SCF Done:  E(RB3LYP) =  -728.108121340     A.U. after   11 cycles
 SCF Done:  E(RB3LYP) =  -728.108135526     A.U. after   11 cycles
 SCF Done:  E(RB3LYP) =  -728.108136055     A.U. after    8 cycles
 SCF Done:  E(RB3LYP) =  -728.108136113     A.U. after    8 cycles
 SCF Done:  E(RB3LYP) =  -728.108136137     A.U. after    7 cycles
 Optimization completed.
    -- Stationary point found.
 Normal termination of Gaussian 16 at Mon Dec 14 13:16:36 2020.

 --------------------------------------------------------------------
 #N Geom=AllCheck Guess=TCheck SCRF=Check GenChk RB3LYP/6-31G(d) Freq
 --------------------------------------------------------------------

 Structure from the checkpoint file:  "JID_7322.chk"
 -------------------------------
 CID_140518919_JID_7322_neutraal
 -------------------------------
 Charge =  0 Multiplicity = 1

 SCF Done:  E(RB3LYP) =  -728.108136137     A.U. after    1 cycles

  Exact polarizability: 355.825   5.683 186.182   0.001   0.005  50.987
 Approx polarizability: 650.649   9.733 361.953   0.011   0.009  82.230

                      1                      2                      3
                      A                      A                      A
 Frequencies --     41.6467                50.9862                95.3787
 Red. masses --      8.2581                 5.5573                 4.3334
 Frc consts  --      0.0084                 0.0085                 0.0232
 IR Inten    --      1.1186                 0.0793                 0.8618

                      4                      5                      6
                      A                      A                      A
 Frequencies --    117.1769               136.9667               191.3678
 Red. masses --      6.7459                 4.7879                 3.5235
 Frc consts  --      0.0546                 0.0529                 0.0760
 IR Inten    --      0.3387                 0.1606                 0.0079

                      7                      8                      9
                      A                      A                      A
 Frequencies --    232.1830               261.2587               300.9042
 Red. masses --      6.3254                 6.0124                 3.7389
 Frc consts  --      0.2009                 0.2418                 0.1995
 IR Inten    --      1.0917                 2.0541                 0.8782

                     10                     11                     12
                      A                      A                      A
 Frequencies --    316.3153               358.8727               436.5598
 Red. masses --      4.2683                 8.7990                 3.1240
 Frc consts  --      0.2516                 0.6677                 0.3508
 IR Inten    --      0.7520                11.9621                 1.5886

                     13                     14                     15
                      A                      A                      A
 Frequencies --    441.6536               450.3521               533.5038
 Red. masses --      6.6056                 2.7531                 4.5220
 Frc consts  --      0.7591                 0.3290                 0.7583
 IR Inten    --      5.5436                 0.0034                17.3454

                     16                     17                     18
                      A                      A                      A
 Frequencies --    557.8981               558.7423               585.2392
 Red. masses --      3.0562                 6.9994                 1.3052
 Frc consts  --      0.5605                 1.2875                 0.2634
 IR Inten    --      0.1236                 2.8833                80.9041

                     19                     20                     21
                      A                      A                      A
 Frequencies --    611.2776               632.0875               638.8752
 Red. masses --      5.2004                 3.2160                 5.9285
 Frc consts  --      1.1449                 0.7571                 1.4257
 IR Inten    --     28.2048                26.8570                 8.6654

                     22                     23                     24
                      A                      A                      A
 Frequencies --    685.1349               716.9372               746.8530
 Red. masses --      5.6929                 2.5947                 3.0332
 Frc consts  --      1.5745                 0.7858                 0.9968
 IR Inten    --     61.3728                20.0241                 0.6417

                     25                     26                     27
                      A                      A                      A
 Frequencies --    760.7661               761.9787               779.0268
 Red. masses --      1.6125                 6.0302                 1.8904
 Frc consts  --      0.5499                 2.0628                 0.6759
 IR Inten    --      5.0550                 5.4011                69.1415

                     28                     29                     30
                      A                      A                      A
 Frequencies --    822.2636               846.4072               862.1430
 Red. masses --      2.0273                 4.8350                 4.9031
 Frc consts  --      0.8076                 2.0408                 2.1472
 IR Inten    --     16.1610                 3.1189                 0.9996

                     31                     32                     33
                      A                      A                      A
 Frequencies --    872.7674               883.3096               897.2943
 Red. masses --      1.4981                 1.6186                 5.5617
 Frc consts  --      0.6723                 0.7441                 2.6383
 IR Inten    --      2.5843                18.9007                 8.0410

                     34                     35                     36
                      A                      A                      A
 Frequencies --    902.9140               929.2589               940.6511
 Red. masses --      1.5195                 1.4978                 1.4204
 Frc consts  --      0.7299                 0.7620                 0.7405
 IR Inten    --      8.3116                 3.3846                 1.8961

                     37                     38                     39
                      A                      A                      A
 Frequencies --    966.6965               978.8282               996.1429
 Red. masses --      4.7304                 1.2745                 1.2877
 Frc consts  --      2.6045                 0.7194                 0.7529
 IR Inten    --     28.0367                 0.0827                 0.0377

                     40                     41                     42
                      A                      A                      A
 Frequencies --   1051.0880              1053.2549              1080.8300
 Red. masses --      2.1976                 2.2483                 2.8225
 Frc consts  --      1.4304                 1.4695                 1.9427
 IR Inten    --      4.2768                 2.5919                35.4571

                     43                     44                     45
                      A                      A                      A
 Frequencies --   1126.1749              1187.2506              1199.5709
 Red. masses --      1.8601                 1.2178                 1.5061
 Frc consts  --      1.3899                 1.0114                 1.2769
 IR Inten    --      1.9699                21.8666               164.5587

                     46                     47                     48
                      A                      A                      A
 Frequencies --   1211.7321              1224.2650              1235.1671
 Red. masses --      1.5576                 1.7866                 2.3953
 Frc consts  --      1.3475                 1.5778                 2.1531
 IR Inten    --    364.5841                10.6761                33.0684

                     49                     50                     51
                      A                      A                      A
 Frequencies --   1279.8060              1314.6565              1336.8745
 Red. masses --      1.9542                 2.7313                 1.5989
 Frc consts  --      1.8858                 2.7813                 1.6837
 IR Inten    --     25.1716                 2.7531                 1.4372

                     52                     53                     54
                      A                      A                      A
 Frequencies --   1355.5259              1394.5626              1401.5919
 Red. masses --      1.6415                 2.3340                 3.4303
 Frc consts  --      1.7771                 2.6744                 3.9703
 IR Inten    --     22.4609               193.3656                36.6889

                     55                     56                     57
                      A                      A                      A
 Frequencies --   1428.3567              1468.6507              1485.6556
 Red. masses --      3.1817                 1.8335                 2.9689
 Frc consts  --      3.8246                 2.3300                 3.8608
 IR Inten    --     39.8487                18.0471                26.0459

                     58                     59                     60
                      A                      A                      A
 Frequencies --   1513.3974              1574.8750              1592.7475
 Red. masses --      2.5764                 5.1091                 7.2460
 Frc consts  --      3.4768                 7.4660                10.8304
 IR Inten    --      3.0414               116.6211                 7.6338

                     61                     62                     63
                      A                      A                      A
 Frequencies --   1618.1693              1641.5834              1660.9017
 Red. masses --      6.2494                 5.7271                 6.6396
 Frc consts  --      9.6413                 9.0931                10.7915
 IR Inten    --     90.2242                 0.2879                 1.5764

                     64                     65                     66
                      A                      A                      A
 Frequencies --   1713.2679              1785.8568              3184.0962
 Red. masses --      6.3020                 8.3142                 1.0860
 Frc consts  --     10.8989                15.6230                 6.4872
 IR Inten    --     11.3820               558.4700                 3.0896

                     67                     68                     69
                      A                      A                      A
 Frequencies --   3189.4793              3190.7499              3200.5892
 Red. masses --      1.0884                 1.0888                 1.0927
 Frc consts  --      6.5237                 6.5310                 6.5951
 IR Inten    --     13.6192                 4.1621                22.5387

                     70                     71                     72
                      A                      A                      A
 Frequencies --   3204.4670              3212.8343              3219.4202
 Red. masses --      1.0930                 1.0969                 1.0888
 Frc consts  --      6.6128                 6.6713                 6.6488
 IR Inten    --     26.6325                46.1204                 1.6011

                     73                     74                     75
                      A                      A                      A
 Frequencies --   3231.5352              3276.4682              3692.1516
 Red. masses --      1.0928                 1.0915                 1.0640
 Frc consts  --      6.7240                 6.9037                 8.5457
 IR Inten    --      7.0838                 5.3808                98.4318

 - Thermochemistry -
 -------------------
 Temperature   298.150 Kelvin.  Pressure   1.00000 Atm.
 Atom     1 has atomic number  6 and mass  12.00000

 Molecular mass:   222.06808 amu.
 Principal axes and moments of inertia in atomic units:
                           1         2         3
     Eigenvalues --  1501.632477125.215568626.84788
           X            0.99997   0.00769  -0.00000
           Y           -0.00769   0.99997   0.00001
           Z            0.00000  -0.00001   1.00000
 This molecule is an asymmetric top.
 Rotational symmetry number  1.
 Warning -- assumption of classical behavior for rotation
           may cause significant error
 Rotational temperatures (Kelvin)      0.05768     0.01216     0.01004
 Rotational constants (GHZ):           1.20185     0.25329     0.20920
 Zero-point vibrational energy     546910.1 (Joules/Mol)
                                  130.71464 (Kcal/Mol)
 Warning -- explicit consideration of  19 degrees of freedom as
           vibrations may cause significant error
 Vibrational temperatures:     59.92    73.36   137.23   168.59   197.06
          (Kelvin)            275.34   334.06   375.89   432.93   455.11
                              516.34   628.11   635.44   647.96   767.59
                              802.69   803.91   842.03   879.49   909.43
                              919.20   985.76  1031.51  1074.55  1094.57
                             1096.32  1120.85  1183.05  1217.79  1240.43
                             1255.72  1270.89  1291.01  1299.09  1337.00
                             1353.39  1390.86  1408.32  1433.23  1512.28
                             1515.40  1555.07  1620.31  1708.19  1725.91
                             1743.41  1761.44  1777.13  1841.36  1891.50
                             1923.46  1950.30  2006.46  2016.58  2055.09
                             2113.06  2137.53  2177.44  2265.89  2291.61
                             2328.18  2361.87  2389.67  2465.01  2569.45
                             4581.20  4588.95  4590.78  4604.93  4610.51
                             4622.55  4632.03  4649.46  4714.11  5312.18

 Zero-point correction=                           0.208307 (Hartree/Particle)
 Thermal correction to Energy=                    0.221161
 Thermal correction to Enthalpy=                  0.222105
 Thermal correction to Gibbs Free Energy=         0.168037
 Sum of electronic and zero-point Energies=           -727.899829
 Sum of electronic and thermal Energies=              -727.886975
 Sum of electronic and thermal Enthalpies=            -727.886031
 Sum of electronic and thermal Free Energies=         -727.940099

                     E (Thermal)             CV                S
                      KCal/Mol        Cal/Mol-Kelvin    Cal/Mol-Kelvin
 Total                  138.780             51.544            113.795
 Electronic               0.000              0.000              0.000
 Translational            0.889              2.981             42.096
 Rotational               0.889              2.981             32.890
 Vibrational            137.003             45.582             38.809
 Vibration     1          0.594              1.981              5.179
 Vibration     2          0.595              1.977              4.779
 Vibration     3          0.603              1.952              3.547
 Vibration     4          0.608              1.935              3.146
 Vibration     5          0.614              1.916              2.846
 Vibration     6          0.634              1.852              2.215
 Vibration     7          0.653              1.792              1.862
 Vibration     8          0.669              1.744              1.653
 Vibration     9          0.693              1.672              1.412
 Vibration    10          0.703              1.642              1.329
 Vibration    11          0.734              1.557              1.127
 Vibration    12          0.797              1.391              0.837
 Vibration    13          0.801              1.379              0.821
 Vibration    14          0.809              1.360              0.795
 Vibration    15          0.888              1.176              0.579
 Vibration    16          0.913              1.122              0.528
 Vibration    17          0.914              1.121              0.526
 Vibration    18          0.942              1.063              0.476
 Vibration    19          0.970              1.008              0.431

 Optimization completed.
    -- Stationary point found.
 Normal termination of Gaussian 16 at Mon Dec 14 13:25:31 2020.

 ----------------------------------------------------------------------
 # B3LYP/6-311++G(d,p) empiricaldispersion=gd3bj scf=xqc pop=npa geom=c
 heck
 ----------------------------------------------------------------------

 ---------------------------------------
 CID_140518919_JID_7322_Energie_neutraal
 ---------------------------------------
 Structure from the checkpoint file:  "JID_7322.chk"
 Charge =  0 Multiplicity = 1

 SCF Done:  E(RB3LYP) =  -728.302693915     A.U. after   16 cycles
 Normal termination of Gaussian 16 at Mon Dec 14 13:29:41 2020.

 ----------------------------------------------------------------------
 # B3LYP/6-311++G(d,p) empiricaldispersion=gd3bj scf=xqc pop=npa geom=c
 heck
 ----------------------------------------------------------------------

 -------------------------------------
 CID_140518919_JID_7322_Energie_kation
 -------------------------------------
 Structure from the checkpoint file:  "JID_7322.chk"
 Charge =  1 Multiplicity = 2

 SCF Done:  E(UB3LYP) =  -728.030220259     A.U. after   23 cycles
 Normal termination of Gaussian 16 at Mon Dec 14 13:38:07 2020.
 Gaussian 16:  ES64L-G16RevA.03 25-Dec-2016

 ----------------------------------------------------------------------
 # B3LYP/6-311++G(d,p) empiricaldispersion=gd3bj scf=xqc pop=npa geom=c
 heck
 ----------------------------------------------------------------------

 ------------------------------------
 CID_140518919_JID_7322_Energie_anion
 ------------------------------------
 Structure from the checkpoint file:  "JID_7322.chk"
 Charge = -1 Multiplicity = 2

                         Standard orientation:
 ---------------------------------------------------------------------
 Center     Atomic      Atomic             Coordinates (Angstroms)
 Number     Number       Type             X           Y           Z
 ---------------------------------------------------------------------
      1          6           0       -4.422114   -1.271171   -0.000133
      2          6           0       -4.584659    0.117455    0.000281
      3          6           0       -3.471942    0.971165    0.000444
      4          6           0       -2.202709    0.411319    0.000190
      5          6           0       -2.034552   -1.001967   -0.000212
      6          6           0       -3.144880   -1.844092   -0.000391
      7          6           0       -0.608403   -1.289087   -0.000333
      8          6           0        0.098941   -0.109605   -0.000071
      9          6           0       -0.860255    0.999253    0.000193
     10          6           0       -0.434718    2.286997    0.000079
     11          6           0        0.983776    2.556966   -0.000201
     12          6           0        1.915094    1.566195   -0.000327
     13          6           0        1.538670    0.157070   -0.000110
     14          6           0        2.432085   -0.883377    0.000233
     15          6           0        3.894146   -0.894693    0.000170
     16          8           0        4.545199   -1.926325    0.000563
     17          8           0        4.513186    0.321776   -0.000322
     18          1           0       -5.297994   -1.913422   -0.000246
     19          1           0       -5.584662    0.541114    0.000474
     20          1           0       -3.609120    2.049292    0.000751
     21          1           0       -3.024660   -2.923995   -0.000695
     22          1           0       -0.193190   -2.290569   -0.000751
     23          1           0       -1.136650    3.116486    0.000157
     24          1           0        1.311688    3.592634   -0.000328
     25          1           0        2.967383    1.810300   -0.000499
     26          1           0        2.043003   -1.895580    0.000632
     27          1           0        5.466245    0.115551   -0.000302
 ---------------------------------------------------------------------

 SCF Done:  E(UB3LYP) =  -728.375473293     A.U. after   22 cycles

 The electronic state is 2-A.
 Alpha  occ. eigenvalues --  -19.04137 -18.96869 -10.16082 -10.05651 -10.05612
 Alpha  occ. eigenvalues --  -10.05598 -10.05355 -10.05330 -10.04694 -10.04594
 Alpha  occ. eigenvalues --  -10.04485 -10.04294 -10.03926 -10.03759 -10.03444
 Alpha  occ. eigenvalues --  -10.02877 -10.02748  -0.97609  -0.88052  -0.75859
 Alpha  occ. eigenvalues --   -0.71791  -0.67484  -0.65665  -0.63097  -0.59088
 Alpha  occ. eigenvalues --   -0.58305  -0.54051  -0.51257  -0.47645  -0.46448
 Alpha  occ. eigenvalues --   -0.44301  -0.43319  -0.39369  -0.37459  -0.36557
 Alpha  occ. eigenvalues --   -0.35119  -0.33917  -0.32792  -0.31836  -0.31295
 Alpha  occ. eigenvalues --   -0.30029  -0.29122  -0.28410  -0.27688  -0.27216
 Alpha  occ. eigenvalues --   -0.26485  -0.23427  -0.23390  -0.22000  -0.21233
 Alpha  occ. eigenvalues --   -0.20023  -0.19838  -0.18015  -0.17256  -0.14946
 Alpha  occ. eigenvalues --   -0.14305  -0.09536  -0.07654  -0.01838
 Alpha virt. eigenvalues --    0.07771   0.08539   0.08569   0.08979   0.09706
 Alpha virt. eigenvalues --    0.10632   0.11556   0.11692   0.12879   0.13778
 Alpha virt. eigenvalues --    0.14105   0.14350   0.15109   0.15959   0.16063

  Beta  occ. eigenvalues --  -19.04124 -18.96651 -10.16047 -10.05681 -10.05599
  Beta  occ. eigenvalues --  -10.05569 -10.05290 -10.05279 -10.04699 -10.04498
  Beta  occ. eigenvalues --  -10.04324 -10.04238 -10.03862 -10.03777 -10.03298
  Beta  occ. eigenvalues --  -10.02556 -10.02444  -0.97490  -0.87751  -0.75612
  Beta  occ. eigenvalues --   -0.71558  -0.67155  -0.65247  -0.62916  -0.58947
  Beta  occ. eigenvalues --   -0.57838  -0.53510  -0.51028  -0.47487  -0.46306
  Beta  occ. eigenvalues --   -0.44045  -0.43012  -0.39208  -0.37334  -0.36394
  Beta  occ. eigenvalues --   -0.34958  -0.33771  -0.32713  -0.31242  -0.31169
  Beta  occ. eigenvalues --   -0.29914  -0.29002  -0.28259  -0.27066  -0.27034
  Beta  occ. eigenvalues --   -0.26310  -0.23262  -0.22785  -0.21908  -0.21071
  Beta  occ. eigenvalues --   -0.19700  -0.19290  -0.17064  -0.16177  -0.14716
  Beta  occ. eigenvalues --   -0.13574  -0.09124  -0.05756
  Beta virt. eigenvalues --    0.03265   0.07764   0.08539   0.08971   0.09232
  Beta virt. eigenvalues --    0.09698   0.10616   0.11680   0.12171   0.12876
  Beta virt. eigenvalues --    0.13771   0.14664   0.14845   0.15102   0.15963

 Mulliken charges and spin densities:
               1          2
     1  C   -0.262010  -0.002594
     2  C   -0.315963   0.062070
     3  C   -0.327535  -0.020426
     4  C    0.307392   0.042825
     5  C    0.272452  -0.013629
     6  C   -0.442643   0.035485
     7  C   -0.432856   0.283742
     8  C    0.533590  -0.018122
     9  C    0.323052   0.029014
    10  C   -0.237514   0.155613
    11  C   -0.749804   0.039067
    12  C   -0.906394   0.080768
    13  C    1.259989   0.017740
    14  C   -1.192866   0.261642
    15  C    0.564538   0.032732
    16  O   -0.376184   0.073402
    17  O   -0.254032   0.004411
    18  H    0.113432  -0.000413
    19  H    0.124174  -0.004737
    20  H    0.070581   0.001994
    21  H    0.106731  -0.001874
    22  H    0.028301  -0.017420
    23  H    0.063804  -0.008525
    24  H    0.138854  -0.004053
    25  H    0.150102  -0.009021
    26  H    0.157194  -0.018729
    27  H    0.283617  -0.000963
 Sum of Mulliken charges =  -1.00000   1.00000

 Dipole moment (field-independent basis, Debye):
    X=             -2.5815    Y=              2.4249    Z=             -0.0010  Tot=              3.5417
 Quadrupole moment (field-independent basis, Debye-Ang):
   XX=           -146.7127   YY=           -112.7892   ZZ=           -109.7544
   XY=             12.0211   XZ=             -0.0056   YZ=              0.0043

 Summary of Natural Population Analysis:

                                       Natural Population
                Natural  -----------------------------------------------
    Atom  No    Charge         Core      Valence    Rydberg      Total
 -----------------------------------------------------------------------
      C    1   -0.11831      0.99958     2.10833    0.01039     3.11831
      C    2   -0.10865      0.99961     2.09722    0.01182     3.10865
      C    3   -0.11555      0.99947     2.10288    0.01320     3.11555
      C    4    0.04976      0.99949     1.94342    0.00733     2.95024
      C    5   -0.04588      0.99956     2.03366    0.01265     3.04588
      C    6   -0.09401      0.99952     2.08559    0.00889     3.09401
      C    7   -0.00629      0.99942     1.99828    0.00860     3.00629
      C    8   -0.03321      0.99939     2.02377    0.01004     3.03321
      C    9   -0.02327      0.99943     2.00958    0.01426     3.02327
      C   10   -0.04487      0.99941     2.03612    0.00933     3.04487
      C   11   -0.10060      0.99959     2.09115    0.00985     3.10060
      C   12   -0.06166      0.99953     2.05332    0.00881     3.06166
      C   13   -0.00935      0.99950     2.00022    0.00963     3.00935
      C   14   -0.07435      0.99947     2.06579    0.00908     3.07435
      C   15    0.37893      0.99967     1.59764    0.02376     2.62107
      O   16   -0.30668      0.99987     3.29962    0.00718     4.30668
      O   17   -0.35968      0.99988     3.35170    0.00810     4.35968
      H   18    0.09130      0.00000     0.40762    0.00107     0.40870
      H   19    0.09049      0.00000     0.40843    0.00108     0.40951
      H   20    0.09280      0.00000     0.40407    0.00313     0.40720
      H   21    0.09370      0.00000     0.40491    0.00139     0.40630
      H   22    0.09162      0.00000     0.40682    0.00156     0.40838
      H   23    0.08893      0.00000     0.40883    0.00224     0.41107
      H   24    0.08908      0.00000     0.40978    0.00114     0.41092
      H   25    0.10619      0.00000     0.39262    0.00118     0.39381
      H   26    0.09676      0.00000     0.40192    0.00132     0.40324
      H   27    0.23285      0.00000     0.26426    0.00289     0.26715
 =======================================================================
   * Total *    0.00008     16.99240    40.80755    0.19997    57.99992

 Normal termination of Gaussian 16 at Mon Dec 14 13:46:36 2020.
