 Gaussian 16, Revision A.03,

 -----------------------------------------------------------
 # opt freq B3LYP/6-31G(d) empiricaldispersion=gd3bj scf=xqc
 -----------------------------------------------------------

 -------------------------------
 CID_104997942_JID_8561_neutraal
 -------------------------------
 Symbolic Z-matrix:
 Charge =  0 Multiplicity = 1

 SCF Done:  E(RB3LYP) =  -804.104351382     A.U. after   14 cycles
 SCF Done:  E(RB3LYP) =  -804.109827791     A.U. after   12 cycles
 SCF Done:  E(RB3LYP) =  -804.110612564     A.U. after   12 cycles
 SCF Done:  E(RB3LYP) =  -804.109623749     A.U. after   12 cycles
 SCF Done:  E(RB3LYP) =  -804.111168032     A.U. after   12 cycles
 SCF Done:  E(RB3LYP) =  -804.111956114     A.U. after   12 cycles
 SCF Done:  E(RB3LYP) =  -804.110687395     A.U. after   15 cycles
 SCF Done:  E(RB3LYP) =  -804.114306866     A.U. after   12 cycles
 SCF Done:  E(RB3LYP) =  -804.114799261     A.U. after   12 cycles
 SCF Done:  E(RB3LYP) =  -804.117126226     A.U. after   13 cycles
 SCF Done:  E(RB3LYP) =  -804.121326582     A.U. after   10 cycles
 SCF Done:  E(RB3LYP) =  -804.121330487     A.U. after    8 cycles
 SCF Done:  E(RB3LYP) =  -804.121334333     A.U. after    9 cycles
 SCF Done:  E(RB3LYP) =  -804.121340704     A.U. after    9 cycles
 SCF Done:  E(RB3LYP) =  -804.121344301     A.U. after    9 cycles
 SCF Done:  E(RB3LYP) =  -804.121345013     A.U. after    7 cycles
 Optimization completed.
    -- Stationary point found.
 Normal termination of Gaussian 16 at Fri Dec 11 21:59:47 2020.

 --------------------------------------------------------------------
 #N Geom=AllCheck Guess=TCheck SCRF=Check GenChk RB3LYP/6-31G(d) Freq
 --------------------------------------------------------------------

 Structure from the checkpoint file:  "JID_8561.chk"
 -------------------------------
 CID_104997942_JID_8561_neutraal
 -------------------------------
 Charge =  0 Multiplicity = 1

 SCF Done:  E(RB3LYP) =  -804.121345013     A.U. after    1 cycles

  Exact polarizability: 179.141  -4.369 148.690   2.667   7.472 147.088
 Approx polarizability: 239.383  -9.403 204.005   4.596  19.878 232.010

                      1                      2                      3
                      A                      A                      A
 Frequencies --     40.1747                44.7790                54.3073
 Red. masses --      4.1273                 4.3200                 3.3842
 Frc consts  --      0.0039                 0.0051                 0.0059
 IR Inten    --      1.1448                 0.5088                 0.5948

                      4                      5                      6
                      A                      A                      A
 Frequencies --     79.6242                90.8867                95.8135
 Red. masses --      3.2837                 2.3719                 3.5650
 Frc consts  --      0.0123                 0.0115                 0.0193
 IR Inten    --      0.7998                 0.4969                 0.1385

                      7                      8                      9
                      A                      A                      A
 Frequencies --    112.8273               122.3442               140.4128
 Red. masses --      1.2477                 2.7723                 3.1155
 Frc consts  --      0.0094                 0.0244                 0.0362
 IR Inten    --      0.1856                 0.9012                 1.0376

                     10                     11                     12
                      A                      A                      A
 Frequencies --    179.9908               197.7434               202.9375
 Red. masses --      3.2397                 1.6895                 2.2449
 Frc consts  --      0.0618                 0.0389                 0.0545
 IR Inten    --      1.9975                 0.5762                 1.2695

                     13                     14                     15
                      A                      A                      A
 Frequencies --    239.2231               245.1113               258.7685
 Red. masses --      3.3967                 3.0213                 2.0907
 Frc consts  --      0.1145                 0.1069                 0.0825
 IR Inten    --      1.3870                 2.0150                 0.7769

                     16                     17                     18
                      A                      A                      A
 Frequencies --    271.6885               318.2911               324.2149
 Red. masses --      2.0210                 2.1922                 4.2262
 Frc consts  --      0.0879                 0.1309                 0.2617
 IR Inten    --      1.0705                 1.4189                 2.6081

                     19                     20                     21
                      A                      A                      A
 Frequencies --    342.0742               359.5707               436.6706
 Red. masses --      1.9954                 2.2587                 2.9072
 Frc consts  --      0.1376                 0.1721                 0.3266
 IR Inten    --      1.8600                 0.1718                 1.7098

                     22                     23                     24
                      A                      A                      A
 Frequencies --    439.6927               486.2160               501.9271
 Red. masses --      2.8387                 4.0442                 2.6956
 Frc consts  --      0.3233                 0.5633                 0.4001
 IR Inten    --      3.3582                 0.3955                 6.2729

                     25                     26                     27
                      A                      A                      A
 Frequencies --    550.3627               616.1427               629.2432
 Red. masses --      3.1747                 2.3064                 2.1367
 Frc consts  --      0.5666                 0.5159                 0.4985
 IR Inten    --      0.7966                 5.7107                 1.7083

                     28                     29                     30
                      A                      A                      A
 Frequencies --    674.2495               692.6469               716.5559
 Red. masses --      5.1121                 4.1402                 4.1490
 Frc consts  --      1.3693                 1.1703                 1.2552
 IR Inten    --      4.6617                11.9007                 8.5544

                     31                     32                     33
                      A                      A                      A
 Frequencies --    755.7974               790.4746               796.3933
 Red. masses --      2.8046                 2.2359                 2.9868
 Frc consts  --      0.9439                 0.8232                 1.1161
 IR Inten    --      2.4679                 4.4012                23.3267

                     34                     35                     36
                      A                      A                      A
 Frequencies --    845.7783               852.8900               870.6420
 Red. masses --      2.0828                 1.9045                 2.0578
 Frc consts  --      0.8778                 0.8162                 0.9190
 IR Inten    --     34.4642                 4.1653                 7.3040

                     37                     38                     39
                      A                      A                      A
 Frequencies --    879.3375               885.3928               923.4697
 Red. masses --      2.3494                 1.3756                 1.6575
 Frc consts  --      1.0703                 0.6353                 0.8328
 IR Inten    --     14.2300                 5.6435                16.9883

                     40                     41                     42
                      A                      A                      A
 Frequencies --    931.0484               948.5822               959.8596
 Red. masses --      1.8468                 2.2301                 1.8493
 Frc consts  --      0.9432                 1.1823                 1.0038
 IR Inten    --     26.2073                14.0805                 9.1071

                     43                     44                     45
                      A                      A                      A
 Frequencies --    987.3174               998.2822              1012.9093
 Red. masses --      1.8526                 6.3477                 2.2171
 Frc consts  --      1.0640                 3.7271                 1.3402
 IR Inten    --     11.2679                 2.3307                 0.5021

                     46                     47                     48
                      A                      A                      A
 Frequencies --   1036.3409              1044.0957              1063.7677
 Red. masses --      2.1632                 2.1273                 1.8506
 Frc consts  --      1.3688                 1.3663                 1.2339
 IR Inten    --      0.9992                31.1781                 9.3776

                     49                     50                     51
                      A                      A                      A
 Frequencies --   1076.9771              1101.3200              1113.3864
 Red. masses --      2.0000                 2.0255                 5.5780
 Frc consts  --      1.3668                 1.4475                 4.0740
 IR Inten    --     10.7256                 9.4772                94.6951

                     52                     53                     54
                      A                      A                      A
 Frequencies --   1139.6173              1145.4619              1147.4036
 Red. masses --      1.8324                 2.0031                 1.7535
 Frc consts  --      1.4021                 1.5485                 1.3602
 IR Inten    --     13.0903                24.7357                23.1957

                     55                     56                     57
                      A                      A                      A
 Frequencies --   1158.3216              1166.8940              1181.3228
 Red. masses --      1.3395                 2.3896                 1.6732
 Frc consts  --      1.0589                 1.9171                 1.3757
 IR Inten    --      4.0624                 6.5167                23.7293

                     58                     59                     60
                      A                      A                      A
 Frequencies --   1217.5336              1228.2764              1230.1485
 Red. masses --      1.5741                 1.4305                 1.4156
 Frc consts  --      1.3748                 1.2715                 1.2621
 IR Inten    --     22.2827                 1.3020                10.5764

                     61                     62                     63
                      A                      A                      A
 Frequencies --   1235.0052              1260.0720              1266.7945
 Red. masses --      2.3896                 1.3139                 1.4070
 Frc consts  --      2.1474                 1.2291                 1.3303
 IR Inten    --     11.0899                10.1560                 1.8223

                     64                     65                     66
                      A                      A                      A
 Frequencies --   1295.5811              1302.5223              1313.8371
 Red. masses --      1.4304                 1.2224                 2.3569
 Frc consts  --      1.4146                 1.2219                 2.3970
 IR Inten    --      4.3784                 2.9131                 8.5781

                     67                     68                     69
                      A                      A                      A
 Frequencies --   1316.2155              1327.6394              1341.2003
 Red. masses --      1.8446                 2.6453                 1.3271
 Frc consts  --      1.8828                 2.7472                 1.4065
 IR Inten    --     11.0866                16.0414                 1.0928

                     70                     71                     72
                      A                      A                      A
 Frequencies --   1348.1387              1370.6425              1377.3968
 Red. masses --      1.2729                 1.3340                 1.3510
 Frc consts  --      1.3630                 1.4766                 1.5101
 IR Inten    --      0.2295                 0.4936                 1.1338

                     73                     74                     75
                      A                      A                      A
 Frequencies --   1394.8349              1401.2390              1405.0402
 Red. masses --      1.3566                 1.3608                 1.3451
 Frc consts  --      1.5550                 1.5743                 1.5646
 IR Inten    --      5.1518                 4.5842                10.9791

                     76                     77                     78
                      A                      A                      A
 Frequencies --   1416.1981              1422.4348              1433.1285
 Red. masses --      1.3840                 1.3828                 1.3199
 Frc consts  --      1.6355                 1.6485                 1.5972
 IR Inten    --      9.9695                 4.6078                15.0241

                     79                     80                     81
                      A                      A                      A
 Frequencies --   1437.2925              1442.8618              1471.9835
 Red. masses --      1.4844                 2.6635                 1.4379
 Frc consts  --      1.8068                 3.2670                 1.8356
 IR Inten    --     10.2694                21.2083                 3.5147

                     82                     83                     84
                      A                      A                      A
 Frequencies --   1483.5260              1504.5080              1507.7652
 Red. masses --      1.1681                 1.0816                 1.1328
 Frc consts  --      1.5147                 1.4425                 1.5173
 IR Inten    --      2.1693                 6.2272                 7.1236

                     85                     86                     87
                      A                      A                      A
 Frequencies --   1511.6108              1516.4934              1519.2976
 Red. masses --      1.1305                 1.1569                 1.1138
 Frc consts  --      1.5220                 1.5676                 1.5148
 IR Inten    --     20.6148                 0.3579                 5.2207

                     88                     89                     90
                      A                      A                      A
 Frequencies --   1521.0843              1526.2136              1528.0600
 Red. masses --      1.1447                 1.0842                 1.0945
 Frc consts  --      1.5605                 1.4880                 1.5057
 IR Inten    --      2.3356                 3.2799                 2.5985

                     91                     92                     93
                      A                      A                      A
 Frequencies --   1533.1660              1537.2032              1544.0144
 Red. masses --      1.0970                 1.2081                 1.1029
 Frc consts  --      1.5193                 1.6820                 1.5491
 IR Inten    --      5.0194                13.4143                 3.5965

                     94                     95                     96
                      A                      A                      A
 Frequencies --   1544.8592              1554.8737              1572.4142
 Red. masses --      2.1068                 1.1034                 4.0509
 Frc consts  --      2.9625                 1.5718                 5.9012
 IR Inten    --     43.2730                 8.6829                25.0631

                     97                     98                     99
                      A                      A                      A
 Frequencies --   2959.6369              2977.7042              3008.3309
 Red. masses --      1.0603                 1.0838                 1.0703
 Frc consts  --      5.4722                 5.6621                 5.7071
 IR Inten    --     89.7328                39.6605                71.4676

                    100                    101                    102
                      A                      A                      A
 Frequencies --   3036.4156              3043.6025              3050.2591
 Red. masses --      1.0729                 1.0697                 1.0666
 Frc consts  --      5.8280                 5.8385                 5.8469
 IR Inten    --      2.3491                28.1890                28.3497

                    103                    104                    105
                      A                      A                      A
 Frequencies --   3051.7483              3056.5988              3058.5720
 Red. masses --      1.0678                 1.0677                 1.0621
 Frc consts  --      5.8595                 5.8775                 5.8542
 IR Inten    --     17.4928                53.1963                26.8167

                    106                    107                    108
                      A                      A                      A
 Frequencies --   3071.9807              3073.3685              3084.2877
 Red. masses --      1.0749                 1.0978                 1.0760
 Frc consts  --      5.9766                 6.1097                 6.0306
 IR Inten    --     55.5764                20.2215                 3.3423

                    109                    110                    111
                      A                      A                      A
 Frequencies --   3085.0690              3087.0880              3089.3488
 Red. masses --      1.0909                 1.0394                 1.0836
 Frc consts  --      6.1175                 5.8364                 6.0936
 IR Inten    --     10.2534                34.0323                39.6614

                    112                    113                    114
                      A                      A                      A
 Frequencies --   3099.5390              3104.8688              3113.0353
 Red. masses --      1.0967                 1.0997                 1.1010
 Frc consts  --      6.2077                 6.2461                 6.2864
 IR Inten    --     40.3749                51.8247                62.7496

                    115                    116                    117
                      A                      A                      A
 Frequencies --   3116.5633              3146.7842              3161.4041
 Red. masses --      1.1032                 1.0992                 1.1053
 Frc consts  --      6.3134                 6.4128                 6.5084
 IR Inten    --     28.4768                 6.4342                11.3508

                    118                    119                    120
                      A                      A                      A
 Frequencies --   3180.4900              3267.9819              3501.6155
 Red. masses --      1.1048                 1.0966                 1.0739
 Frc consts  --      6.5845                 6.8998                 7.7578
 IR Inten    --     11.1671                14.9682                32.9481

 - Thermochemistry -
 -------------------
 Temperature   298.150 Kelvin.  Pressure   1.00000 Atm.
 Atom     1 has atomic number  6 and mass  12.00000

 Molecular mass:   252.19501 amu.
 Principal axes and moments of inertia in atomic units:
                           1         2         3
     Eigenvalues --  3011.565166286.630817281.53973
           X            0.99977   0.01904  -0.01022
           Y           -0.01904   0.99982   0.00043
           Z            0.01023  -0.00023   0.99995
 This molecule is an asymmetric top.
 Rotational symmetry number  1.
 Warning -- assumption of classical behavior for rotation
           may cause significant error
 Rotational temperatures (Kelvin)      0.02876     0.01378     0.01190
 Rotational constants (GHZ):           0.59927     0.28708     0.24785
 Zero-point vibrational energy     992092.9 (Joules/Mol)
                                  237.11589 (Kcal/Mol)
 Warning -- explicit consideration of  26 degrees of freedom as
           vibrations may cause significant error
 Vibrational temperatures:     57.80    64.43    78.14   114.56   130.77
          (Kelvin)            137.85   162.33   176.03   202.02   258.97
                              284.51   291.98   344.19   352.66   372.31
                              390.90   457.95   466.47   492.17   517.34
                              628.27   632.62   699.56   722.16   791.85
                              886.49   905.34   970.09   996.56  1030.96
                             1087.42  1137.32  1145.83  1216.89  1227.12
                             1252.66  1265.17  1273.88  1328.67  1339.57
                             1364.80  1381.02  1420.53  1436.31  1457.35
                             1491.06  1502.22  1530.52  1549.53  1584.55
                             1601.91  1639.66  1648.06  1650.86  1666.57
                             1678.90  1699.66  1751.76  1767.22  1769.91
                             1776.90  1812.96  1822.63  1864.05  1874.04
                             1890.32  1893.74  1910.18  1929.69  1939.67
                             1972.05  1981.77  2006.86  2016.07  2021.54
                             2037.59  2046.57  2061.95  2067.94  2075.96
                             2117.86  2134.46  2164.65  2169.34  2174.87
                             2181.90  2185.93  2188.50  2195.88  2198.54
                             2205.88  2211.69  2221.49  2222.71  2237.12
                             2262.35  4258.26  4284.25  4328.32  4368.72
                             4379.07  4388.64  4390.79  4397.76  4400.60
                             4419.90  4421.89  4437.60  4438.73  4441.63
                             4444.88  4459.55  4467.21  4478.96  4484.04
                             4527.52  4548.56  4576.02  4701.90  5038.04

 Zero-point correction=                           0.377868 (Hartree/Particle)
 Thermal correction to Energy=                    0.395989
 Thermal correction to Enthalpy=                  0.396934
 Thermal correction to Gibbs Free Energy=         0.331265
 Sum of electronic and zero-point Energies=           -803.743477
 Sum of electronic and thermal Energies=              -803.725356
 Sum of electronic and thermal Enthalpies=            -803.724411
 Sum of electronic and thermal Free Energies=         -803.790080

                     E (Thermal)             CV                S
                      KCal/Mol        Cal/Mol-Kelvin    Cal/Mol-Kelvin
 Total                  248.487             68.601            138.212
 Electronic               0.000              0.000              0.000
 Translational            0.889              2.981             42.475
 Rotational               0.889              2.981             33.288
 Vibrational            246.710             62.639             62.448
 Vibration     1          0.594              1.981              5.250
 Vibration     2          0.595              1.979              5.036
 Vibration     3          0.596              1.976              4.654
 Vibration     4          0.600              1.963              3.900
 Vibration     5          0.602              1.956              3.641
 Vibration     6          0.603              1.952              3.538
 Vibration     7          0.607              1.939              3.220
 Vibration     8          0.610              1.930              3.063
 Vibration     9          0.615              1.913              2.798
 Vibration    10          0.629              1.867              2.329
 Vibration    11          0.637              1.843              2.154
 Vibration    12          0.639              1.836              2.106
 Vibration    13          0.657              1.780              1.809
 Vibration    14          0.660              1.771              1.765
 Vibration    15          0.668              1.748              1.670
 Vibration    16          0.675              1.725              1.585
 Vibration    17          0.705              1.639              1.319
 Vibration    18          0.709              1.627              1.289
 Vibration    19          0.721              1.591              1.202
 Vibration    20          0.734              1.556              1.124
 Vibration    21          0.797              1.390              0.837
 Vibration    22          0.800              1.384              0.828
 Vibration    23          0.842              1.281              0.693
 Vibration    24          0.857              1.246              0.653
 Vibration    25          0.906              1.139              0.543
 Vibration    26          0.976              0.998              0.423

                           ! Non-Optimized Parameters !
 Normal termination of Gaussian 16 at Fri Dec 11 22:25:07 2020.

 ----------------------------------------------------------------------
 # B3LYP/6-311++G(d,p) empiricaldispersion=gd3bj scf=xqc pop=npa geom=c
 heck
 ----------------------------------------------------------------------

 ---------------------------------------
 CID_104997942_JID_8561_Energie_neutraal
 ---------------------------------------
 Structure from the checkpoint file:  "JID_8561.chk"
 Charge =  0 Multiplicity = 1

 SCF Done:  E(RB3LYP) =  -804.342213225     A.U. after   14 cycles
 Normal termination of Gaussian 16 at Fri Dec 11 22:36:25 2020.

 ----------------------------------------------------------------------
 # B3LYP/6-311++G(d,p) empiricaldispersion=gd3bj scf=xqc pop=npa geom=c
 heck
 ----------------------------------------------------------------------

 -------------------------------------
 CID_104997942_JID_8561_Energie_kation
 -------------------------------------
 Structure from the checkpoint file:  "JID_8561.chk"
 Charge =  1 Multiplicity = 2

 SCF Done:  E(UB3LYP) =  -804.047417290     A.U. after   23 cycles
 Normal termination of Gaussian 16 at Fri Dec 11 23:02:48 2020.
 Gaussian 16:  ES64L-G16RevA.03 25-Dec-2016

 ----------------------------------------------------------------------
 # B3LYP/6-311++G(d,p) empiricaldispersion=gd3bj scf=xqc pop=npa geom=c
 heck
 ----------------------------------------------------------------------

 ------------------------------------
 CID_104997942_JID_8561_Energie_anion
 ------------------------------------
 Structure from the checkpoint file:  "JID_8561.chk"
 Charge = -1 Multiplicity = 2

                         Standard orientation:
 ---------------------------------------------------------------------
 Center     Atomic      Atomic             Coordinates (Angstroms)
 Number     Number       Type             X           Y           Z
 ---------------------------------------------------------------------
      1          6           0        0.803495    2.907534   -1.499218
      2          7           0        0.670778    1.565919   -0.948748
      3          6           0        0.529290    1.517053    0.505729
      4          6           0       -0.781305    2.135765    1.065957
      5          6           0       -2.084727    1.913540    0.275538
      6          6           0       -2.628588    0.498295    0.071143
      7          6           0       -2.798724   -0.339483    1.355438
      8          6           0       -2.688776   -1.845094    1.040762
      9          6           0       -3.245751   -2.131814   -0.357071
     10          6           0       -2.423858   -1.359630   -1.408144
     11          8           0       -1.787857   -0.201268   -0.860545
     12          6           0        0.751925    0.067098    0.990702
     13          6           0        2.130926   -0.423496    0.700897
     14          7           0        3.175645   -0.288470    1.515367
     15          6           0        4.191442   -0.853925    0.808393
     16          7           0        3.855781   -1.333620   -0.380425
     17          7           0        2.522995   -1.053936   -0.433905
     18          6           0        1.778835   -1.343129   -1.642641
     19          1           0        1.714146    3.370993   -1.102325
     20          1           0       -0.038019    3.590723   -1.283427
     21          1           0        0.910702    2.842296   -2.587106
     22          1           0       -0.123708    1.083141   -1.364789
     23          1           0        1.358755    2.105613    0.919382
     24          1           0       -0.908047    1.812693    2.106612
     25          1           0       -0.646903    3.223301    1.117366
     26          1           0       -2.874020    2.477564    0.790334
     27          1           0       -1.991053    2.368591   -0.717763
     28          1           0       -3.615305    0.611541   -0.406806
     29          1           0       -3.778842   -0.110576    1.792347
     30          1           0       -2.047739   -0.063340    2.101506
     31          1           0       -1.637391   -2.154208    1.078460
     32          1           0       -3.216116   -2.434217    1.798253
     33          1           0       -3.220129   -3.202864   -0.586020
     34          1           0       -4.299130   -1.827206   -0.397405
     35          1           0       -1.606593   -1.978330   -1.792344
     36          1           0       -3.054826   -1.063347   -2.260235
     37          1           0        0.617292    0.028696    2.075957
     38          1           0        0.002297   -0.582218    0.533985
     39          1           0        5.204471   -0.924987    1.181328
     40          1           0        1.905642   -0.535900   -2.367665
     41          1           0        2.147431   -2.284372   -2.054188
     42          1           0        0.718434   -1.428980   -1.402044
 ---------------------------------------------------------------------

 SCF Done:  E(UB3LYP) =  -804.333854432     A.U. after   31 cycles

 The electronic state is 2-A.
 Alpha  occ. eigenvalues --  -19.03326 -14.30671 -14.24603 -14.21142 -14.20003
 Alpha  occ. eigenvalues --  -10.15028 -10.12823 -10.12651 -10.12284 -10.12263
 Alpha  occ. eigenvalues --  -10.11236 -10.09661 -10.08797 -10.07678 -10.07561
 Alpha  occ. eigenvalues --  -10.07525 -10.07312 -10.07141  -0.98689  -0.94589
 Alpha  occ. eigenvalues --   -0.81775  -0.81310  -0.75805  -0.71102  -0.70019
 Alpha  occ. eigenvalues --   -0.67747  -0.64506  -0.62664  -0.58492  -0.57245
 Alpha  occ. eigenvalues --   -0.54979  -0.53746  -0.52639  -0.48933  -0.48140
 Alpha  occ. eigenvalues --   -0.43799  -0.43443  -0.40996  -0.40289  -0.40017
 Alpha  occ. eigenvalues --   -0.38774  -0.38165  -0.36639  -0.36315  -0.36049
 Alpha  occ. eigenvalues --   -0.34710  -0.33423  -0.32573  -0.32171  -0.31823
 Alpha  occ. eigenvalues --   -0.31371  -0.30660  -0.29885  -0.29594  -0.27860
 Alpha  occ. eigenvalues --   -0.27518  -0.26842  -0.26098  -0.25616  -0.24220
 Alpha  occ. eigenvalues --   -0.23885  -0.23576  -0.22892  -0.20738  -0.19741
 Alpha  occ. eigenvalues --   -0.19149  -0.17039  -0.16429  -0.13464   0.03890
 Alpha virt. eigenvalues --    0.06092   0.06439   0.07131   0.07966   0.08048
 Alpha virt. eigenvalues --    0.08184   0.08838   0.09279   0.09359   0.10085
 Alpha virt. eigenvalues --    0.10442   0.10996   0.11109   0.11605   0.12002

  Beta  occ. eigenvalues --  -19.03320 -14.30669 -14.24601 -14.21141 -14.19998
  Beta  occ. eigenvalues --  -10.15027 -10.12823 -10.12633 -10.12256 -10.12251
  Beta  occ. eigenvalues --  -10.11234 -10.09641 -10.08795 -10.07668 -10.07538
  Beta  occ. eigenvalues --  -10.07511 -10.07282 -10.07121  -0.98686  -0.94574
  Beta  occ. eigenvalues --   -0.81766  -0.81306  -0.75800  -0.71065  -0.69976
  Beta  occ. eigenvalues --   -0.67726  -0.64474  -0.62640  -0.58461  -0.57202
  Beta  occ. eigenvalues --   -0.54915  -0.53732  -0.52609  -0.48911  -0.48113
  Beta  occ. eigenvalues --   -0.43774  -0.43381  -0.40948  -0.40276  -0.39968
  Beta  occ. eigenvalues --   -0.38742  -0.38133  -0.36612  -0.36298  -0.36030
  Beta  occ. eigenvalues --   -0.34688  -0.33390  -0.32560  -0.32149  -0.31802
  Beta  occ. eigenvalues --   -0.31346  -0.30628  -0.29855  -0.29571  -0.27819
  Beta  occ. eigenvalues --   -0.27485  -0.26818  -0.26067  -0.25582  -0.24198
  Beta  occ. eigenvalues --   -0.23873  -0.23547  -0.22854  -0.20699  -0.19735
  Beta  occ. eigenvalues --   -0.19145  -0.17029  -0.16393  -0.13453
  Beta virt. eigenvalues --    0.06099   0.06801   0.07140   0.07496   0.08215
  Beta virt. eigenvalues --    0.08361   0.08559   0.09150   0.09621   0.09710
  Beta virt. eigenvalues --    0.10427   0.10926   0.11200   0.11375   0.11799

 Mulliken charges and spin densities:
               1          2
     1  C    0.188405  -0.528975
     2  N   -0.179384  -0.018819
     3  C   -0.210380   0.630172
     4  C   -0.038466  -0.365292
     5  C    0.816050  -1.421680
     6  C   -0.262425   0.309153
     7  C    0.443640  -0.702111
     8  C   -0.383863   0.122638
     9  C    0.648904  -1.188682
    10  C    0.343478  -0.436818
    11  O   -0.138772   0.027145
    12  C   -0.389691  -0.231359
    13  C   -0.492389  -0.211545
    14  N   -0.019141   0.011557
    15  C    0.063224   0.013646
    16  N   -0.094825   0.011421
    17  N    0.102732   0.013688
    18  C   -0.064966  -0.283104
    19  H    0.067094   0.075668
    20  H    0.035217   0.091941
    21  H   -0.145855   0.280200
    22  H    0.172519   0.096082
    23  H    0.145635   0.049142
    24  H    0.090170   0.035513
    25  H   -0.095596   0.291494
    26  H   -0.434358   0.604669
    27  H   -0.113265   0.311505
    28  H   -0.264286   0.472024
    29  H   -0.624309   0.822926
    30  H    0.147736  -0.029151
    31  H   -0.020052   0.176848
    32  H   -0.376988   0.569680
    33  H   -0.566908   0.753034
    34  H    0.057311   0.112044
    35  H    0.030028   0.094079
    36  H   -0.418091   0.583756
    37  H    0.098360   0.111492
    38  H    0.535584  -0.598576
    39  H    0.136731   0.011685
    40  H    0.146956   0.063455
    41  H    0.028091   0.146897
    42  H    0.036145   0.122557
 Sum of Mulliken charges =  -1.00000   1.00000

 Dipole moment (field-independent basis, Debye):
    X=              6.9219    Y=              0.7155    Z=              0.2926  Tot=              6.9649
 Quadrupole moment (field-independent basis, Debye-Ang):
   XX=           -204.2423   YY=           -164.8582   ZZ=           -152.4281
   XY=             -1.8490   XZ=              1.2611   YZ=             -0.1750

 Summary of Natural Population Analysis:

                                       Natural Population
                Natural  -----------------------------------------------
    Atom  No    Charge         Core      Valence    Rydberg      Total
 -----------------------------------------------------------------------
      C    1   -0.17785      0.99966     2.17017    0.00803     3.17785
      N    2   -0.35787      0.99974     2.84696    0.01116     3.85787
      C    3   -0.00057      0.99959     1.98849    0.01249     3.00057
      C    4   -0.19930      0.99960     2.19026    0.00944     3.19930
      C    5   -0.19928      0.99959     2.18874    0.01095     3.19928
      C    6    0.06472      0.99954     1.91971    0.01603     2.93528
      C    7   -0.20162      0.99960     2.19337    0.00865     3.20162
      C    8   -0.18800      0.99962     2.17947    0.00890     3.18800
      C    9   -0.20759      0.99963     2.20021    0.00775     3.20759
      C   10   -0.00282      0.99957     1.99113    0.01211     3.00282
      O   11   -0.32184      0.99988     3.31076    0.01120     4.32184
      C   12   -0.22289      0.99956     2.21479    0.00854     3.22289
      C   13    0.21304      0.99959     1.77087    0.01650     2.78696
      N   14   -0.27249      0.99970     2.76369    0.00910     3.77249
      C   15    0.08436      0.99971     1.89697    0.01896     2.91564
      N   16   -0.16579      0.99974     2.65544    0.01061     3.66579
      N   17   -0.11169      0.99960     2.60029    0.01179     3.61169
      C   18   -0.17520      0.99963     2.16726    0.00830     3.17520
      H   19    0.08999      0.00000     0.40914    0.00087     0.41001
      H   20    0.07994      0.00000     0.41879    0.00127     0.42006
      H   21    0.09435      0.00000     0.40493    0.00072     0.40565
      H   22    0.18742      0.00000     0.30903    0.00355     0.31258
      H   23    0.09390      0.00000     0.40437    0.00173     0.40610
      H   24    0.09830      0.00000     0.40057    0.00113     0.40170
      H   25    0.10218      0.00000     0.39689    0.00092     0.39782
      H   26    0.10719      0.00000     0.39142    0.00138     0.39281
      H   27    0.10217      0.00000     0.39603    0.00181     0.39783
      H   28    0.08737      0.00000     0.40972    0.00292     0.41263
      H   29    0.10336      0.00000     0.39502    0.00162     0.39664
      H   30    0.09672      0.00000     0.40206    0.00122     0.40328
      H   31    0.09265      0.00000     0.40578    0.00157     0.40735
      H   32    0.10294      0.00000     0.39588    0.00118     0.39706
      H   33    0.10488      0.00000     0.39354    0.00157     0.39512
      H   34    0.09883      0.00000     0.39904    0.00213     0.40117
      H   35    0.08504      0.00000     0.41343    0.00153     0.41496
      H   36    0.08410      0.00000     0.41443    0.00148     0.41590
      H   37    0.11138      0.00000     0.38728    0.00134     0.38862
      H   38    0.11703      0.00000     0.38002    0.00295     0.38297
      H   39    0.08870      0.00000     0.41050    0.00080     0.41130
      H   40    0.10638      0.00000     0.39250    0.00112     0.39362
      H   41    0.10199      0.00000     0.39688    0.00113     0.39801
      H   42    0.10585      0.00000     0.39263    0.00152     0.39415
 =======================================================================
   * Total *    0.00000     17.99355    50.76847    0.23797    69.00000

 Normal termination of Gaussian 16 at Fri Dec 11 23:37:09 2020.
