 Gaussian 16, Revision A.03,

 -----------------------------------------------------------
 # opt freq B3LYP/6-31G(d) empiricaldispersion=gd3bj scf=xqc
 -----------------------------------------------------------

 ------------------------------
 CID_43797812_JID_2473_neutraal
 ------------------------------
 Symbolic Z-matrix:
 Charge =  0 Multiplicity = 1

 SCF Done:  E(RB3LYP) =  -536.153551752     A.U. after   15 cycles
 SCF Done:  E(RB3LYP) =  -536.156434214     A.U. after   13 cycles
 SCF Done:  E(RB3LYP) =  -536.157039332     A.U. after   12 cycles
 SCF Done:  E(RB3LYP) =  -536.157124784     A.U. after   12 cycles
 SCF Done:  E(RB3LYP) =  -536.157412323     A.U. after   12 cycles
 SCF Done:  E(RB3LYP) =  -536.157519819     A.U. after   12 cycles
 SCF Done:  E(RB3LYP) =  -536.157610606     A.U. after   12 cycles
 SCF Done:  E(RB3LYP) =  -536.157672827     A.U. after   11 cycles
 SCF Done:  E(RB3LYP) =  -536.157848647     A.U. after   13 cycles
 SCF Done:  E(RB3LYP) =  -536.157921309     A.U. after   12 cycles
 SCF Done:  E(RB3LYP) =  -536.159044046     A.U. after   10 cycles
 SCF Done:  E(RB3LYP) =  -536.159045051     A.U. after    9 cycles
 SCF Done:  E(RB3LYP) =  -536.159045339     A.U. after    8 cycles
 SCF Done:  E(RB3LYP) =  -536.159045548     A.U. after    8 cycles
 SCF Done:  E(RB3LYP) =  -536.159045601     A.U. after    7 cycles
 Optimization completed.
    -- Stationary point found.
 Normal termination of Gaussian 16 at Wed Dec  9 17:39:38 2020.

 --------------------------------------------------------------------
 #N Geom=AllCheck Guess=TCheck SCRF=Check GenChk RB3LYP/6-31G(d) Freq
 --------------------------------------------------------------------

 Structure from the checkpoint file:  "JID_2473.chk"
 ------------------------------
 CID_43797812_JID_2473_neutraal
 ------------------------------
 Charge =  0 Multiplicity = 1

 SCF Done:  E(RB3LYP) =  -536.159045601     A.U. after    1 cycles

  Exact polarizability: 112.206   0.901 116.102   6.751   5.149  79.858
 Approx polarizability: 162.521   7.020 172.250  22.112  13.292 121.804

                      1                      2                      3
                      A                      A                      A
 Frequencies --     29.0541                60.0774                74.5754
 Red. masses --      3.3401                 3.9349                 3.5190
 Frc consts  --      0.0017                 0.0084                 0.0115
 IR Inten    --      3.6219                 4.0544                 0.0838

                      4                      5                      6
                      A                      A                      A
 Frequencies --     80.5036               142.2373               161.9839
 Red. masses --      5.0021                 1.2404                 2.0951
 Frc consts  --      0.0191                 0.0148                 0.0324
 IR Inten    --      3.8696                 0.3686                 0.6335

                      7                      8                      9
                      A                      A                      A
 Frequencies --    204.1125               225.9990               257.8786
 Red. masses --      2.5248                 1.0333                 1.3527
 Frc consts  --      0.0620                 0.0311                 0.0530
 IR Inten    --      3.7131                 0.2288                 0.0379

                     10                     11                     12
                      A                      A                      A
 Frequencies --    268.7287               305.5915               358.5316
 Red. masses --      3.1026                 2.3374                 2.8764
 Frc consts  --      0.1320                 0.1286                 0.2178
 IR Inten    --      1.1040                 0.3002                 4.7457

                     13                     14                     15
                      A                      A                      A
 Frequencies --    381.4688               442.0439               457.9076
 Red. masses --      3.0857                 2.7540                 3.1736
 Frc consts  --      0.2646                 0.3171                 0.3921
 IR Inten    --      1.6118                 4.1263                 2.2053

                     16                     17                     18
                      A                      A                      A
 Frequencies --    506.2942               534.0163               631.7314
 Red. masses --      3.0440                 3.1550                 3.8903
 Frc consts  --      0.4597                 0.5301                 0.9147
 IR Inten    --      7.2908                12.9854                 1.5750

                     19                     20                     21
                      A                      A                      A
 Frequencies --    658.5211               709.7505               747.5182
 Red. masses --      3.5215                 1.2501                 4.4173
 Frc consts  --      0.8997                 0.3710                 1.4543
 IR Inten    --      1.9871                34.1211                 0.0671

                     22                     23                     24
                      A                      A                      A
 Frequencies --    763.2682               803.1098               845.5421
 Red. masses --      4.1292                 3.4950                 1.2920
 Frc consts  --      1.4173                 1.3282                 0.5442
 IR Inten    --      7.7047                 3.8222                 5.7715

                     25                     26                     27
                      A                      A                      A
 Frequencies --    861.3418               898.9785               941.7651
 Red. masses --      1.5773                 2.7925                 4.3821
 Frc consts  --      0.6895                 1.3296                 2.2899
 IR Inten    --      0.9770                 0.2035                 3.7438

                     28                     29                     30
                      A                      A                      A
 Frequencies --    946.5330               980.9900              1015.3977
 Red. masses --      1.1562                 1.5143                 1.8130
 Frc consts  --      0.6103                 0.8586                 1.1013
 IR Inten    --      1.7090                 0.9438                 2.0701

                     31                     32                     33
                      A                      A                      A
 Frequencies --   1059.2287              1105.1014              1106.9265
 Red. masses --      2.0137                 1.5190                 1.5818
 Frc consts  --      1.3312                 1.0930                 1.1419
 IR Inten    --      0.6169                 8.0478                14.4666

                     34                     35                     36
                      A                      A                      A
 Frequencies --   1127.2110              1151.5385              1194.0337
 Red. masses --      1.9822                 2.0522                 2.1502
 Frc consts  --      1.4839                 1.6034                 1.8062
 IR Inten    --     17.1740                 8.2464                 4.6140

                     37                     38                     39
                      A                      A                      A
 Frequencies --   1204.5918              1230.6402              1255.1061
 Red. masses --      2.0188                 2.3864                 2.2294
 Frc consts  --      1.7259                 2.1294                 2.0692
 IR Inten    --     12.2317                44.2424                24.9989

                     40                     41                     42
                      A                      A                      A
 Frequencies --   1317.0119              1350.5002              1359.7819
 Red. masses --      2.4476                 1.3438                 1.5643
 Frc consts  --      2.5013                 1.4440                 1.7042
 IR Inten    --     30.3367                 1.7798                19.0786

                     43                     44                     45
                      A                      A                      A
 Frequencies --   1371.4206              1409.8795              1414.9857
 Red. masses --      1.5255                 3.0912                 1.3061
 Frc consts  --      1.6905                 3.6202                 1.5408
 IR Inten    --     13.0878                 1.7047                34.7244

                     46                     47                     48
                      A                      A                      A
 Frequencies --   1427.0067              1447.1890              1471.6048
 Red. masses --      1.2282                 1.2525                 2.3067
 Frc consts  --      1.4735                 1.5455                 2.9432
 IR Inten    --      5.6752                 3.2333                27.1547

                     49                     50                     51
                      A                      A                      A
 Frequencies --   1484.2457              1487.7202              1500.1494
 Red. masses --      1.1547                 1.1472                 1.0575
 Frc consts  --      1.4987                 1.4960                 1.4021
 IR Inten    --     21.0831                 7.4670                16.9499

                     52                     53                     54
                      A                      A                      A
 Frequencies --   1515.8126              1517.3125              1527.7146
 Red. masses --      1.0670                 1.0880                 2.1860
 Frc consts  --      1.4445                 1.4758                 3.0060
 IR Inten    --      1.3289                 1.5980                25.1685

                     55                     56                     57
                      A                      A                      A
 Frequencies --   1533.9075              1542.8839              1574.9274
 Red. masses --      1.0599                 1.3792                 4.7218
 Frc consts  --      1.4693                 1.9344                 6.9005
 IR Inten    --      3.7912                 7.3924                13.7570

                     58                     59                     60
                      A                      A                      A
 Frequencies --   1823.1195              3020.8762              3054.5307
 Red. masses --     10.7799                 1.0825                 1.0350
 Frc consts  --     21.1104                 5.8204                 5.6898
 IR Inten    --    157.2323                22.2867                22.4456

                     61                     62                     63
                      A                      A                      A
 Frequencies --   3062.4235              3063.0257              3068.2933
 Red. masses --      1.0383                 1.0364                 1.0655
 Frc consts  --      5.7372                 5.7290                 5.9100
 IR Inten    --      2.1918                28.1699                13.2714

                     64                     65                     66
                      A                      A                      A
 Frequencies --   3121.8322              3122.8624              3132.0492
 Red. masses --      1.0999                 1.1006                 1.1020
 Frc consts  --      6.3157                 6.3241                 6.3694
 IR Inten    --     20.6981                 8.2737                34.9176

                     67                     68                     69
                      A                      A                      A
 Frequencies --   3132.3640              3142.6875              3147.8263
 Red. masses --      1.1019                 1.0976                 1.1021
 Frc consts  --      6.3701                 6.3868                 6.4340
 IR Inten    --     25.6739                 3.8802                20.4881

                     70                     71                     72
                      A                      A                      A
 Frequencies --   3176.1851              3258.0273              3282.8648
 Red. masses --      1.1038                 1.0906                 1.1049
 Frc consts  --      6.5608                 6.8206                 7.0156
 IR Inten    --      8.7066                 7.3349                 5.1978

 - Thermochemistry -
 -------------------
 Temperature   298.150 Kelvin.  Pressure   1.00000 Atm.
 Atom     1 has atomic number  6 and mass  12.00000

 Molecular mass:   166.11061 amu.
 Principal axes and moments of inertia in atomic units:
                           1         2         3
     Eigenvalues --  1440.977682278.298643148.03793
           X            0.99589  -0.08965  -0.01260
           Y            0.08958   0.99596  -0.00569
           Z            0.01305   0.00453   0.99990
 This molecule is an asymmetric top.
 Rotational symmetry number  1.
 Warning -- assumption of classical behavior for rotation
           may cause significant error
 Rotational temperatures (Kelvin)      0.06011     0.03802     0.02751
 Rotational constants (GHZ):           1.25244     0.79214     0.57329
 Zero-point vibrational energy     583734.9 (Joules/Mol)
                                  139.51599 (Kcal/Mol)
 Warning -- explicit consideration of  17 degrees of freedom as
           vibrations may cause significant error
 Vibrational temperatures:     41.80    86.44   107.30   115.83   204.65
          (Kelvin)            233.06   293.67   325.16   371.03   386.64
                              439.68   515.85   548.85   636.00   658.83
                              728.44   768.33   908.92   947.47  1021.17
                             1075.51  1098.17  1155.50  1216.55  1239.28
                             1293.43  1354.99  1361.85  1411.43  1460.93
                             1523.99  1589.99  1592.62  1621.81  1656.81
                             1717.95  1733.14  1770.62  1805.82  1894.89
                             1943.07  1956.42  1973.17  2028.50  2035.85
                             2053.14  2082.18  2117.31  2135.50  2140.50
                             2158.38  2180.92  2183.07  2198.04  2206.95
                             2219.87  2265.97  2623.06  4346.37  4394.79
                             4406.14  4407.01  4414.59  4491.62  4493.10
                             4506.32  4506.77  4521.63  4529.02  4569.82
                             4687.57  4723.31

 Zero-point correction=                           0.222333 (Hartree/Particle)
 Thermal correction to Energy=                    0.235035
 Thermal correction to Enthalpy=                  0.235979
 Thermal correction to Gibbs Free Energy=         0.182517
 Sum of electronic and zero-point Energies=           -535.936713
 Sum of electronic and thermal Energies=              -535.924011
 Sum of electronic and thermal Enthalpies=            -535.923067
 Sum of electronic and thermal Free Energies=         -535.976528

                     E (Thermal)             CV                S
                      KCal/Mol        Cal/Mol-Kelvin    Cal/Mol-Kelvin
 Total                  147.487             46.452            112.520
 Electronic               0.000              0.000              0.000
 Translational            0.889              2.981             41.231
 Rotational               0.889              2.981             30.714
 Vibrational            145.709             40.491             40.575
 Vibration     1          0.593              1.984              5.893
 Vibration     2          0.597              1.973              4.455
 Vibration     3          0.599              1.966              4.029
 Vibration     4          0.600              1.962              3.879
 Vibration     5          0.616              1.911              2.774
 Vibration     6          0.622              1.889              2.526
 Vibration     7          0.640              1.834              2.096
 Vibration     8          0.650              1.801              1.911
 Vibration     9          0.667              1.749              1.676
 Vibration    10          0.673              1.731              1.604
 Vibration    11          0.696              1.663              1.386
 Vibration    12          0.733              1.558              1.128
 Vibration    13          0.751              1.510              1.033
 Vibration    14          0.802              1.378              0.820
 Vibration    15          0.816              1.343              0.772
 Vibration    16          0.862              1.236              0.643
 Vibration    17          0.889              1.175              0.578

                           ! Non-Optimized Parameters !
 Normal termination of Gaussian 16 at Wed Dec  9 17:45:45 2020.

 ----------------------------------------------------------------------
 # B3LYP/6-311++G(d,p) empiricaldispersion=gd3bj scf=xqc pop=npa geom=c
 heck
 ----------------------------------------------------------------------

 --------------------------------------
 CID_43797812_JID_2473_Energie_neutraal
 --------------------------------------
 Structure from the checkpoint file:  "JID_2473.chk"
 Charge =  0 Multiplicity = 1

 SCF Done:  E(RB3LYP) =  -536.309883655     A.U. after   14 cycles
 Normal termination of Gaussian 16 at Wed Dec  9 17:48:29 2020.

 ----------------------------------------------------------------------
 # B3LYP/6-311++G(d,p) empiricaldispersion=gd3bj scf=xqc pop=npa geom=c
 heck
 ----------------------------------------------------------------------

 ------------------------------------
 CID_43797812_JID_2473_Energie_kation
 ------------------------------------
 Structure from the checkpoint file:  "JID_2473.chk"
 Charge =  1 Multiplicity = 2

 SCF Done:  E(UB3LYP) =  -536.001462886     A.U. after   22 cycles
 Normal termination of Gaussian 16 at Wed Dec  9 17:54:02 2020.
 Gaussian 16:  ES64L-G16RevA.03 25-Dec-2016

 ----------------------------------------------------------------------
 # B3LYP/6-311++G(d,p) empiricaldispersion=gd3bj scf=xqc pop=npa geom=c
 heck
 ----------------------------------------------------------------------

 -----------------------------------
 CID_43797812_JID_2473_Energie_anion
 -----------------------------------
 Structure from the checkpoint file:  "JID_2473.chk"
 Charge = -1 Multiplicity = 2

                         Standard orientation:
 ---------------------------------------------------------------------
 Center     Atomic      Atomic             Coordinates (Angstroms)
 Number     Number       Type             X           Y           Z
 ---------------------------------------------------------------------
      1          6           0        2.918670   -1.379285   -0.286696
      2          6           0        1.396634   -1.186494   -0.280660
      3          6           0        0.742024   -2.035672    0.827447
      4          6           0        1.059530    0.273860   -0.134177
      5          7           0        1.834717    1.182146    0.430176
      6          6           0        1.144315    2.372295    0.362875
      7          6           0       -0.065084    2.189317   -0.252553
      8          7           0       -0.119570    0.841557   -0.574846
      9          6           0       -1.268364    0.159596   -1.132448
     10          6           0       -2.256737   -0.406797   -0.096184
     11          8           0       -2.965313   -1.340863   -0.411536
     12          6           0       -2.318441    0.260238    1.258910
     13          1           0        3.351041   -1.021401    0.651499
     14          1           0        3.384545   -0.815163   -1.099956
     15          1           0        3.163361   -2.439910   -0.408579
     16          1           0        1.004024   -1.535270   -1.246722
     17          1           0        1.064313   -1.683092    1.813297
     18          1           0       -0.351194   -1.998157    0.788811
     19          1           0        1.037365   -3.085685    0.725356
     20          1           0        1.565924    3.290269    0.749069
     21          1           0       -0.871529    2.861743   -0.505500
     22          1           0       -1.819933    0.866579   -1.764014
     23          1           0       -0.949779   -0.663592   -1.775238
     24          1           0       -1.347592    0.197327    1.762197
     25          1           0       -2.542350    1.328110    1.151811
     26          1           0       -3.087009   -0.223120    1.863868
 ---------------------------------------------------------------------

 SCF Done:  E(UB3LYP) =  -536.301709274     A.U. after   33 cycles
 SCF Done:  E(UB3LYP) =  -536.301709274     a.u. after    1 cycles

 The electronic state is 2-A.
 Alpha  occ. eigenvalues --  -18.97666 -14.25966 -14.18254 -10.11904 -10.11733
 Alpha  occ. eigenvalues --  -10.10167 -10.09142 -10.08318 -10.07233 -10.06596
 Alpha  occ. eigenvalues --  -10.06351 -10.05228  -0.91659  -0.90647  -0.77838
 Alpha  occ. eigenvalues --   -0.71197  -0.64313  -0.62435  -0.59758  -0.59088
 Alpha  occ. eigenvalues --   -0.51674  -0.48834  -0.45628  -0.42125  -0.40895
 Alpha  occ. eigenvalues --   -0.36716  -0.35954  -0.34391  -0.33959  -0.33020
 Alpha  occ. eigenvalues --   -0.32059  -0.30862  -0.29991  -0.29606  -0.28621
 Alpha  occ. eigenvalues --   -0.28073  -0.26891  -0.25597  -0.24844  -0.24530
 Alpha  occ. eigenvalues --   -0.23090  -0.17587  -0.16492  -0.12568  -0.11653
 Alpha  occ. eigenvalues --    0.04960
 Alpha virt. eigenvalues --    0.06764   0.08220   0.08735   0.08974   0.09887
 Alpha virt. eigenvalues --    0.10222   0.10452   0.11663   0.12011   0.12430
 Alpha virt. eigenvalues --    0.13384   0.13531   0.14201   0.14507   0.14598

  Beta  occ. eigenvalues --  -18.97413 -14.25963 -14.18254 -10.11731 -10.11590
  Beta  occ. eigenvalues --  -10.10169 -10.09140 -10.08285 -10.07225 -10.06582
  Beta  occ. eigenvalues --  -10.06340 -10.05235  -0.91281  -0.90500  -0.77814
  Beta  occ. eigenvalues --   -0.71184  -0.64083  -0.62327  -0.59692  -0.59060
  Beta  occ. eigenvalues --   -0.51643  -0.48781  -0.45378  -0.41996  -0.40665
  Beta  occ. eigenvalues --   -0.36574  -0.35725  -0.34346  -0.33603  -0.32930
  Beta  occ. eigenvalues --   -0.31918  -0.30778  -0.29774  -0.29571  -0.28562
  Beta  occ. eigenvalues --   -0.27936  -0.26790  -0.25576  -0.24820  -0.24457
  Beta  occ. eigenvalues --   -0.21911  -0.17526  -0.16476  -0.12422  -0.11576
  Beta virt. eigenvalues --    0.06858   0.08433   0.08770   0.09230   0.09991
  Beta virt. eigenvalues --    0.10065   0.10895   0.11664   0.11925   0.12089
  Beta virt. eigenvalues --    0.12590   0.13711   0.13924   0.14251   0.14614

 Mulliken charges and spin densities:
               1          2
     1  C   -0.021289  -0.653597
     2  C    0.328338   0.209414
     3  C   -0.508512  -0.100048
     4  C   -0.457604  -0.309976
     5  N   -0.098994   0.057043
     6  C    0.524752  -0.627692
     7  C    0.489956  -0.474471
     8  N    0.006659   0.136596
     9  C    0.647544  -0.966551
    10  C   -0.373394   0.611191
    11  O   -0.315895   0.097197
    12  C    0.162223  -0.675630
    13  H    0.141177   0.021834
    14  H    0.022204   0.130365
    15  H   -0.028619   0.161139
    16  H    0.127018   0.016176
    17  H    0.102068   0.039462
    18  H    0.284154  -0.107813
    19  H    0.024643   0.114798
    20  H   -0.087169   0.236444
    21  H   -1.105369   1.305554
    22  H   -0.873767   1.103697
    23  H    0.094579   0.079724
    24  H    0.194632  -0.016122
    25  H   -0.308275   0.483430
    26  H    0.028942   0.127833
 Sum of Mulliken charges =  -1.00000   1.00000

 Dipole moment (field-independent basis, Debye):
    X=              5.4781    Y=             -4.6220    Z=              2.3021  Tot=              7.5281
 Quadrupole moment (field-independent basis, Debye-Ang):
   XX=           -129.9422   YY=           -116.9248   ZZ=            -98.2896
   XY=              5.7397   XZ=             -7.7087   YZ=              3.9847

 Summary of Natural Population Analysis:

                                       Natural Population
                Natural  -----------------------------------------------
    Atom  No    Charge         Core      Valence    Rydberg      Total
 -----------------------------------------------------------------------
      C    1   -0.27830      0.99966     2.27349    0.00515     3.27830
      C    2   -0.13366      0.99958     2.12528    0.00880     3.13366
      C    3   -0.28029      0.99964     2.27586    0.00479     3.28029
      C    4    0.19747      0.99958     1.78422    0.01873     2.80253
      N    5   -0.26756      0.99969     2.75886    0.00900     3.76756
      C    6   -0.03827      0.99957     2.02458    0.01412     3.03827
      C    7   -0.02907      0.99953     2.01670    0.01284     3.02907
      N    8   -0.21053      0.99962     2.69787    0.01304     3.71053
      C    9   -0.13122      0.99956     2.11870    0.01296     3.13122
      C   10    0.31740      0.99970     1.66225    0.02066     2.68260
      O   11   -0.27386      0.99987     3.26780    0.00619     4.27386
      C   12   -0.33967      0.99962     2.33501    0.00504     3.33967
      H   13    0.10541      0.00000     0.39340    0.00119     0.39459
      H   14    0.10220      0.00000     0.39691    0.00089     0.39780
      H   15    0.09326      0.00000     0.40583    0.00091     0.40674
      H   16    0.09922      0.00000     0.39898    0.00179     0.40078
      H   17    0.09835      0.00000     0.40077    0.00088     0.40165
      H   18    0.10716      0.00000     0.39197    0.00087     0.39284
      H   19    0.09505      0.00000     0.40406    0.00089     0.40495
      H   20    0.09434      0.00000     0.40470    0.00095     0.40566
      H   21    0.11039      0.00000     0.38443    0.00518     0.38961
      H   22    0.12262      0.00000     0.36925    0.00813     0.37738
      H   23    0.10792      0.00000     0.39072    0.00137     0.39208
      H   24    0.10920      0.00000     0.38980    0.00100     0.39080
      H   25    0.11608      0.00000     0.38077    0.00315     0.38392
      H   26    0.10636      0.00000     0.39278    0.00086     0.39364
 =======================================================================
   * Total *    0.00000     11.99562    32.84500    0.15938    45.00000

 Normal termination of Gaussian 16 at Wed Dec  9 18:02:27 2020.
