 Gaussian 16, Revision A.03,

 -----------------------------------------------------------
 # opt freq B3LYP/6-31G(d) empiricaldispersion=gd3bj scf=xqc
 -----------------------------------------------------------

 -------------------------------
 CID_150848943_JID_3539_neutraal
 -------------------------------
 Symbolic Z-matrix:
 Charge =  0 Multiplicity = 1

 SCF Done:  E(RB3LYP) =  -606.219869901     A.U. after   15 cycles
 SCF Done:  E(RB3LYP) =  -606.223911163     A.U. after   15 cycles
 SCF Done:  E(RB3LYP) =  -606.225556009     A.U. after   15 cycles
 SCF Done:  E(RB3LYP) =  -606.226604979     A.U. after   12 cycles
 SCF Done:  E(RB3LYP) =  -606.226915760     A.U. after   13 cycles
 SCF Done:  E(RB3LYP) =  -606.227352725     A.U. after   12 cycles
 SCF Done:  E(RB3LYP) =  -606.227769451     A.U. after   13 cycles
 SCF Done:  E(RB3LYP) =  -606.227744862     A.U. after   16 cycles
 SCF Done:  E(RB3LYP) =  -606.228293326     A.U. after   12 cycles
 SCF Done:  E(RB3LYP) =  -606.228733894     A.U. after   14 cycles
 SCF Done:  E(RB3LYP) =  -606.231152351     A.U. after   12 cycles
 SCF Done:  E(RB3LYP) =  -606.231157476     A.U. after   10 cycles
 SCF Done:  E(RB3LYP) =  -606.231158767     A.U. after   10 cycles
 SCF Done:  E(RB3LYP) =  -606.231158964     A.U. after    8 cycles
 SCF Done:  E(RB3LYP) =  -606.231159008     A.U. after    8 cycles
 Optimization completed.
    -- Stationary point found.
 Normal termination of Gaussian 16 at Wed Dec  9 23:39:49 2020.

 --------------------------------------------------------------------
 #N Geom=AllCheck Guess=TCheck SCRF=Check GenChk RB3LYP/6-31G(d) Freq
 --------------------------------------------------------------------

 Structure from the checkpoint file:  "JID_3539.chk"
 -------------------------------
 CID_150848943_JID_3539_neutraal
 -------------------------------
 Charge =  0 Multiplicity = 1

 SCF Done:  E(RB3LYP) =  -606.231159008     A.U. after    1 cycles

  Exact polarizability: 145.267 -13.475 117.917  -6.249   4.742  75.779
 Approx polarizability: 217.483 -43.618 207.661 -11.012  11.901 116.173

                      1                      2                      3
                      A                      A                      A
 Frequencies --     25.8738                62.0284               105.6087
 Red. masses --      5.5092                 4.3656                 6.7033
 Frc consts  --      0.0022                 0.0099                 0.0440
 IR Inten    --      0.6000                 0.7944                 0.1410

                      4                      5                      6
                      A                      A                      A
 Frequencies --    116.9896               130.6333               172.2116
 Red. masses --      1.7193                 4.2060                 3.6542
 Frc consts  --      0.0139                 0.0423                 0.0639
 IR Inten    --      0.6620                 5.5506                 0.6392

                      7                      8                      9
                      A                      A                      A
 Frequencies --    201.6501               228.0256               263.2175
 Red. masses --      2.4487                 2.7901                 2.5183
 Frc consts  --      0.0587                 0.0855                 0.1028
 IR Inten    --      3.2034                 6.1825                 3.5205

                     10                     11                     12
                      A                      A                      A
 Frequencies --    279.9800               304.4401               323.1985
 Red. masses --      3.0297                 3.2674                 2.8519
 Frc consts  --      0.1399                 0.1784                 0.1755
 IR Inten    --      3.7836                 5.1486                 2.5548

                     13                     14                     15
                      A                      A                      A
 Frequencies --    328.2608               377.7400               457.0442
 Red. masses --      1.1846                 3.0173                 2.7534
 Frc consts  --      0.0752                 0.2537                 0.3389
 IR Inten    --     42.9501                 8.0223                 0.3227

                     16                     17                     18
                      A                      A                      A
 Frequencies --    507.6208               538.2217               569.5212
 Red. masses --      4.0187                 5.4135                13.5328
 Frc consts  --      0.6101                 0.9240                 2.5862
 IR Inten    --      4.2217                 8.0907                14.0260

                     19                     20                     21
                      A                      A                      A
 Frequencies --    604.7232               639.4636               684.3944
 Red. masses --      2.9010                 5.2936                 4.4884
 Frc consts  --      0.6251                 1.2754                 1.2387
 IR Inten    --     61.0058                 5.3769                 0.2413

                     22                     23                     24
                      A                      A                      A
 Frequencies --    721.4025               736.1019               807.7916
 Red. masses --      1.8026                 2.2346                 1.7035
 Frc consts  --      0.5527                 0.7134                 0.6549
 IR Inten    --     48.6465               108.8073               145.4252

                     25                     26                     27
                      A                      A                      A
 Frequencies --    843.5489               874.5447               909.6378
 Red. masses --      2.6368                 4.0483                 2.4123
 Frc consts  --      1.1055                 1.8243                 1.1761
 IR Inten    --     15.7755                34.6752                16.1709

                     28                     29                     30
                      A                      A                      A
 Frequencies --    938.2177               939.5224              1004.5286
 Red. masses --      3.0621                 2.0128                 2.7700
 Frc consts  --      1.5881                 1.0468                 1.6469
 IR Inten    --      1.1722                 2.6206                 5.2848

                     31                     32                     33
                      A                      A                      A
 Frequencies --   1024.6832              1033.1183              1094.2178
 Red. masses --      2.9683                 1.9973                 2.1107
 Frc consts  --      1.8363                 1.2560                 1.4890
 IR Inten    --     27.1457                 1.3193                 4.9271

                     34                     35                     36
                      A                      A                      A
 Frequencies --   1127.5224              1156.8417              1181.5905
 Red. masses --      6.3085                 1.4589                 1.4028
 Frc consts  --      4.7253                 1.1503                 1.1540
 IR Inten    --    124.5810                 5.7846                 2.2915

                     37                     38                     39
                      A                      A                      A
 Frequencies --   1190.2463              1216.9068              1245.3623
 Red. masses --      1.2963                 1.3113                 1.4199
 Frc consts  --      1.0820                 1.1441                 1.2975
 IR Inten    --      3.4807                 6.6139                36.7937

                     40                     41                     42
                      A                      A                      A
 Frequencies --   1256.0361              1287.6333              1318.5712
 Red. masses --      1.2336                 2.3462                 1.7108
 Frc consts  --      1.1467                 2.2919                 1.7525
 IR Inten    --      0.4963                20.6158                16.9610

                     43                     44                     45
                      A                      A                      A
 Frequencies --   1333.6303              1371.5799              1394.1335
 Red. masses --      2.2980                 1.5251                 1.6311
 Frc consts  --      2.4081                 1.6904                 1.8678
 IR Inten    --    183.6367                 9.7752                23.3849

                     46                     47                     48
                      A                      A                      A
 Frequencies --   1397.1549              1428.7221              1452.4737
 Red. masses --      1.2454                 1.8229                 2.3840
 Frc consts  --      1.4323                 2.1924                 2.9633
 IR Inten    --     11.1905                 1.2595                31.4851

                     49                     50                     51
                      A                      A                      A
 Frequencies --   1490.8308              1500.4950              1514.0986
 Red. masses --      1.1109                 1.1107                 1.0933
 Frc consts  --      1.4547                 1.4734                 1.4767
 IR Inten    --      2.9475                 1.7813                 3.0678

                     52                     53                     54
                      A                      A                      A
 Frequencies --   1518.5489              1535.3142              1675.6691
 Red. masses --      1.0731                 1.0558                 2.2976
 Frc consts  --      1.4580                 1.4664                 3.8010
 IR Inten    --      6.1063                 5.2005                 8.1436

                     55                     56                     57
                      A                      A                      A
 Frequencies --   1697.4624              1754.7063              2258.8384
 Red. masses --      1.7168                 5.9836                13.6268
 Frc consts  --      2.9145                10.8547                40.9651
 IR Inten    --     59.8664                42.2233               493.5854

                     58                     59                     60
                      A                      A                      A
 Frequencies --   2969.2048              2988.1773              3005.1220
 Red. masses --      1.0797                 1.0756                 1.0384
 Frc consts  --      5.6084                 5.6586                 5.5251
 IR Inten    --     19.8876                54.2799                61.3029

                     61                     62                     63
                      A                      A                      A
 Frequencies --   3028.8231              3052.9919              3087.4338
 Red. masses --      1.0701                 1.1048                 1.0864
 Frc consts  --      5.7837                 6.0672                 6.1015
 IR Inten    --     46.3619                51.3344                31.0323

                     64                     65                     66
                      A                      A                      A
 Frequencies --   3135.2194              3147.5722              3164.7001
 Red. masses --      1.0953                 1.0970                 1.0899
 Frc consts  --      6.3435                 6.4034                 6.4315
 IR Inten    --     13.1306                22.4006                20.8875

                     67                     68                     69
                      A                      A                      A
 Frequencies --   3176.8640              3514.2182              3611.6819
 Red. masses --      1.0905                 1.0488                 1.0957
 Frc consts  --      6.4842                 7.6316                 8.4213
 IR Inten    --     24.2873                 3.5000                 3.8617

 - Thermochemistry -
 -------------------
 Temperature   298.150 Kelvin.  Pressure   1.00000 Atm.
 Atom     1 has atomic number  6 and mass  12.00000

 Molecular mass:   180.10111 amu.
 Principal axes and moments of inertia in atomic units:
                           1         2         3
     Eigenvalues --  1331.872783148.811474001.60581
           X            0.99981  -0.01596  -0.01121
           Y            0.01597   0.99987   0.00133
           Z            0.01119  -0.00151   0.99994
 This molecule is an asymmetric top.
 Rotational symmetry number  1.
 Warning -- assumption of classical behavior for rotation
           may cause significant error
 Rotational temperatures (Kelvin)      0.06503     0.02751     0.02164
 Rotational constants (GHZ):           1.35504     0.57315     0.45100
 Zero-point vibrational energy     538526.1 (Joules/Mol)
                                  128.71084 (Kcal/Mol)
 Warning -- explicit consideration of  19 degrees of freedom as
           vibrations may cause significant error
 Vibrational temperatures:     37.23    89.25   151.95   168.32   187.95
          (Kelvin)            247.77   290.13   328.08   378.71   402.83
                              438.02   465.01   472.29   543.48   657.58
                              730.35   774.38   819.41   870.06   920.05
                              984.69  1037.94  1059.09  1162.23  1213.68
                             1258.27  1308.77  1349.89  1351.76  1445.29
                             1474.29  1486.43  1574.34  1622.25  1664.44
                             1700.05  1712.50  1750.86  1791.80  1807.16
                             1852.62  1897.13  1918.80  1973.40  2005.85
                             2010.19  2055.61  2089.79  2144.97  2158.88
                             2178.45  2184.85  2208.97  2410.91  2442.27
                             2524.63  3249.96  4272.02  4299.32  4323.70
                             4357.80  4392.57  4442.13  4510.88  4528.65
                             4553.30  4570.80  5056.18  5196.40

 Zero-point correction=                           0.205114 (Hartree/Particle)
 Thermal correction to Energy=                    0.218031
 Thermal correction to Enthalpy=                  0.218975
 Thermal correction to Gibbs Free Energy=         0.165206
 Sum of electronic and zero-point Energies=           -606.026045
 Sum of electronic and thermal Energies=              -606.013128
 Sum of electronic and thermal Enthalpies=            -606.012184
 Sum of electronic and thermal Free Energies=         -606.065953

                     E (Thermal)             CV                S
                      KCal/Mol        Cal/Mol-Kelvin    Cal/Mol-Kelvin
 Total                  136.817             47.706            113.167
 Electronic               0.000              0.000              0.000
 Translational            0.889              2.981             41.472
 Rotational               0.889              2.981             31.196
 Vibrational            135.039             41.744             40.500
 Vibration     1          0.593              1.985              6.123
 Vibration     2          0.597              1.972              4.392
 Vibration     3          0.605              1.945              3.348
 Vibration     4          0.608              1.935              3.150
 Vibration     5          0.612              1.923              2.937
 Vibration     6          0.626              1.877              2.411
 Vibration     7          0.639              1.838              2.118
 Vibration     8          0.651              1.798              1.894
 Vibration     9          0.670              1.740              1.640
 Vibration    10          0.680              1.711              1.534
 Vibration    11          0.695              1.665              1.392
 Vibration    12          0.708              1.629              1.294
 Vibration    13          0.711              1.619              1.269
 Vibration    14          0.748              1.518              1.048
 Vibration    15          0.815              1.345              0.775
 Vibration    16          0.863              1.233              0.639
 Vibration    17          0.893              1.166              0.569
 Vibration    18          0.926              1.097              0.505
 Vibration    19          0.963              1.022              0.442

                           ! Non-Optimized Parameters !
 Normal termination of Gaussian 16 at Wed Dec  9 23:45:51 2020.

 ----------------------------------------------------------------------
 # B3LYP/6-311++G(d,p) empiricaldispersion=gd3bj scf=xqc pop=npa geom=c
 heck
 ----------------------------------------------------------------------

 ---------------------------------------
 CID_150848943_JID_3539_Energie_neutraal
 ---------------------------------------
 Structure from the checkpoint file:  "JID_3539.chk"
 Charge =  0 Multiplicity = 1

 SCF Done:  E(RB3LYP) =  -606.407427561     A.U. after   16 cycles
 Normal termination of Gaussian 16 at Wed Dec  9 23:48:07 2020.

 ----------------------------------------------------------------------
 # B3LYP/6-311++G(d,p) empiricaldispersion=gd3bj scf=xqc pop=npa geom=c
 heck
 ----------------------------------------------------------------------

 -------------------------------------
 CID_150848943_JID_3539_Energie_kation
 -------------------------------------
 Structure from the checkpoint file:  "JID_3539.chk"
 Charge =  1 Multiplicity = 2

 SCF Done:  E(UB3LYP) =  -606.129569618     A.U. after   26 cycles
 Normal termination of Gaussian 16 at Wed Dec  9 23:53:02 2020.
 Gaussian 16:  ES64L-G16RevA.03 25-Dec-2016

 ----------------------------------------------------------------------
 # B3LYP/6-311++G(d,p) empiricaldispersion=gd3bj scf=xqc pop=npa geom=c
 heck
 ----------------------------------------------------------------------

 ------------------------------------
 CID_150848943_JID_3539_Energie_anion
 ------------------------------------
 Structure from the checkpoint file:  "JID_3539.chk"
 Charge = -1 Multiplicity = 2

                         Standard orientation:
 ---------------------------------------------------------------------
 Center     Atomic      Atomic             Coordinates (Angstroms)
 Number     Number       Type             X           Y           Z
 ---------------------------------------------------------------------
      1          6           0       -1.334807    2.374958   -0.499642
      2          8           0       -0.662545    1.133041   -0.575981
      3          6           0       -0.055214    0.718368    0.650973
      4          6           0        1.257605    1.455081    0.960455
      5          6           0        2.427647    0.949722    0.163553
      6          6           0        2.479136   -0.341687   -0.219007
      7          6           0        1.353724   -1.229603    0.088373
      8          6           0        0.165714   -0.774253    0.518636
      9          6           0       -0.986412   -1.703462    0.782936
     10          7           0       -2.011385   -1.709595   -0.301795
     11          7           0       -2.812946   -0.773916   -0.290976
     12          7           0       -3.624447    0.026224   -0.379510
     13          7           0        3.586393   -0.955958   -0.831416
     14          1           0       -1.832257    2.520716   -1.460856
     15          1           0       -0.646403    3.214804   -0.325415
     16          1           0       -2.096706    2.372055    0.294535
     17          1           0       -0.764917    0.913368    1.472816
     18          1           0        1.114510    2.529373    0.800969
     19          1           0        1.455626    1.337517    2.039725
     20          1           0        3.256597    1.623777   -0.039052
     21          1           0        1.511003   -2.298286   -0.050476
     22          1           0       -0.634300   -2.735480    0.834243
     23          1           0       -1.472034   -1.462630    1.739197
     24          1           0        3.328797   -1.591943   -1.580022
     25          1           0        4.272778   -0.289623   -1.169591
 ---------------------------------------------------------------------

 SCF Done:  E(UB3LYP) =  -606.401183555     A.U. after   33 cycles
 SCF Done:  E(UB3LYP) =  -606.401450138     a.u. after    7 cycles

 The electronic state is 2-A.
 Alpha  occ. eigenvalues --  -18.99527 -14.31932 -14.22100 -14.20997 -14.18183
 Alpha  occ. eigenvalues --  -10.09272 -10.09195 -10.08002 -10.06073 -10.04348
 Alpha  occ. eigenvalues --  -10.02156 -10.01871 -10.00945  -0.98718  -0.90776
 Alpha  occ. eigenvalues --   -0.82936  -0.77839  -0.69442  -0.63735  -0.59980
 Alpha  occ. eigenvalues --   -0.57879  -0.54547  -0.48062  -0.45879  -0.40282
 Alpha  occ. eigenvalues --   -0.38335  -0.37621  -0.37568  -0.36672  -0.35801
 Alpha  occ. eigenvalues --   -0.34387  -0.32730  -0.31348  -0.30932  -0.29564
 Alpha  occ. eigenvalues --   -0.28349  -0.27713  -0.26769  -0.25026  -0.22457
 Alpha  occ. eigenvalues --   -0.20957  -0.20919  -0.18564  -0.16750  -0.13508
 Alpha  occ. eigenvalues --   -0.13086  -0.10902  -0.06681   0.05546
 Alpha virt. eigenvalues --    0.07662   0.08682   0.09132   0.09900   0.10606
 Alpha virt. eigenvalues --    0.11085   0.11592   0.12582   0.13122   0.13322
 Alpha virt. eigenvalues --    0.14085   0.14879   0.15470   0.15909   0.16612

  Beta  occ. eigenvalues --  -18.99499 -14.31690 -14.21826 -14.21006 -14.18129
  Beta  occ. eigenvalues --  -10.09276 -10.09180 -10.07937 -10.06059 -10.04359
  Beta  occ. eigenvalues --  -10.01895 -10.01670 -10.00786  -0.98271  -0.90710
  Beta  occ. eigenvalues --   -0.82713  -0.77671  -0.69112  -0.63423  -0.59772
  Beta  occ. eigenvalues --   -0.57607  -0.54382  -0.47878  -0.45519  -0.39983
  Beta  occ. eigenvalues --   -0.38062  -0.37420  -0.37362  -0.36124  -0.35582
  Beta  occ. eigenvalues --   -0.34147  -0.32594  -0.31190  -0.30423  -0.29212
  Beta  occ. eigenvalues --   -0.28158  -0.27539  -0.26630  -0.24843  -0.22253
  Beta  occ. eigenvalues --   -0.20781  -0.20573  -0.18448  -0.16142  -0.13419
  Beta  occ. eigenvalues --   -0.12119  -0.10702  -0.05749
  Beta virt. eigenvalues --    0.08070   0.08724   0.09448   0.10045   0.10332
  Beta virt. eigenvalues --    0.11119   0.11443   0.12257   0.12612   0.13276
  Beta virt. eigenvalues --    0.13570   0.14127   0.15014   0.15531   0.15878

 Mulliken charges and spin densities:
               1          2
     1  C   -0.174277  -0.077716
     2  O    0.014853  -0.007370
     3  C   -0.355447  -0.041180
     4  C   -0.896401  -0.088083
     5  C    0.673976   0.279278
     6  C    0.178289  -0.880755
     7  C   -1.304859   0.460862
     8  C    1.050265   0.162993
     9  C   -0.295603  -0.104778
    10  N   -0.589750  -0.012221
    11  N    0.458621   0.052721
    12  N   -0.036303   0.184668
    13  N   -0.276968  -0.047280
    14  H    0.135415  -0.004641
    15  H    0.104322  -0.006348
    16  H    0.088645   0.047308
    17  H    0.023554   0.093021
    18  H    0.091520   0.004614
    19  H    0.099473   0.012197
    20  H   -0.019987   0.141993
    21  H   -0.145853   0.245273
    22  H    0.177577   0.016840
    23  H    0.113041   0.002930
    24  H   -0.054560   0.280273
    25  H   -0.059543   0.285399
 Sum of Mulliken charges =  -1.00000   1.00000

 Dipole moment (field-independent basis, Debye):
    X=             -1.5211    Y=              2.7665    Z=              2.3502  Tot=              3.9358
 Quadrupole moment (field-independent basis, Debye-Ang):
   XX=           -135.9946   YY=            -94.0382   ZZ=            -91.4999
   XY=              4.4860   XZ=             -0.7149   YZ=             -3.9184

 Summary of Natural Population Analysis:

                                       Natural Population
                Natural  -----------------------------------------------
    Atom  No    Charge         Core      Valence    Rydberg      Total
 -----------------------------------------------------------------------
      C    1   -0.09717      0.99962     2.08882    0.00873     3.09717
      O    2   -0.29877      0.99988     3.28830    0.01059     4.29877
      C    3    0.06093      0.99950     1.92559    0.01398     2.93907
      C    4   -0.20730      0.99961     2.19912    0.00856     3.20730
      C    5   -0.11437      0.99949     2.10302    0.01186     3.11437
      C    6    0.07440      0.99944     1.91457    0.01158     2.92560
      C    7   -0.06935      0.99943     2.05867    0.01126     3.06935
      C    8    0.02205      0.99946     1.96553    0.01295     2.97795
      C    9   -0.09149      0.99954     2.07927    0.01268     3.09149
      N   10   -0.19573      0.99971     2.68194    0.01408     3.69573
      N   11    0.13761      0.99970     2.34638    0.01631     3.36239
      N   12   -0.04529      0.99982     2.53223    0.01325     3.54529
      N   13   -0.40162      0.99972     2.89115    0.01074     3.90162
      H   14    0.08863      0.00000     0.41051    0.00086     0.41137
      H   15    0.07040      0.00000     0.42820    0.00140     0.42960
      H   16    0.07940      0.00000     0.41908    0.00152     0.42060
      H   17    0.07804      0.00000     0.42042    0.00154     0.42196
      H   18    0.09621      0.00000     0.40275    0.00104     0.40379
      H   19    0.09827      0.00000     0.40058    0.00115     0.40173
      H   20    0.08542      0.00000     0.41361    0.00097     0.41458
      H   21    0.09116      0.00000     0.40737    0.00146     0.40884
      H   22    0.09566      0.00000     0.40308    0.00127     0.40434
      H   23    0.08515      0.00000     0.41380    0.00105     0.41485
      H   24    0.18024      0.00000     0.31774    0.00202     0.31976
      H   25    0.17751      0.00000     0.32071    0.00179     0.32249
 =======================================================================
   * Total *    0.00000     12.99492    34.83244    0.17264    48.00000

 Normal termination of Gaussian 16 at Thu Dec 10 00:34:25 2020.
