 Gaussian 16, Revision A.03,

 -----------------------------------------------------------
 # opt freq B3LYP/6-31G(d) empiricaldispersion=gd3bj scf=xqc
 -----------------------------------------------------------

 ----------------------------
 CID_5247057_JID_380_neutraal
 ----------------------------
 Symbolic Z-matrix:
 Charge =  0 Multiplicity = 1

 SCF Done:  E(RB3LYP) =  -463.732423361     A.U. after   13 cycles
 SCF Done:  E(RB3LYP) =  -463.734820573     A.U. after   11 cycles
 SCF Done:  E(RB3LYP) =  -463.735015704     A.U. after   10 cycles
 SCF Done:  E(RB3LYP) =  -463.735113537     A.U. after   10 cycles
 SCF Done:  E(RB3LYP) =  -463.735150493     A.U. after    9 cycles
 SCF Done:  E(RB3LYP) =  -463.735188219     A.U. after   10 cycles
 SCF Done:  E(RB3LYP) =  -463.735234100     A.U. after   10 cycles
 SCF Done:  E(RB3LYP) =  -463.735251914     A.U. after   10 cycles
 SCF Done:  E(RB3LYP) =  -463.735287654     A.U. after    9 cycles
 SCF Done:  E(RB3LYP) =  -463.735320865     A.U. after   10 cycles
 SCF Done:  E(RB3LYP) =  -463.737608763     A.U. after   11 cycles
 SCF Done:  E(RB3LYP) =  -463.737803749     A.U. after   10 cycles
 SCF Done:  E(RB3LYP) =  -463.737843062     A.U. after   10 cycles
 SCF Done:  E(RB3LYP) =  -463.737857001     A.U. after    9 cycles
 SCF Done:  E(RB3LYP) =  -463.737859886     A.U. after    8 cycles
 SCF Done:  E(RB3LYP) =  -463.737860108     A.U. after    7 cycles
 Optimization completed.
    -- Stationary point found.

 1\1\GINC-NODE320\FOpt\RB3LYP\6-31G(d)\C8H14O2\VSC10255\08-Dec-2020\0\\
 # opt freq B3LYP/6-31G(d) empiricaldispersion=gd3bj scf=xqc\\CID_52470
 57_JID_380_neutraal\\0,1\C,-1.127902902,-0.6506475521,0.2944431788\C,0
 .3447682949,-0.9198419791,-0.0662065866\O,0.7902430054,0.2485707185,-0
 .7492558781\C,0.2180009821,1.3361289274,-0.0315972098\C,-1.222968696,0
 .9041484852,0.3337065535\C,-2.2752764111,1.4812088745,-0.6315001157\C,
 -3.7245460316,1.0304445454,-0.2939207492\C,-4.2404753791,0.4410820005,
 -1.6176568698\O,-3.078709456,-0.0136730422,-2.3016799158\C,-2.10135871

 Normal termination of Gaussian 16 at Tue Dec  8 11:06:32 2020.

 --------------------------------------------------------------------
 #N Geom=AllCheck Guess=TCheck SCRF=Check GenChk RB3LYP/6-31G(d) Freq
 --------------------------------------------------------------------

 Structure from the checkpoint file:  "JID_380.chk"
 ----------------------------
 CID_5247057_JID_380_neutraal
 ----------------------------
 Charge =  0 Multiplicity = 1

 SCF Done:  E(RB3LYP) =  -463.737860108     A.U. after    1 cycles

  Exact polarizability:  94.400  -1.028  77.727  -1.050   2.883  79.964
 Approx polarizability: 116.299  -1.544 115.879  -0.105   2.876 117.301

                      1                      2                      3
                      A                      A                      A
 Frequencies --     62.0980                79.0955               108.6566
 Red. masses --      2.8901                 2.7528                 3.1347
 Frc consts  --      0.0066                 0.0101                 0.0218
 IR Inten    --      0.2266                 1.2395                 3.0829

                      4                      5                      6
                      A                      A                      A
 Frequencies --    200.1939               243.4358               281.4857
 Red. masses --      3.0814                 2.6390                 2.4525
 Frc consts  --      0.0728                 0.0921                 0.1145
 IR Inten    --      0.4764                 5.6118                 9.1854

                      7                      8                      9
                      A                      A                      A
 Frequencies --    313.6376               381.3657               500.2147
 Red. masses --      2.0344                 2.7725                 2.3806
 Frc consts  --      0.1179                 0.2376                 0.3510
 IR Inten    --      4.5190                 1.1602                 0.5207

                     10                     11                     12
                      A                      A                      A
 Frequencies --    617.6958               649.7467               713.9069
 Red. masses --      2.3128                 2.5902                 4.6776
 Frc consts  --      0.5199                 0.6443                 1.4046
 IR Inten    --      3.0875                 1.5241                 5.8216

                     13                     14                     15
                      A                      A                      A
 Frequencies --    744.9954               777.7027               874.1865
 Red. masses --      3.5274                 3.1912                 1.7000
 Frc consts  --      1.1535                 1.1372                 0.7654
 IR Inten    --     11.0007                 2.3012                 3.3738

                     16                     17                     18
                      A                      A                      A
 Frequencies --    882.4012               912.3755               940.0684
 Red. masses --      1.8085                 2.6362                 2.3019
 Frc consts  --      0.8296                 1.2929                 1.1985
 IR Inten    --      2.3884                 0.6085                16.7441

                     19                     20                     21
                      A                      A                      A
 Frequencies --    951.5883               956.5316               963.2720
 Red. masses --      2.1804                 3.0116                 3.0864
 Frc consts  --      1.1633                 1.6235                 1.6874
 IR Inten    --     13.1119                18.5004                13.2574

                     22                     23                     24
                      A                      A                      A
 Frequencies --    987.7700               993.4419              1020.2589
 Red. masses --      2.2535                 2.1882                 2.2156
 Frc consts  --      1.2955                 1.2724                 1.3588
 IR Inten    --     10.0056                 7.0157                 4.0415

                     25                     26                     27
                      A                      A                      A
 Frequencies --   1072.1899              1093.6573              1117.3018
 Red. masses --      1.6731                 2.3856                 5.7148
 Frc consts  --      1.1332                 1.6812                 4.2033
 IR Inten    --     20.3845                26.9458                59.4783

                     28                     29                     30
                      A                      A                      A
 Frequencies --   1129.4697              1148.2206              1172.5932
 Red. masses --      3.2942                 2.1542                 1.9993
 Frc consts  --      2.4760                 1.6734                 1.6196
 IR Inten    --     36.7861                14.2833                14.3467

                     31                     32                     33
                      A                      A                      A
 Frequencies --   1219.2926              1230.7248              1244.2408
 Red. masses --      1.2010                 1.1946                 1.2149
 Frc consts  --      1.0520                 1.0661                 1.1082
 IR Inten    --      1.6675                 1.8521                15.7326

                     34                     35                     36
                      A                      A                      A
 Frequencies --   1248.6484              1291.2574              1295.0141
 Red. masses --      1.2605                 1.2398                 1.2194
 Frc consts  --      1.1579                 1.2179                 1.2049
 IR Inten    --      3.0975                 1.5470                 2.6472

                     37                     38                     39
                      A                      A                      A
 Frequencies --   1301.2821              1310.5204              1331.2739
 Red. masses --      1.2866                 1.3249                 1.3196
 Frc consts  --      1.2836                 1.3407                 1.3780
 IR Inten    --      4.4070                 1.8210                 0.3129

                     40                     41                     42
                      A                      A                      A
 Frequencies --   1337.8246              1366.6575              1369.5512
 Red. masses --      1.2481                 1.2162                 1.2865
 Frc consts  --      1.3162                 1.3384                 1.4217
 IR Inten    --      6.7180                 5.9026                 3.0626

                     43                     44                     45
                      A                      A                      A
 Frequencies --   1384.4010              1400.0070              1421.1509
 Red. masses --      1.5031                 1.3445                 1.3753
 Frc consts  --      1.6973                 1.5526                 1.6365
 IR Inten    --      0.6402                 7.4865                 3.6382

                     46                     47                     48
                      A                      A                      A
 Frequencies --   1425.6636              1523.0938              1531.1089
 Red. masses --      1.3597                 1.0902                 1.0860
 Frc consts  --      1.6283                 1.4901                 1.5000
 IR Inten    --      5.9513                 3.2575                 1.6476

                     49                     50                     51
                      A                      A                      A
 Frequencies --   1535.1409              1542.0761              1552.2116
 Red. masses --      1.0848                 1.0879                 1.1014
 Frc consts  --      1.5062                 1.5242                 1.5635
 IR Inten    --      0.4623                 1.7355                 0.2063

                     52                     53                     54
                      A                      A                      A
 Frequencies --   1556.2268              2984.1476              2984.7973
 Red. masses --      1.1029                 1.0727                 1.0722
 Frc consts  --      1.5738                 5.6284                 5.6278
 IR Inten    --      4.0645                59.2415                37.3497

                     55                     56                     57
                      A                      A                      A
 Frequencies --   2991.4531              2994.8361              3051.4258
 Red. masses --      1.0733                 1.0737                 1.0848
 Frc consts  --      5.6591                 5.6739                 5.9515
 IR Inten    --    162.8180                60.8443                20.5002

                     58                     59                     60
                      A                      A                      A
 Frequencies --   3061.3684              3074.0731              3085.6546
 Red. masses --      1.0846                 1.0624                 1.0619
 Frc consts  --      5.9888                 5.9150                 5.9569
 IR Inten    --     46.4716                22.4306                30.5072

                     61                     62                     63
                      A                      A                      A
 Frequencies --   3107.6103              3114.4071              3120.9588
 Red. masses --      1.0929                 1.0976                 1.0948
 Frc consts  --      6.2188                 6.2727                 6.2830
 IR Inten    --     33.7609                32.5350                17.4572

                     64                     65                     66
                      A                      A                      A
 Frequencies --   3124.3245              3134.7821              3141.1673
 Red. masses --      1.0999                 1.1041                 1.0936
 Frc consts  --      6.3257                 6.3927                 6.3574
 IR Inten    --     46.9338                22.0775                 8.1492

 - Thermochemistry -
 -------------------
 Temperature   298.150 Kelvin.  Pressure   1.00000 Atm.
 Atom     1 has atomic number  6 and mass  12.00000

 Molecular mass:   142.09938 amu.
 Principal axes and moments of inertia in atomic units:
                           1         2         3
     Eigenvalues --   678.434011967.369822020.29162
           X            0.99994  -0.00657  -0.00849
           Y            0.00786   0.98654   0.16334
           Z            0.00730  -0.16340   0.98653
 This molecule is an asymmetric top.
 Rotational symmetry number  1.
 Warning -- assumption of classical behavior for rotation
           may cause significant error
 Rotational temperatures (Kelvin)      0.12767     0.04403     0.04287
 Rotational constants (GHZ):           2.66016     0.91734     0.89331
 Zero-point vibrational energy     569888.6 (Joules/Mol)
                                  136.20664 (Kcal/Mol)
 Warning -- explicit consideration of  10 degrees of freedom as
           vibrations may cause significant error
 Vibrational temperatures:     89.35   113.80   156.33   288.03   350.25
          (Kelvin)            405.00   451.25   548.70   719.70   888.73
                              934.84  1027.15  1071.88  1118.94  1257.76
                             1269.58  1312.70  1352.55  1369.12  1376.24
                             1385.93  1421.18  1429.34  1467.93  1542.64
                             1573.53  1607.55  1625.06  1652.03  1687.10
                             1754.29  1770.74  1790.18  1796.53  1857.83
                             1863.24  1872.25  1885.55  1915.41  1924.83
                             1966.32  1970.48  1991.84  2014.30  2044.72
                             2051.21  2191.39  2202.92  2208.73  2218.70
                             2233.29  2239.06  4293.52  4294.46  4304.03
                             4308.90  4390.32  4404.63  4422.91  4439.57
                             4471.16  4480.94  4490.36  4495.21  4510.25
                             4519.44

 Zero-point correction=                           0.217059 (Hartree/Particle)
 Thermal correction to Energy=                    0.226011
 Thermal correction to Enthalpy=                  0.226955
 Thermal correction to Gibbs Free Energy=         0.182408
 Sum of electronic and zero-point Energies=           -463.520801
 Sum of electronic and thermal Energies=              -463.511849
 Sum of electronic and thermal Enthalpies=            -463.510905
 Sum of electronic and thermal Free Energies=         -463.555453

                     E (Thermal)             CV                S
                      KCal/Mol        Cal/Mol-Kelvin    Cal/Mol-Kelvin
 Total                  141.824             34.336             93.758
 Electronic               0.000              0.000              0.000
 Translational            0.889              2.981             40.765
 Rotational               0.889              2.981             29.379
 Vibrational            140.047             28.374             23.614
 Vibration     1          0.597              1.972              4.389
 Vibration     2          0.600              1.963              3.913
 Vibration     3          0.606              1.942              3.293
 Vibration     4          0.638              1.840              2.131
 Vibration     5          0.659              1.774              1.778
 Vibration     6          0.681              1.708              1.525
 Vibration     7          0.701              1.648              1.343
 Vibration     8          0.751              1.510              1.034
 Vibration     9          0.856              1.250              0.658
 Vibration    10          0.977              0.994              0.420

 Optimization completed.
    -- Stationary point found.

 1\1\GINC-NODE320\Freq\RB3LYP\6-31G(d)\C8H14O2\VSC10255\08-Dec-2020\0\\
 #N Geom=AllCheck Guess=TCheck SCRF=Check GenChk RB3LYP/6-31G(d) Freq\\
 CID_5247057_JID_380_neutraal\\0,1\C,-1.127902902,-0.6506475521,0.29444
 31788\C,0.3447682949,-0.9198419791,-0.0662065866\O,0.7902430054,0.2485
 707185,-0.7492558781\C,0.2180009821,1.3361289274,-0.0315972098\C,-1.22
 2968696,0.9041484852,0.3337065535\C,-2.2752764111,1.4812088745,-0.6315
 001157\C,-3.7245460316,1.0304445454,-0.2939207492\C,-4.2404753791,0.44
 10820005,-1.6176568698\O,-3.078709456,-0.0136730422,-2.3016799158\C,-2

 Normal termination of Gaussian 16 at Tue Dec  8 11:11:08 2020.

 ----------------------------------------------------------------------
 # B3LYP/6-311++G(d,p) empiricaldispersion=gd3bj scf=xqc pop=npa geom=c
 heck
 ----------------------------------------------------------------------

 ------------------------------------
 CID_5247057_JID_380_Energie_neutraal
 ------------------------------------
 Structure from the checkpoint file:  "JID_380.chk"
 Charge =  0 Multiplicity = 1

 SCF Done:  E(RB3LYP) =  -463.869281011     A.U. after   13 cycles
 Normal termination of Gaussian 16 at Tue Dec  8 11:13:23 2020.

 ----------------------------------------------------------------------
 # B3LYP/6-311++G(d,p) empiricaldispersion=gd3bj scf=xqc pop=npa geom=c
 heck
 ----------------------------------------------------------------------

 ----------------------------------
 CID_5247057_JID_380_Energie_kation
 ----------------------------------
 Structure from the checkpoint file:  "JID_380.chk"
 Charge =  1 Multiplicity = 2

 SCF Done:  E(UB3LYP) =  -463.539028083     A.U. after   20 cycles
 Normal termination of Gaussian 16 at Tue Dec  8 11:16:40 2020.
 Gaussian 16:  ES64L-G16RevA.03 25-Dec-2016

 ---------------------------------
 CID_5247057_JID_380_Energie_anion
 ---------------------------------
 Structure from the checkpoint file:  "JID_380.chk"
 Charge = -1 Multiplicity = 2

                         Standard orientation:
 ---------------------------------------------------------------------
 Center     Atomic      Atomic             Coordinates (Angstroms)
 Number     Number       Type             X           Y           Z
 ---------------------------------------------------------------------
      1          6           0       -0.976836    0.292026    1.234726
      2          6           0       -2.270781    0.882929    0.644951
      3          8           0       -2.296908    0.462110   -0.716086
      4          6           0       -1.845875   -0.887462   -0.693647
      5          6           0       -0.681885   -0.938643    0.325645
      6          6           0        0.699902   -0.886076   -0.352496
      7          6           0        1.878128   -0.906221    0.661855
      8          6           0        2.712909    0.326435    0.275193
      9          8           0        1.789619    1.230791   -0.319842
     10          6           0        0.953489    0.423014   -1.145677
     11          1           0       -0.160194    1.015755    1.170032
     12          1           0       -1.098469    0.015100    2.285892
     13          1           0       -3.157605    0.497311    1.174952
     14          1           0       -2.306010    1.975085    0.655646
     15          1           0       -1.551740   -1.156879   -1.712411
     16          1           0       -2.665746   -1.554895   -0.380482
     17          1           0       -0.739258   -1.868345    0.903766
     18          1           0        0.772800   -1.744094   -1.031202
     19          1           0        2.457689   -1.832962    0.613217
     20          1           0        1.502137   -0.804543    1.684927
     21          1           0        3.181217    0.834252    1.122345
     22          1           0        3.499545    0.054585   -0.448786
     23          1           0        1.466698    0.203475   -2.095838
     24          1           0        0.042940    0.986942   -1.357943
 ---------------------------------------------------------------------

 SCF Done:  E(UB3LYP) =  -463.853083759     A.U. after   26 cycles

 The electronic state is 2-A.
 Alpha  occ. eigenvalues --  -19.01831 -19.01630 -10.10854 -10.10646 -10.10478
 Alpha  occ. eigenvalues --  -10.10103 -10.06710 -10.06655 -10.05797 -10.05715
 Alpha  occ. eigenvalues --   -0.93777  -0.93441  -0.70537  -0.64886  -0.63614
 Alpha  occ. eigenvalues --   -0.61330  -0.50872  -0.49878  -0.48755  -0.44687
 Alpha  occ. eigenvalues --   -0.40537  -0.39011  -0.37618  -0.36960  -0.34759
 Alpha  occ. eigenvalues --   -0.33836  -0.31164  -0.29701  -0.29131  -0.26915
 Alpha  occ. eigenvalues --   -0.25668  -0.25003  -0.23401  -0.22521  -0.21204
 Alpha  occ. eigenvalues --   -0.20949  -0.20634  -0.15426  -0.15192   0.04856
 Alpha virt. eigenvalues --    0.07228   0.07920   0.08640   0.09796   0.09921
 Alpha virt. eigenvalues --    0.10318   0.11111   0.11326   0.12361   0.13050
 Alpha virt. eigenvalues --    0.13629   0.14339   0.15286   0.15977   0.16271

  Beta  occ. eigenvalues --  -19.01825 -19.01625 -10.10837 -10.10626 -10.10456
  Beta  occ. eigenvalues --  -10.10087 -10.06696 -10.06641 -10.05770 -10.05695
  Beta  occ. eigenvalues --   -0.93762  -0.93429  -0.70494  -0.64845  -0.63575
  Beta  occ. eigenvalues --   -0.61290  -0.50830  -0.49816  -0.48684  -0.44643
  Beta  occ. eigenvalues --   -0.40513  -0.38944  -0.37564  -0.36931  -0.34714
  Beta  occ. eigenvalues --   -0.33795  -0.31125  -0.29668  -0.29107  -0.26876
  Beta  occ. eigenvalues --   -0.25639  -0.24961  -0.23360  -0.22490  -0.21172
  Beta  occ. eigenvalues --   -0.20913  -0.20596  -0.15378  -0.15153
  Beta virt. eigenvalues --    0.07425   0.08195   0.08778   0.09328   0.10444
  Beta virt. eigenvalues --    0.10450   0.10990   0.11747   0.11773   0.12829
  Beta virt. eigenvalues --    0.13600   0.14046   0.14630   0.15545   0.16099

 Mulliken charges and spin densities:
               1          2
     1  C   -0.028713  -0.420779
     2  C    0.886827  -1.313041
     3  O   -0.118952   0.019591
     4  C    0.171337  -0.779347
     5  C   -0.308867   0.742972
     6  C   -0.007355   0.103284
     7  C    0.627643  -0.939538
     8  C    0.384224  -0.791760
     9  O   -0.103783   0.016447
    10  C    0.451964  -0.978504
    11  H    0.159236   0.050613
    12  H   -0.467027   0.626106
    13  H   -0.136590   0.280569
    14  H   -0.017521   0.171596
    15  H   -0.192183   0.369516
    16  H   -0.264339   0.401842
    17  H   -0.621635   0.859753
    18  H   -0.460616   0.676242
    19  H   -0.773092   0.934634
    20  H    0.043062   0.107083
    21  H   -0.257101   0.415213
    22  H   -0.016115   0.144488
    23  H   -0.180960   0.314676
    24  H    0.230554  -0.011657
 Sum of Mulliken charges =  -1.00000   1.00000

 Dipole moment (field-independent basis, Debye):
    X=             -0.7194    Y=              4.4984    Z=             -1.3426  Tot=              4.7492
 Quadrupole moment (field-independent basis, Debye-Ang):
   XX=           -113.5565   YY=           -104.0699   ZZ=            -99.6276
   XY=              1.6163   XZ=              3.2995   YZ=              1.9915

 Summary of Natural Population Analysis:

                                       Natural Population
                Natural  -----------------------------------------------
    Atom  No    Charge         Core      Valence    Rydberg      Total
 -----------------------------------------------------------------------
      C    1   -0.21254      0.99962     2.20391    0.00901     3.21254
      C    2   -0.01055      0.99960     1.99848    0.01247     3.01055
      O    3   -0.30199      0.99990     3.29368    0.00841     4.30199
      C    4   -0.01146      0.99958     1.99789    0.01399     3.01146
      C    5   -0.11993      0.99958     2.10696    0.01339     3.11993
      C    6   -0.12045      0.99959     2.10724    0.01362     3.12045
      C    7   -0.20303      0.99962     2.19470    0.00870     3.20303
      C    8   -0.01105      0.99960     1.99854    0.01290     3.01105
      O    9   -0.30118      0.99990     3.29310    0.00818     4.30118
      C   10   -0.01850      0.99957     2.00558    0.01335     3.01850
      H   11    0.10635      0.00000     0.39132    0.00233     0.39365
      H   12    0.10545      0.00000     0.39280    0.00176     0.39455
      H   13    0.07711      0.00000     0.42127    0.00163     0.42289
      H   14    0.08821      0.00000     0.41072    0.00107     0.41179
      H   15    0.09111      0.00000     0.40736    0.00153     0.40889
      H   16    0.08153      0.00000     0.41670    0.00177     0.41847
      H   17    0.10627      0.00000     0.39014    0.00360     0.39373
      H   18    0.10436      0.00000     0.39276    0.00288     0.39564
      H   19    0.10656      0.00000     0.39099    0.00245     0.39344
      H   20    0.09973      0.00000     0.39853    0.00175     0.40027
      H   21    0.08936      0.00000     0.40940    0.00123     0.41064
      H   22    0.07643      0.00000     0.42190    0.00167     0.42357
      H   23    0.07975      0.00000     0.41880    0.00146     0.42025
      H   24    0.09846      0.00000     0.39938    0.00216     0.40154
 =======================================================================
   * Total *    0.00000      9.99656    28.86215    0.14129    39.00000

 Normal termination of Gaussian 16 at Tue Dec  8 11:20:33 2020.
