 Gaussian 16, Revision A.03,

 -----------------------------------------------------------
 # opt freq B3LYP/6-31G(d) empiricaldispersion=gd3bj scf=xqc
 -----------------------------------------------------------

 ------------------------------
 CID_54225263_JID_1780_neutraal
 ------------------------------
 Symbolic Z-matrix:
 Charge =  0 Multiplicity = 1

 SCF Done:  E(RB3LYP) =  -950.915483734     A.U. after   15 cycles
 SCF Done:  E(RB3LYP) =  -950.920322891     A.U. after   12 cycles
 SCF Done:  E(RB3LYP) =  -950.921242710     A.U. after   13 cycles
 SCF Done:  E(RB3LYP) =  -950.923206051     A.U. after   13 cycles
 SCF Done:  E(RB3LYP) =  -950.924116524     A.U. after   13 cycles
 SCF Done:  E(RB3LYP) =  -950.926234185     A.U. after   13 cycles
 SCF Done:  E(RB3LYP) =  -950.927233652     A.U. after   12 cycles
 SCF Done:  E(RB3LYP) =  -950.927884336     A.U. after   13 cycles
 SCF Done:  E(RB3LYP) =  -950.928064782     A.U. after   12 cycles
 SCF Done:  E(RB3LYP) =  -950.928117177     A.U. after   12 cycles
 SCF Done:  E(RB3LYP) =  -950.928130624     A.U. after    9 cycles
 SCF Done:  E(RB3LYP) =  -950.928131023     A.U. after    8 cycles
 SCF Done:  E(RB3LYP) =  -950.928131269     A.U. after    9 cycles
 SCF Done:  E(RB3LYP) =  -950.928131408     A.U. after    8 cycles
 SCF Done:  E(RB3LYP) =  -950.928131499     A.U. after    8 cycles
 SCF Done:  E(RB3LYP) =  -950.928131521     A.U. after    7 cycles
 Optimization completed.
    -- Stationary point found.
 Normal termination of Gaussian 16 at Tue Dec  8 20:20:05 2020.

 --------------------------------------------------------------------
 #N Geom=AllCheck Guess=TCheck SCRF=Check GenChk RB3LYP/6-31G(d) Freq
 --------------------------------------------------------------------

 Structure from the checkpoint file:  "JID_1780.chk"
 ------------------------------
 CID_54225263_JID_1780_neutraal
 ------------------------------
 Charge =  0 Multiplicity = 1

 SCF Done:  E(RB3LYP) =  -950.928131521     A.U. after    1 cycles

  Exact polarizability:  94.445  -6.328  88.474   0.806   0.616  76.986
 Approx polarizability: 125.028  -6.659 125.019   2.472   2.967 136.247

                      1                      2                      3
                      A                      A                      A
 Frequencies --     31.7558                50.6056                56.9692
 Red. masses --      7.4002                 5.9498                 5.1314
 Frc consts  --      0.0044                 0.0090                 0.0098
 IR Inten    --      3.7604                 1.9774                 4.5419

                      4                      5                      6
                      A                      A                      A
 Frequencies --    131.7745               157.6230               174.4632
 Red. masses --      3.8002                 5.2930                 1.4939
 Frc consts  --      0.0389                 0.0775                 0.0268
 IR Inten    --      4.6256                 2.1977                45.3499

                      7                      8                      9
                      A                      A                      A
 Frequencies --    203.8477               220.0641               247.9912
 Red. masses --      2.1874                 1.1123                 2.8234
 Frc consts  --      0.0536                 0.0317                 0.1023
 IR Inten    --     32.1229                 2.4792                 1.1261

                     10                     11                     12
                      A                      A                      A
 Frequencies --    280.4643               298.0387               327.6135
 Red. masses --      2.6581                 3.1746                 3.0664
 Frc consts  --      0.1232                 0.1661                 0.1939
 IR Inten    --      9.8601                 3.0427                 8.2810

                     13                     14                     15
                      A                      A                      A
 Frequencies --    368.9809               411.6882               442.7470
 Red. masses --      4.1502                 3.3510                 4.0599
 Frc consts  --      0.3329                 0.3346                 0.4689
 IR Inten    --     11.5734                17.1093                 4.4584

                     16                     17                     18
                      A                      A                      A
 Frequencies --    462.1804               513.5049               604.1555
 Red. masses --      7.1214                 3.8607                 3.3543
 Frc consts  --      0.8963                 0.5998                 0.7214
 IR Inten    --     24.6898                18.9715                 5.7227

                     19                     20                     21
                      A                      A                      A
 Frequencies --    635.1845               695.7915               728.4210
 Red. masses --      3.4550                 2.8742                 3.4380
 Frc consts  --      0.8213                 0.8198                 1.0748
 IR Inten    --     13.2544                 9.9687                27.0642

                     22                     23                     24
                      A                      A                      A
 Frequencies --    816.9418               883.9677               890.3069
 Red. masses --      2.1364                 4.8820                 3.0547
 Frc consts  --      0.8401                 2.2476                 1.4266
 IR Inten    --     27.9816                22.4117                 2.2719

                     25                     26                     27
                      A                      A                      A
 Frequencies --    939.9039               985.8415               992.7732
 Red. masses --      3.2508                 1.3955                 1.6083
 Frc consts  --      1.6920                 0.7991                 0.9339
 IR Inten    --     12.5950                 6.0733                20.8239

                     28                     29                     30
                      A                      A                      A
 Frequencies --   1019.9670              1029.6127              1106.5693
 Red. masses --      1.8941                 1.9964                 2.7636
 Frc consts  --      1.1610                 1.2470                 1.9938
 IR Inten    --      6.6271                 4.6424                12.9647

                     31                     32                     33
                      A                      A                      A
 Frequencies --   1114.1724              1172.3876              1190.5899
 Red. masses --      4.5289                 1.6016                 1.2866
 Frc consts  --      3.3125                 1.2970                 1.0746
 IR Inten    --    130.7782                31.4226                32.7559

                     34                     35                     36
                      A                      A                      A
 Frequencies --   1232.7825              1280.6087              1299.0482
 Red. masses --      1.7126                 1.4583                 1.6416
 Frc consts  --      1.5335                 1.4090                 1.6322
 IR Inten    --     52.0480               152.5571                87.5427

                     37                     38                     39
                      A                      A                      A
 Frequencies --   1315.1140              1343.9217              1383.8019
 Red. masses --      2.8479                 1.4861                 1.2188
 Frc consts  --      2.9021                 1.5814                 1.3751
 IR Inten    --    137.1592                41.4646                18.8924

                     40                     41                     42
                      A                      A                      A
 Frequencies --   1406.0804              1408.3970              1412.2416
 Red. masses --      1.3990                 1.3066                 1.4002
 Frc consts  --      1.6296                 1.5270                 1.6454
 IR Inten    --     11.0621                13.5743                16.7879

                     43                     44                     45
                      A                      A                      A
 Frequencies --   1484.2899              1490.7193              1492.9839
 Red. masses --      1.0590                 1.0644                 1.0603
 Frc consts  --      1.3746                 1.3936                 1.3925
 IR Inten    --      3.0193                11.7986                 7.0949

                     46                     47                     48
                      A                      A                      A
 Frequencies --   1500.9916              1513.5342              1654.1871
 Red. masses --      1.0854                 1.0943                 1.1171
 Frc consts  --      1.4408                 1.4770                 1.8010
 IR Inten    --     11.1463                19.1435                74.4137

                     49                     50                     51
                      A                      A                      A
 Frequencies --   1816.8632              3064.1176              3082.3172
 Red. masses --      7.7295                 1.0695                 1.0627
 Frc consts  --     15.0329                 5.9163                 5.9486
 IR Inten    --    143.3199                 7.1605                13.8711

                     52                     53                     54
                      A                      A                      A
 Frequencies --   3088.0178              3092.4654              3130.3544
 Red. masses --      1.0326                 1.0571                 1.1008
 Frc consts  --      5.8016                 5.9560                 6.3552
 IR Inten    --      0.5578                 1.9252                 2.9586

                     55                     56                     57
                      A                      A                      A
 Frequencies --   3143.9253              3149.5336              3185.2087
 Red. masses --      1.0959                 1.1049                 1.1061
 Frc consts  --      6.3820                 6.4578                 6.6117
 IR Inten    --      3.4067                 3.0089                 0.4489

                     58                     59                     60
                      A                      A                      A
 Frequencies --   3199.8518              3377.1685              3505.3113
 Red. masses --      1.1073                 1.0504                 1.0919
 Frc consts  --      6.6802                 7.0582                 7.9044
 IR Inten    --      2.1389                13.8792                 7.3299

 - Thermochemistry -
 -------------------
 Temperature   298.150 Kelvin.  Pressure   1.00000 Atm.
 Atom     1 has atomic number  6 and mass  12.00000

 Molecular mass:   181.04088 amu.
 Principal axes and moments of inertia in atomic units:
                           1         2         3
     Eigenvalues --  1090.073353134.602463510.51627
           X            0.99996  -0.00806  -0.00491
           Y            0.00800   0.99989  -0.01225
           Z            0.00501   0.01221   0.99991
 This molecule is an asymmetric top.
 Rotational symmetry number  1.
 Warning -- assumption of classical behavior for rotation
           may cause significant error
 Rotational temperatures (Kelvin)      0.07946     0.02763     0.02467
 Rotational constants (GHZ):           1.65561     0.57575     0.51410
 Zero-point vibrational energy     462002.2 (Joules/Mol)
                                  110.42117 (Kcal/Mol)
 Warning -- explicit consideration of  18 degrees of freedom as
           vibrations may cause significant error
 Vibrational temperatures:     45.69    72.81    81.97   189.59   226.78
          (Kelvin)            251.01   293.29   316.62   356.80   403.53
                              428.81   471.36   530.88   592.33   637.01
                              664.97   738.82   869.25   913.89  1001.09
                             1048.04  1175.40  1271.83  1280.95  1352.31
                             1418.41  1428.38  1467.50  1481.38  1592.11
                             1603.05  1686.80  1712.99  1773.70  1842.51
                             1869.04  1892.16  1933.60  1990.98  2023.04
                             2026.37  2031.90  2135.56  2144.81  2148.07
                             2159.59  2177.64  2380.01  2614.06  4408.58
                             4434.77  4442.97  4449.37  4503.88  4523.41
                             4531.48  4582.80  4603.87  4858.99  5043.36

 Zero-point correction=                           0.175967 (Hartree/Particle)
 Thermal correction to Energy=                    0.188533
 Thermal correction to Enthalpy=                  0.189477
 Thermal correction to Gibbs Free Energy=         0.136060
 Sum of electronic and zero-point Energies=           -950.752164
 Sum of electronic and thermal Energies=              -950.739598
 Sum of electronic and thermal Enthalpies=            -950.738654
 Sum of electronic and thermal Free Energies=         -950.792072

                     E (Thermal)             CV                S
                      KCal/Mol        Cal/Mol-Kelvin    Cal/Mol-Kelvin
 Total                  118.306             44.702            112.427
 Electronic               0.000              0.000              0.000
 Translational            0.889              2.981             41.487
 Rotational               0.889              2.981             30.862
 Vibrational            116.529             38.740             40.077
 Vibration     1          0.594              1.983              5.717
 Vibration     2          0.595              1.977              4.794
 Vibration     3          0.596              1.975              4.560
 Vibration     4          0.612              1.922              2.920
 Vibration     5          0.621              1.894              2.578
 Vibration     6          0.627              1.874              2.387
 Vibration     7          0.640              1.834              2.098
 Vibration     8          0.647              1.811              1.959
 Vibration     9          0.662              1.766              1.745
 Vibration    10          0.680              1.710              1.531
 Vibration    11          0.691              1.677              1.428
 Vibration    12          0.711              1.620              1.272
 Vibration    13          0.741              1.536              1.084
 Vibration    14          0.776              1.445              0.921
 Vibration    15          0.802              1.377              0.818
 Vibration    16          0.820              1.334              0.760
 Vibration    17          0.869              1.220              0.625
 Vibration    18          0.963              1.023              0.443

 Optimization completed.
    -- Stationary point found.
 Normal termination of Gaussian 16 at Tue Dec  8 20:24:46 2020.

 ----------------------------------------------------------------------
 # B3LYP/6-311++G(d,p) empiricaldispersion=gd3bj scf=xqc pop=npa geom=c
 heck
 ----------------------------------------------------------------------

 --------------------------------------
 CID_54225263_JID_1780_Energie_neutraal
 --------------------------------------
 Structure from the checkpoint file:  "JID_1780.chk"
 Charge =  0 Multiplicity = 1

 SCF Done:  E(RB3LYP) =  -951.130330025     A.U. after   14 cycles
 Normal termination of Gaussian 16 at Tue Dec  8 20:28:42 2020.

 ----------------------------------------------------------------------
 # B3LYP/6-311++G(d,p) empiricaldispersion=gd3bj scf=xqc pop=npa geom=c
 heck
 ----------------------------------------------------------------------

 ------------------------------------
 CID_54225263_JID_1780_Energie_kation
 ------------------------------------
 Structure from the checkpoint file:  "JID_1780.chk"
 Charge =  1 Multiplicity = 2

 SCF Done:  E(UB3LYP) =  -950.768689066     A.U. after   29 cycles
 Normal termination of Gaussian 16 at Tue Dec  8 20:35:29 2020.
 Gaussian 16:  ES64L-G16RevA.03 25-Dec-2016

 ----------------------------------------------------------------------
 # B3LYP/6-311++G(d,p) empiricaldispersion=gd3bj scf=xqc pop=npa geom=c
 heck
 ----------------------------------------------------------------------

 -----------------------------------
 CID_54225263_JID_1780_Energie_anion
 -----------------------------------
 Structure from the checkpoint file:  "JID_1780.chk"
 Charge = -1 Multiplicity = 2

                         Standard orientation:
 ---------------------------------------------------------------------
 Center     Atomic      Atomic             Coordinates (Angstroms)
 Number     Number       Type             X           Y           Z
 ---------------------------------------------------------------------
      1          6           0        0.858340    1.771078   -0.012239
      2         16           0        1.905668    0.298276   -0.000316
      3          8           0        3.076798    0.592673   -0.840936
      4          8           0        2.075058   -0.125494    1.401768
      5          6           0        0.926906   -0.978265   -0.873221
      6          6           0        0.125012   -1.900947    0.043981
      7          6           0       -0.957057   -1.211994    0.884956
      8          6           0       -1.954270   -0.467705    0.029548
      9          8           0       -2.328341   -0.796121   -1.078883
     10          8           0       -2.377979    0.660141    0.649012
     11          7           0       -3.274338    1.478699   -0.149702
     12          1           0        1.427388    2.541941    0.512387
     13          1           0       -0.083594    1.581385    0.503831
     14          1           0        0.683750    2.074042   -1.046374
     15          1           0        0.295492   -0.464936   -1.604733
     16          1           0        1.688014   -1.540904   -1.421057
     17          1           0       -0.343835   -2.657688   -0.593493
     18          1           0        0.811499   -2.412289    0.723800
     19          1           0       -1.513934   -1.973677    1.445644
     20          1           0       -0.515955   -0.539243    1.623553
     21          1           0       -3.443917    0.898363   -0.980387
     22          1           0       -4.133101    1.447100    0.403958
 ---------------------------------------------------------------------

 SCF Done:  E(UB3LYP) =  -951.122550751     A.U. after   30 cycles

 The electronic state is 2-A.
 Alpha  occ. eigenvalues --  -88.95233 -19.09544 -19.02055 -19.02043 -19.02027
 Alpha  occ. eigenvalues --  -14.25660 -10.20500 -10.11782 -10.11475 -10.09270
 Alpha  occ. eigenvalues --  -10.09095  -8.01728  -5.97986  -5.97887  -5.97829
 Alpha  occ. eigenvalues --   -1.02996  -1.01282  -0.93640  -0.90994  -0.75231
 Alpha  occ. eigenvalues --   -0.72614  -0.68344  -0.64205  -0.55834  -0.50329
 Alpha  occ. eigenvalues --   -0.48048  -0.43353  -0.41716  -0.40571  -0.40104
 Alpha  occ. eigenvalues --   -0.39056  -0.37610  -0.36259  -0.35298  -0.34455
 Alpha  occ. eigenvalues --   -0.33396  -0.32468  -0.29463  -0.28080  -0.27851
 Alpha  occ. eigenvalues --   -0.26906  -0.24900  -0.23812  -0.22630  -0.21269
 Alpha  occ. eigenvalues --   -0.19792  -0.19422  -0.16819   0.04354
 Alpha virt. eigenvalues --    0.06826   0.07433   0.08351   0.09219   0.09719
 Alpha virt. eigenvalues --    0.10397   0.10767   0.11624   0.12241   0.12861
 Alpha virt. eigenvalues --    0.13752   0.14646   0.14745   0.15366   0.15750

  Beta  occ. eigenvalues --  -88.95232 -19.09514 -19.02047 -19.02023 -19.02003
  Beta  occ. eigenvalues --  -14.25570 -10.20453 -10.11761 -10.11449 -10.09240
  Beta  occ. eigenvalues --  -10.09076  -8.01727  -5.97985  -5.97886  -5.97828
  Beta  occ. eigenvalues --   -1.02906  -1.01268  -0.93556  -0.90980  -0.75062
  Beta  occ. eigenvalues --   -0.72545  -0.68301  -0.64136  -0.55755  -0.50268
  Beta  occ. eigenvalues --   -0.47988  -0.43295  -0.41633  -0.40475  -0.40044
  Beta  occ. eigenvalues --   -0.39004  -0.37556  -0.36206  -0.35250  -0.34407
  Beta  occ. eigenvalues --   -0.33365  -0.32385  -0.29379  -0.28003  -0.27810
  Beta  occ. eigenvalues --   -0.26841  -0.24779  -0.23793  -0.22619  -0.21254
  Beta  occ. eigenvalues --   -0.19770  -0.19376  -0.16717
  Beta virt. eigenvalues --    0.06918   0.07843   0.08468   0.08801   0.09750
  Beta virt. eigenvalues --    0.10271   0.10779   0.11254   0.11842   0.12807
  Beta virt. eigenvalues --    0.12919   0.14038   0.14692   0.14852   0.15393

 Mulliken charges and spin densities:
               1          2
     1  C   -0.424320  -0.222364
     2  S    0.734290  -0.400019
     3  O   -0.222556   0.017954
     4  O   -0.237274  -0.000576
     5  C   -1.072421   0.626979
     6  C    1.042821  -1.444297
     7  C    0.391062  -0.477511
     8  C    0.262843  -0.579017
     9  O   -0.312518   0.061581
    10  O   -0.028918   0.120838
    11  N   -0.084049  -0.343949
    12  H    0.090951   0.129450
    13  H    0.251190  -0.022132
    14  H   -0.000965   0.218501
    15  H    0.110513   0.121302
    16  H   -0.173539   0.426997
    17  H   -0.244479   0.457562
    18  H    0.070846   0.131388
    19  H   -0.900022   1.116077
    20  H    0.288758  -0.037224
    21  H   -0.109968   0.372224
    22  H   -0.432245   0.726236
 Sum of Mulliken charges =  -1.00000   1.00000

 Dipole moment (field-independent basis, Debye):
    X=              5.3558    Y=              1.6120    Z=             -0.8329  Tot=              5.6548
 Quadrupole moment (field-independent basis, Debye-Ang):
   XX=           -151.6848   YY=           -111.1896   ZZ=           -101.6036
   XY=              3.3294   XZ=              1.9879   YZ=              3.4838

 Summary of Natural Population Analysis:

                                       Natural Population
                Natural  -----------------------------------------------
    Atom  No    Charge         Core      Valence    Rydberg      Total
 -----------------------------------------------------------------------
      C    1   -0.39295      0.99960     2.38684    0.00651     3.39295
      S    2    1.01320      4.99932     1.89338    0.09410     6.98680
      O    3   -0.47246      0.99991     3.46699    0.00556     4.47246
      O    4   -0.47125      0.99991     3.46582    0.00551     4.47125
      C    5   -0.28944      0.99957     2.27816    0.01171     3.28944
      C    6   -0.19904      0.99962     2.18837    0.01105     3.19904
      C    7   -0.24273      0.99957     2.23261    0.01055     3.24273
      C    8    0.40650      0.99969     1.56795    0.02586     2.59350
      O    9   -0.31309      0.99987     3.30687    0.00635     4.31309
      O   10   -0.21316      0.99986     3.20123    0.01208     4.21316
      N   11   -0.24198      0.99976     2.73072    0.01149     3.74198
      H   12    0.11689      0.00000     0.38193    0.00118     0.38311
      H   13    0.12214      0.00000     0.37602    0.00183     0.37786
      H   14    0.11526      0.00000     0.38343    0.00131     0.38474
      H   15    0.11794      0.00000     0.38070    0.00137     0.38206
      H   16    0.12129      0.00000     0.37751    0.00120     0.37871
      H   17    0.11358      0.00000     0.38461    0.00181     0.38642
      H   18    0.11096      0.00000     0.38764    0.00140     0.38904
      H   19    0.12573      0.00000     0.36946    0.00481     0.37427
      H   20    0.11490      0.00000     0.38330    0.00180     0.38510
      H   21    0.18078      0.00000     0.31537    0.00385     0.31922
      H   22    0.17694      0.00000     0.31197    0.01109     0.32306
 =======================================================================
   * Total *   -0.00000     14.99668    32.77088    0.23244    48.00000

 Normal termination of Gaussian 16 at Tue Dec  8 20:43:29 2020.
