 Gaussian 16, Revision A.03,

 -----------------------------------------------------------
 # opt freq B3LYP/6-31G(d) empiricaldispersion=gd3bj scf=xqc
 -----------------------------------------------------------

 -------------------------------
 CID_114276081_JID_8566_neutraal
 -------------------------------
 Symbolic Z-matrix:
 Charge =  0 Multiplicity = 1

 SCF Done:  E(RB3LYP) =  -737.488721350     A.U. after   14 cycles
 SCF Done:  E(RB3LYP) =  -737.499594095     A.U. after   12 cycles
 SCF Done:  E(RB3LYP) =  -737.500396738     A.U. after   12 cycles
 SCF Done:  E(RB3LYP) =  -737.501341511     A.U. after   11 cycles
 SCF Done:  E(RB3LYP) =  -737.501315013     A.U. after   11 cycles
 SCF Done:  E(RB3LYP) =  -737.501955884     A.U. after   11 cycles
 SCF Done:  E(RB3LYP) =  -737.502069057     A.U. after   11 cycles
 SCF Done:  E(RB3LYP) =  -737.502108871     A.U. after   10 cycles
 SCF Done:  E(RB3LYP) =  -737.502125317     A.U. after   10 cycles
 SCF Done:  E(RB3LYP) =  -737.502137062     A.U. after   10 cycles
 SCF Done:  E(RB3LYP) =  -737.502142506     A.U. after    9 cycles
 SCF Done:  E(RB3LYP) =  -737.502144483     A.U. after    8 cycles
 SCF Done:  E(RB3LYP) =  -737.502145239     A.U. after    7 cycles
 SCF Done:  E(RB3LYP) =  -737.502145291     A.U. after    6 cycles
 Optimization completed.
    -- Stationary point found.
 Normal termination of Gaussian 16 at Sun Dec 13 16:13:27 2020.

 --------------------------------------------------------------------
 #N Geom=AllCheck Guess=TCheck SCRF=Check GenChk RB3LYP/6-31G(d) Freq
 --------------------------------------------------------------------

 Structure from the checkpoint file:  "JID_8566.chk"
 -------------------------------
 CID_114276081_JID_8566_neutraal
 -------------------------------
 Charge =  0 Multiplicity = 1

 SCF Done:  E(RB3LYP) =  -737.502145291     A.U. after    1 cycles

  Exact polarizability: 214.623   4.963 183.443  -1.753   9.043 126.420
 Approx polarizability: 286.549   2.909 272.844  -2.883  25.244 195.423

                      1                      2                      3
                      A                      A                      A
 Frequencies --     13.7101                43.6720                54.4257
 Red. masses --      4.0033                 2.7410                 3.2831
 Frc consts  --      0.0004                 0.0031                 0.0057
 IR Inten    --      0.1265                 0.0118                 0.0569

                      4                      5                      6
                      A                      A                      A
 Frequencies --     82.5522                89.4404                93.3086
 Red. masses --      3.3629                 2.9016                 2.5439
 Frc consts  --      0.0135                 0.0137                 0.0130
 IR Inten    --      0.1019                 0.1715                 0.2122

                      7                      8                      9
                      A                      A                      A
 Frequencies --    101.7281               133.6625               159.6839
 Red. masses --      2.0153                 3.1352                 2.9171
 Frc consts  --      0.0123                 0.0330                 0.0438
 IR Inten    --      0.2824                 0.0612                 0.0596

                     10                     11                     12
                      A                      A                      A
 Frequencies --    184.6604               221.9854               242.8868
 Red. masses --      2.5241                 1.5704                 2.4330
 Frc consts  --      0.0507                 0.0456                 0.0846
 IR Inten    --      0.1834                 1.3578                 0.3184

                     13                     14                     15
                      A                      A                      A
 Frequencies --    267.3113               288.3847               305.9988
 Red. masses --      3.0066                 2.2627                 2.0507
 Frc consts  --      0.1266                 0.1109                 0.1131
 IR Inten    --      3.4679                15.5010                41.7473

                     16                     17                     18
                      A                      A                      A
 Frequencies --    315.2702               323.8328               343.5243
 Red. masses --      2.0252                 2.1807                 3.4584
 Frc consts  --      0.1186                 0.1347                 0.2405
 IR Inten    --     25.4629                36.7894                 0.6118

                     19                     20                     21
                      A                      A                      A
 Frequencies --    361.9164               370.1489               400.2843
 Red. masses --      4.1946                 3.6528                 2.5908
 Frc consts  --      0.3237                 0.2949                 0.2446
 IR Inten    --      2.5536                19.7490                26.3176

                     22                     23                     24
                      A                      A                      A
 Frequencies --    452.7149               484.3632               515.8852
 Red. masses --      2.6272                 3.0941                 2.9337
 Frc consts  --      0.3172                 0.4277                 0.4600
 IR Inten    --      6.7846                 4.5086                 1.0206

                     25                     26                     27
                      A                      A                      A
 Frequencies --    561.2956               632.1434               647.1144
 Red. masses --      2.5378                 4.8358                 3.2307
 Frc consts  --      0.4711                 1.1385                 0.7971
 IR Inten    --      0.3495                 2.1418                 3.3930

                     28                     29                     30
                      A                      A                      A
 Frequencies --    659.6815               693.5090               724.8712
 Red. masses --      2.8802                 2.9733                 2.0811
 Frc consts  --      0.7385                 0.8426                 0.6443
 IR Inten    --      6.8219                 5.1194                11.1351

                     31                     32                     33
                      A                      A                      A
 Frequencies --    764.0902               786.2385               793.4502
 Red. masses --      2.0163                 1.1889                 1.2092
 Frc consts  --      0.6936                 0.4330                 0.4485
 IR Inten    --      4.5324                13.7044                 0.9590

                     34                     35                     36
                      A                      A                      A
 Frequencies --    810.5996               818.5955               839.5517
 Red. masses --      1.2886                 1.4934                 1.3435
 Frc consts  --      0.4989                 0.5896                 0.5579
 IR Inten    --     16.7534                 3.9492                 3.7407

                     37                     38                     39
                      A                      A                      A
 Frequencies --    855.5589               877.1600               907.5679
 Red. masses --      1.8953                 2.5488                 2.0829
 Frc consts  --      0.8174                 1.1554                 1.0108
 IR Inten    --      4.2043                 3.5086                 0.4270

                     40                     41                     42
                      A                      A                      A
 Frequencies --    916.5163               924.4026               938.0645
 Red. masses --      1.4644                 1.6606                 1.9944
 Frc consts  --      0.7248                 0.8360                 1.0340
 IR Inten    --      0.5312                10.6295                 1.6530

                     43                     44                     45
                      A                      A                      A
 Frequencies --    939.4575               944.8233               953.8640
 Red. masses --      2.4659                 2.3082                 3.0904
 Frc consts  --      1.2823                 1.2140                 1.6567
 IR Inten    --      5.8559                 0.6085                 7.2937

                     46                     47                     48
                      A                      A                      A
 Frequencies --    963.3632               975.9784               995.6061
 Red. masses --      1.4519                 1.2837                 2.3639
 Frc consts  --      0.7939                 0.7204                 1.3806
 IR Inten    --      0.8812                 0.1897                 5.1741

                     49                     50                     51
                      A                      A                      A
 Frequencies --   1017.0535              1022.2387              1037.6164
 Red. masses --      2.3134                 5.6863                 2.5247
 Frc consts  --      1.4099                 3.5009                 1.6015
 IR Inten    --     11.5944                 4.6101                41.7876

                     52                     53                     54
                      A                      A                      A
 Frequencies --   1042.8927              1046.3951              1071.0350
 Red. masses --      1.7730                 2.4463                 1.4081
 Frc consts  --      1.1362                 1.5782                 0.9517
 IR Inten    --      0.1984                 2.8417                15.9067

                     55                     56                     57
                      A                      A                      A
 Frequencies --   1080.9143              1091.2364              1116.0035
 Red. masses --      2.1171                 1.4554                 1.8449
 Frc consts  --      1.4574                 1.0211                 1.3538
 IR Inten    --      2.4958                 2.1146                 2.0796

                     58                     59                     60
                      A                      A                      A
 Frequencies --   1135.8872              1149.9333              1151.1677
 Red. masses --      1.7407                 1.9102                 1.1834
 Frc consts  --      1.3233                 1.4883                 0.9239
 IR Inten    --      3.2355                 8.8865                 0.5150

                     61                     62                     63
                      A                      A                      A
 Frequencies --   1157.3189              1171.7179              1200.3863
 Red. masses --      2.0199                 1.5616                 2.1142
 Frc consts  --      1.5940                 1.2632                 1.7949
 IR Inten    --     14.8236                11.8414                30.7660

                     64                     65                     66
                      A                      A                      A
 Frequencies --   1209.1029              1214.1844              1215.8223
 Red. masses --      1.1436                 1.4212                 1.3279
 Frc consts  --      0.9851                 1.2345                 1.1565
 IR Inten    --      2.1055                 0.5176                 0.3910

                     67                     68                     69
                      A                      A                      A
 Frequencies --   1248.7485              1253.6931              1265.1177
 Red. masses --      1.5113                 1.7430                 1.9301
 Frc consts  --      1.3885                 1.6141                 1.8201
 IR Inten    --      0.6256                 7.2210                 9.0066

                     70                     71                     72
                      A                      A                      A
 Frequencies --   1266.3929              1274.8608              1289.2266
 Red. masses --      1.2996                 1.1765                 1.3725
 Frc consts  --      1.2280                 1.1266                 1.3440
 IR Inten    --      0.0741                 0.5351                10.7562

                     73                     74                     75
                      A                      A                      A
 Frequencies --   1294.4955              1301.0085              1322.3431
 Red. masses --      1.5641                 1.3629                 1.3216
 Frc consts  --      1.5442                 1.3591                 1.3616
 IR Inten    --      5.8375                 0.3271                12.7746

                     76                     77                     78
                      A                      A                      A
 Frequencies --   1326.4613              1361.1568              1366.3656
 Red. masses --      1.5821                 1.4133                 2.5860
 Frc consts  --      1.6402                 1.5428                 2.8446
 IR Inten    --      0.9706                40.0372                 2.4372

                     79                     80                     81
                      A                      A                      A
 Frequencies --   1387.8305              1401.2283              1403.3874
 Red. masses --      1.5894                 1.5691                 1.6452
 Frc consts  --      1.8036                 1.8151                 1.9091
 IR Inten    --     13.5361                 1.1643                 1.4480

                     82                     83                     84
                      A                      A                      A
 Frequencies --   1433.7896              1438.5729              1484.7941
 Red. masses --      1.2574                 1.4853                 2.5702
 Frc consts  --      1.5230                 1.8111                 3.3385
 IR Inten    --      4.6824                 5.6503                 8.8787

                     85                     86                     87
                      A                      A                      A
 Frequencies --   1497.5950              1509.7421              1516.5700
 Red. masses --      1.0906                 1.0889                 1.0879
 Frc consts  --      1.4412                 1.4624                 1.4743
 IR Inten    --      1.6036                 0.2114                 1.7584

                     88                     89                     90
                      A                      A                      A
 Frequencies --   1517.0253              1522.1016              1528.8719
 Red. masses --      1.0674                 1.1361                 1.0791
 Frc consts  --      1.4473                 1.5508                 1.4862
 IR Inten    --      0.4429                 1.5914                 5.2519

                     91                     92                     93
                      A                      A                      A
 Frequencies --   1534.2141              1544.1392              1544.6902
 Red. masses --      1.7079                 1.1203                 1.2021
 Frc consts  --      2.3686                 1.5739                 1.6899
 IR Inten    --     11.3518                 6.5851                 3.2110

                     94                     95                     96
                      A                      A                      A
 Frequencies --   1545.2347              1645.2481              1663.8877
 Red. masses --      1.3721                 5.5864                 5.7516
 Frc consts  --      1.9304                 8.9094                 9.3819
 IR Inten    --      8.3771                 6.1467                15.3430

                     97                     98                     99
                      A                      A                      A
 Frequencies --   3038.9491              3044.5569              3058.5680
 Red. masses --      1.0664                 1.0438                 1.0850
 Frc consts  --      5.8028                 5.7006                 5.9801
 IR Inten    --     32.6784                38.3188                16.6455

                    100                    101                    102
                      A                      A                      A
 Frequencies --   3066.8387              3068.4904              3069.7616
 Red. masses --      1.0619                 1.0570                 1.0577
 Frc consts  --      5.8845                 5.8636                 5.8727
 IR Inten    --     14.0009                60.7936                39.3995

                    103                    104                    105
                      A                      A                      A
 Frequencies --   3075.3427              3096.8138              3098.9379
 Red. masses --      1.0625                 1.0990                 1.1008
 Frc consts  --      5.9209                 6.2100                 6.2288
 IR Inten    --     19.6350                29.4722                23.7925

                    106                    107                    108
                      A                      A                      A
 Frequencies --   3111.3088              3120.4056              3120.5114
 Red. masses --      1.1073                 1.0937                 1.1089
 Frc consts  --      6.3157                 6.2743                 6.3620
 IR Inten    --     23.1447                46.2591                14.6844

                    109                    110                    111
                      A                      A                      A
 Frequencies --   3122.4275              3133.1551              3146.7041
 Red. masses --      1.0870                 1.1078                 1.0817
 Frc consts  --      6.2440                 6.4073                 6.3105
 IR Inten    --     21.0721                76.4164                19.4144

                    112                    113                    114
                      A                      A                      A
 Frequencies --   3147.0347              3163.3323              3175.4102
 Red. masses --      1.0714                 1.0592                 1.0867
 Frc consts  --      6.2519                 6.2447                 6.4560
 IR Inten    --     20.3040                19.7628                10.5564

                    115                    116                    117
                      A                      A                      A
 Frequencies --   3193.9381              3202.3714              3222.1361
 Red. masses --      1.0935                 1.0883                 1.1170
 Frc consts  --      6.5726                 6.5756                 6.8329
 IR Inten    --     34.0770                 4.1164                 9.9056

                    118                    119                    120
                      A                      A                      A
 Frequencies --   3236.7047              3250.0234              3728.4040
 Red. masses --      1.0909                 1.1135                 1.0660
 Frc consts  --      6.7338                 6.9296                 8.7306
 IR Inten    --      7.9017                13.1964                 8.5421

 - Thermochemistry -
 -------------------
 Temperature   298.150 Kelvin.  Pressure   1.00000 Atm.
 Atom     1 has atomic number  6 and mass  12.00000

 Molecular mass:   244.18272 amu.
 Principal axes and moments of inertia in atomic units:
                           1         2         3
     Eigenvalues --  2850.304516867.550058703.55870
           X            0.99998   0.00477   0.00399
           Y           -0.00473   0.99994  -0.00980
           Z           -0.00403   0.00978   0.99994
 This molecule is an asymmetric top.
 Rotational symmetry number  1.
 Warning -- assumption of classical behavior for rotation
           may cause significant error
 Rotational temperatures (Kelvin)      0.03039     0.01261     0.00995
 Rotational constants (GHZ):           0.63317     0.26279     0.20736
 Zero-point vibrational energy     982652.6 (Joules/Mol)
                                  234.85960 (Kcal/Mol)
 Warning -- explicit consideration of  25 degrees of freedom as
           vibrations may cause significant error
 Vibrational temperatures:     19.73    62.83    78.31   118.77   128.68
          (Kelvin)            134.25   146.36   192.31   229.75   265.69
                              319.39   349.46   384.60   414.92   440.26
                              453.60   465.92   494.25   520.72   532.56
                              575.92   651.36   696.89   742.24   807.58
                              909.51   931.05   949.13   997.80  1042.93
                             1099.36  1131.22  1141.60  1166.27  1177.78
                             1207.93  1230.96  1262.04  1305.79  1318.66
                             1330.01  1349.67  1351.67  1359.39  1372.40
                             1386.06  1404.22  1432.46  1463.31  1470.77
                             1492.90  1500.49  1505.53  1540.98  1555.19
                             1570.05  1605.68  1634.29  1654.50  1656.27
                             1665.12  1685.84  1727.09  1739.63  1746.94
                             1749.30  1796.67  1803.78  1820.22  1822.06
                             1834.24  1854.91  1862.49  1871.86  1902.56
                             1908.48  1958.40  1965.90  1996.78  2016.06
                             2019.16  2062.90  2069.79  2136.29  2154.71
                             2172.18  2182.01  2182.66  2189.96  2199.71
                             2207.39  2221.67  2222.46  2223.25  2367.15
                             2393.96  4372.37  4380.44  4400.60  4412.50
                             4414.87  4416.70  4424.73  4455.62  4458.68
                             4476.48  4489.57  4489.72  4492.48  4507.91
                             4527.41  4527.88  4551.33  4568.71  4595.36
                             4607.50  4635.94  4656.90  4676.06  5364.34

 Zero-point correction=                           0.374273 (Hartree/Particle)
 Thermal correction to Energy=                    0.392296
 Thermal correction to Enthalpy=                  0.393240
 Thermal correction to Gibbs Free Energy=         0.327138
 Sum of electronic and zero-point Energies=           -737.127873
 Sum of electronic and thermal Energies=              -737.109849
 Sum of electronic and thermal Enthalpies=            -737.108905
 Sum of electronic and thermal Free Energies=         -737.175007

                     E (Thermal)             CV                S
                      KCal/Mol        Cal/Mol-Kelvin    Cal/Mol-Kelvin
 Total                  246.169             70.293            139.123
 Electronic               0.000              0.000              0.000
 Translational            0.889              2.981             42.379
 Rotational               0.889              2.981             33.499
 Vibrational            244.392             64.331             63.245
 Vibration     1          0.593              1.986              7.384
 Vibration     2          0.595              1.980              5.085
 Vibration     3          0.596              1.976              4.650
 Vibration     4          0.600              1.961              3.829
 Vibration     5          0.602              1.957              3.672
 Vibration     6          0.602              1.954              3.589
 Vibration     7          0.604              1.948              3.421
 Vibration     8          0.613              1.920              2.893
 Vibration     9          0.622              1.892              2.554
 Vibration    10          0.631              1.861              2.281
 Vibration    11          0.648              1.808              1.943
 Vibration    12          0.659              1.775              1.782
 Vibration    13          0.672              1.733              1.614
 Vibration    14          0.685              1.695              1.483
 Vibration    15          0.696              1.662              1.384
 Vibration    16          0.703              1.644              1.335
 Vibration    17          0.708              1.628              1.291
 Vibration    18          0.722              1.588              1.196
 Vibration    19          0.736              1.551              1.114
 Vibration    20          0.742              1.534              1.079
 Vibration    21          0.766              1.470              0.962
 Vibration    22          0.811              1.355              0.788
 Vibration    23          0.840              1.285              0.698
 Vibration    24          0.871              1.215              0.620
 Vibration    25          0.917              1.115              0.521

 Optimization completed.
    -- Stationary point found.
 Normal termination of Gaussian 16 at Sun Dec 13 16:34:18 2020.

 ----------------------------------------------------------------------
 # B3LYP/6-311++G(d,p) empiricaldispersion=gd3bj scf=xqc pop=npa geom=c
 heck
 ----------------------------------------------------------------------

 ---------------------------------------
 CID_114276081_JID_8566_Energie_neutraal
 ---------------------------------------
 Structure from the checkpoint file:  "JID_8566.chk"
 Charge =  0 Multiplicity = 1

 SCF Done:  E(RB3LYP) =  -737.703736678     A.U. after   14 cycles
 Normal termination of Gaussian 16 at Sun Dec 13 16:44:02 2020.

 ----------------------------------------------------------------------
 # B3LYP/6-311++G(d,p) empiricaldispersion=gd3bj scf=xqc pop=npa geom=c
 heck
 ----------------------------------------------------------------------

 -------------------------------------
 CID_114276081_JID_8566_Energie_kation
 -------------------------------------
 Structure from the checkpoint file:  "JID_8566.chk"
 Charge =  1 Multiplicity = 2

 SCF Done:  E(UB3LYP) =  -737.400120888     A.U. after   23 cycles
 Normal termination of Gaussian 16 at Sun Dec 13 17:06:04 2020.
 Gaussian 16:  ES64L-G16RevA.03 25-Dec-2016

 ----------------------------------------------------------------------
 # B3LYP/6-311++G(d,p) empiricaldispersion=gd3bj scf=xqc pop=npa geom=c
 heck
 ----------------------------------------------------------------------

 ------------------------------------
 CID_114276081_JID_8566_Energie_anion
 ------------------------------------
 Structure from the checkpoint file:  "JID_8566.chk"
 Charge = -1 Multiplicity = 2

                         Standard orientation:
 ---------------------------------------------------------------------
 Center     Atomic      Atomic             Coordinates (Angstroms)
 Number     Number       Type             X           Y           Z
 ---------------------------------------------------------------------
      1          6           0       -1.648162    3.386186   -0.629300
      2          6           0       -2.632117    2.218006   -0.745380
      3          6           0       -1.932003    0.862497   -0.984163
      4          6           0       -1.580918    0.045214    0.286020
      5          6           0       -2.728435   -0.812179    0.821809
      6          6           0       -4.183760   -0.429259    0.740198
      7          6           0       -3.677721   -1.618940   -0.033136
      8          6           0       -0.344086   -0.820018    0.000597
      9          6           0       -0.430528   -2.158668   -0.399969
     10          6           0        0.727947   -2.882527   -0.682087
     11          6           0        1.980854   -2.282920   -0.569958
     12          6           0        2.094729   -0.945132   -0.174126
     13          6           0        0.922417   -0.234066    0.105648
     14          6           0        3.441021   -0.285818   -0.055585
     15          6           0        3.716093    1.054843   -0.804377
     16          6           0        4.552872    1.524714    0.412579
     17          6           0        3.836767    0.445697    1.264033
     18          8           0       -1.251432    1.019568    1.296153
     19          1           0       -0.968531    3.229370    0.212177
     20          1           0       -2.176014    4.334515   -0.474290
     21          1           0       -1.046978    3.484382   -1.542187
     22          1           0       -3.239323    2.175647    0.162654
     23          1           0       -3.320906    2.409054   -1.578913
     24          1           0       -2.534202    0.223908   -1.639348
     25          1           0       -1.001558    1.045270   -1.532371
     26          1           0       -2.441126   -1.308189    1.749571
     27          1           0       -4.803101   -0.603262    1.615436
     28          1           0       -4.459672    0.452510    0.173666
     29          1           0       -3.611111   -1.524973   -1.113264
     30          1           0       -3.941955   -2.617398    0.304760
     31          1           0       -1.397740   -2.637975   -0.488535
     32          1           0        0.651008   -3.922205   -0.989449
     33          1           0        2.879584   -2.853969   -0.790756
     34          1           0        0.981538    0.804521    0.415954
     35          1           0        4.222697   -1.009435   -0.314041
     36          1           0        4.206318    0.991146   -1.780888
     37          1           0        2.796355    1.638959   -0.912014
     38          1           0        4.452631    2.568137    0.725778
     39          1           0        5.616754    1.299321    0.284385
     40          1           0        2.952915    0.850764    1.767596
     41          1           0        4.426299   -0.119712    1.992672
     42          1           0       -0.922237    0.527285    2.065355
 ---------------------------------------------------------------------

 SCF Done:  E(UB3LYP) =  -737.689307941     A.U. after   33 cycles
 SCF Done:  E(UB3LYP) =  -737.689307941     a.u. after    1 cycles

 The electronic state is 2-A.
 Alpha  occ. eigenvalues --  -19.02779 -10.14604 -10.08728 -10.08678 -10.08619
 Alpha  occ. eigenvalues --  -10.08592 -10.08273 -10.08086 -10.08074 -10.07803
 Alpha  occ. eigenvalues --  -10.07765 -10.07749 -10.07700 -10.07689 -10.07674
 Alpha  occ. eigenvalues --  -10.07446 -10.07384 -10.06272  -0.93370  -0.77653
 Alpha  occ. eigenvalues --   -0.76981  -0.74921  -0.70137  -0.67205  -0.65766
 Alpha  occ. eigenvalues --   -0.61956  -0.57256  -0.56894  -0.56230  -0.51742
 Alpha  occ. eigenvalues --   -0.51243  -0.50568  -0.49359  -0.46748  -0.45615
 Alpha  occ. eigenvalues --   -0.43163  -0.42105  -0.39916  -0.39238  -0.38110
 Alpha  occ. eigenvalues --   -0.36462  -0.36117  -0.35270  -0.34258  -0.33557
 Alpha  occ. eigenvalues --   -0.31090  -0.30781  -0.30188  -0.29929  -0.29548
 Alpha  occ. eigenvalues --   -0.29009  -0.28373  -0.27104  -0.26366  -0.26153
 Alpha  occ. eigenvalues --   -0.25692  -0.24450  -0.24169  -0.23187  -0.22767
 Alpha  occ. eigenvalues --   -0.22150  -0.21719  -0.21354  -0.19867  -0.18271
 Alpha  occ. eigenvalues --   -0.15498  -0.14962   0.04126
 Alpha virt. eigenvalues --    0.05699   0.06273   0.06672   0.07240   0.07423
 Alpha virt. eigenvalues --    0.07583   0.07789   0.08092   0.08627   0.09029
 Alpha virt. eigenvalues --    0.09509   0.09896   0.10294   0.10525   0.11383

  Beta  occ. eigenvalues --  -19.02758 -10.14603 -10.08712 -10.08677 -10.08614
  Beta  occ. eigenvalues --  -10.08588 -10.08253 -10.08079 -10.08060 -10.07788
  Beta  occ. eigenvalues --  -10.07750 -10.07735 -10.07690 -10.07676 -10.07666
  Beta  occ. eigenvalues --  -10.07435 -10.07376 -10.06260  -0.93325  -0.77632
  Beta  occ. eigenvalues --   -0.76958  -0.74903  -0.70118  -0.67188  -0.65744
  Beta  occ. eigenvalues --   -0.61933  -0.57227  -0.56857  -0.56200  -0.51692
  Beta  occ. eigenvalues --   -0.51212  -0.50537  -0.49325  -0.46704  -0.45574
  Beta  occ. eigenvalues --   -0.43136  -0.42078  -0.39862  -0.39195  -0.38080
  Beta  occ. eigenvalues --   -0.36439  -0.36099  -0.35251  -0.34238  -0.33533
  Beta  occ. eigenvalues --   -0.31065  -0.30760  -0.30162  -0.29910  -0.29525
  Beta  occ. eigenvalues --   -0.28990  -0.28350  -0.27082  -0.26342  -0.26133
  Beta  occ. eigenvalues --   -0.25671  -0.24432  -0.24147  -0.23160  -0.22745
  Beta  occ. eigenvalues --   -0.22124  -0.21690  -0.21332  -0.19844  -0.18250
  Beta  occ. eigenvalues --   -0.15473  -0.14927
  Beta virt. eigenvalues --    0.05963   0.06469   0.06757   0.07267   0.07469
  Beta virt. eigenvalues --    0.07620   0.07911   0.07947   0.08358   0.08783
  Beta virt. eigenvalues --    0.09321   0.09831   0.10146   0.10591   0.10756

 Mulliken charges and spin densities:
               1          2
     1  C    0.036600  -0.727410
     2  C   -0.617613   0.329609
     3  C   -0.144865  -0.161737
     4  C    1.360510  -0.897138
     5  C   -2.163486   2.115370
     6  C    0.512504  -0.937036
     7  C    0.777839  -1.338015
     8  C    1.251275  -0.857058
     9  C    0.031100  -0.394981
    10  C   -0.211260  -0.229452
    11  C   -0.916227   0.422735
    12  C    0.437926   0.445734
    13  C   -0.578613  -0.158794
    14  C    0.736609  -0.685654
    15  C   -0.203132  -0.197588
    16  C    0.231025  -0.528897
    17  C   -0.164955  -0.252269
    18  O   -0.153860   0.010823
    19  H   -0.039387   0.216896
    20  H   -0.033975   0.158670
    21  H    0.096314   0.027737
    22  H    0.188698  -0.052895
    23  H   -0.174041   0.319641
    24  H    0.212159  -0.035852
    25  H    0.072809   0.085682
    26  H   -0.659099   0.907660
    27  H   -0.334337   0.498013
    28  H    0.108221   0.030965
    29  H   -0.192218   0.333351
    30  H   -0.099212   0.257575
    31  H    0.129755   0.045541
    32  H   -0.308946   0.490643
    33  H   -0.356188   0.480489
    34  H    0.731272  -0.552871
    35  H   -0.179520   0.406156
    36  H   -0.151389   0.305276
    37  H    0.047734   0.048587
    38  H   -0.066014   0.225524
    39  H    0.007710   0.096851
    40  H   -0.092666   0.217111
    41  H   -0.176678   0.331966
    42  H    0.047618   0.199041
 Sum of Mulliken charges =  -1.00000   1.00000

 Dipole moment (field-independent basis, Debye):
    X=             -0.6054    Y=              2.3513    Z=             -1.9590  Tot=              3.1197
 Quadrupole moment (field-independent basis, Debye-Ang):
   XX=           -201.5306   YY=           -166.1105   ZZ=           -151.1811
   XY=             -2.7115   XZ=              6.8532   YZ=              2.2451

 Summary of Natural Population Analysis:

                                       Natural Population
                Natural  -----------------------------------------------
    Atom  No    Charge         Core      Valence    Rydberg      Total
 -----------------------------------------------------------------------
      C    1   -0.28361      0.99966     2.27981    0.00414     3.28361
      C    2   -0.19366      0.99963     2.18626    0.00776     3.19366
      C    3   -0.19244      0.99958     2.18403    0.00884     3.19244
      C    4    0.12873      0.99945     1.85427    0.01755     2.87127
      C    5   -0.12372      0.99955     2.10965    0.01451     3.12372
      C    6   -0.19510      0.99961     2.18575    0.00974     3.19510
      C    7   -0.20125      0.99961     2.19254    0.00910     3.20125
      C    8   -0.02337      0.99948     2.01098    0.01291     3.02337
      C    9   -0.10303      0.99950     2.09444    0.00909     3.10303
      C   10   -0.09601      0.99957     2.08629    0.01016     3.09601
      C   11   -0.09760      0.99951     2.08878    0.00930     3.09760
      C   12   -0.01729      0.99951     2.00629    0.01149     3.01729
      C   13   -0.09234      0.99946     2.08589    0.00700     3.09234
      C   14   -0.11487      0.99958     2.10240    0.01289     3.11487
      C   15   -0.17935      0.99963     2.17284    0.00688     3.17935
      C   16   -0.19089      0.99965     2.18423    0.00701     3.19089
      C   17   -0.18098      0.99963     2.17287    0.00848     3.18098
      O   18   -0.37675      0.99989     3.36982    0.00704     4.37675
      H   19    0.10701      0.00000     0.39158    0.00141     0.39299
      H   20    0.09352      0.00000     0.40557    0.00090     0.40648
      H   21    0.09138      0.00000     0.40743    0.00119     0.40862
      H   22    0.10186      0.00000     0.39643    0.00170     0.39814
      H   23    0.09204      0.00000     0.40677    0.00119     0.40796
      H   24    0.10121      0.00000     0.39742    0.00137     0.39879
      H   25    0.10304      0.00000     0.39566    0.00130     0.39696
      H   26    0.10758      0.00000     0.39043    0.00199     0.39242
      H   27    0.10439      0.00000     0.39460    0.00101     0.39561
      H   28    0.10291      0.00000     0.39585    0.00124     0.39709
      H   29    0.10133      0.00000     0.39750    0.00117     0.39867
      H   30    0.10517      0.00000     0.39355    0.00129     0.39483
      H   31    0.10622      0.00000     0.39194    0.00184     0.39378
      H   32    0.10020      0.00000     0.39887    0.00093     0.39980
      H   33    0.10021      0.00000     0.39852    0.00127     0.39979
      H   34    0.10628      0.00000     0.39137    0.00234     0.39372
      H   35    0.09978      0.00000     0.39804    0.00218     0.40022
      H   36    0.09639      0.00000     0.40246    0.00115     0.40361
      H   37    0.09731      0.00000     0.40115    0.00154     0.40269
      H   38    0.09440      0.00000     0.40450    0.00110     0.40560
      H   39    0.09476      0.00000     0.40371    0.00153     0.40524
      H   40    0.09759      0.00000     0.40086    0.00155     0.40241
      H   41    0.09711      0.00000     0.40181    0.00108     0.40289
      H   42    0.23185      0.00000     0.26494    0.00321     0.26815
 =======================================================================
   * Total *    0.00001     17.99251    48.79809    0.20938    66.99999

 Normal termination of Gaussian 16 at Sun Dec 13 17:37:18 2020.
