 Gaussian 16, Revision A.03,

 -----------------------------------------------------------
 # opt freq B3LYP/6-31G(d) empiricaldispersion=gd3bj scf=xqc
 -----------------------------------------------------------

 ------------------------------
 CID_67300754_JID_8986_neutraal
 ------------------------------
 Symbolic Z-matrix:
 Charge =  0 Multiplicity = 1

 SCF Done:  E(RB3LYP) =  -825.465444622     A.U. after   14 cycles
 SCF Done:  E(RB3LYP) =  -825.470379711     A.U. after   12 cycles
 SCF Done:  E(RB3LYP) =  -825.470377723     A.U. after   12 cycles
 SCF Done:  E(RB3LYP) =  -825.470679576     A.U. after   12 cycles
 SCF Done:  E(RB3LYP) =  -825.470837507     A.U. after   11 cycles
 SCF Done:  E(RB3LYP) =  -825.470846720     A.U. after    9 cycles
 SCF Done:  E(RB3LYP) =  -825.470857944     A.U. after   10 cycles
 SCF Done:  E(RB3LYP) =  -825.470868336     A.U. after   11 cycles
 SCF Done:  E(RB3LYP) =  -825.470874071     A.U. after   11 cycles
 SCF Done:  E(RB3LYP) =  -825.470882476     A.U. after   11 cycles
 SCF Done:  E(RB3LYP) =  -825.470913505     A.U. after    9 cycles
 SCF Done:  E(RB3LYP) =  -825.470914822     A.U. after    9 cycles
 SCF Done:  E(RB3LYP) =  -825.470915184     A.U. after    8 cycles
 SCF Done:  E(RB3LYP) =  -825.470914982     A.U. after    7 cycles
 SCF Done:  E(RB3LYP) =  -825.470914853     A.U. after    7 cycles
 Optimization completed on the basis of negligible forces.
    -- Stationary point found.
 Normal termination of Gaussian 16 at Fri Dec 11 23:34:40 2020.

 --------------------------------------------------------------------
 #N Geom=AllCheck Guess=TCheck SCRF=Check GenChk RB3LYP/6-31G(d) Freq
 --------------------------------------------------------------------

 Structure from the checkpoint file:  "JID_8986.chk"
 ------------------------------
 CID_67300754_JID_8986_neutraal
 ------------------------------
 Charge =  0 Multiplicity = 1

 SCF Done:  E(RB3LYP) =  -825.470914853     A.U. after    1 cycles

  Exact polarizability: 167.011   1.560 134.676   1.267  -4.850 135.619
 Approx polarizability: 209.031   0.134 203.481  -4.253 -17.688 226.351

                      1                      2                      3
                      A                      A                      A
 Frequencies --     16.8332                26.1700                71.8695
 Red. masses --     12.4437                 4.1662                 4.1723
 Frc consts  --      0.0021                 0.0017                 0.0127
 IR Inten    --      1.3281                 3.2846                 0.0708

                      4                      5                      6
                      A                      A                      A
 Frequencies --    122.7521               132.3189               161.2163
 Red. masses --      4.0482                 3.7514                 3.7768
 Frc consts  --      0.0359                 0.0387                 0.0578
 IR Inten    --      4.0344                 0.8458                 1.6808

                      7                      8                      9
                      A                      A                      A
 Frequencies --    176.1252               191.0162               253.6029
 Red. masses --      2.8987                 2.1622                 3.4766
 Frc consts  --      0.0530                 0.0465                 0.1317
 IR Inten    --      0.3503                 0.8925                 4.7195

                     10                     11                     12
                      A                      A                      A
 Frequencies --    282.3381               315.3768               328.5565
 Red. masses --      4.4633                 3.5896                 3.8538
 Frc consts  --      0.2096                 0.2104                 0.2451
 IR Inten    --      0.1800                 1.0676                 2.7126

                     13                     14                     15
                      A                      A                      A
 Frequencies --    342.9149               397.0923               445.4133
 Red. masses --      3.5787                 3.8906                 2.3147
 Frc consts  --      0.2479                 0.3615                 0.2706
 IR Inten    --      4.7667                 5.1271                 0.5312

                     16                     17                     18
                      A                      A                      A
 Frequencies --    447.7883               516.0428               520.7153
 Red. masses --      2.2209                 2.4561                 2.2997
 Frc consts  --      0.2624                 0.3854                 0.3674
 IR Inten    --      0.8708                 5.9395                 3.5912

                     19                     20                     21
                      A                      A                      A
 Frequencies --    522.9190               547.6656               554.4528
 Red. masses --      3.5797                 3.0311                 4.0771
 Frc consts  --      0.5767                 0.5357                 0.7385
 IR Inten    --      4.3360                 3.4426                 2.9025

                     22                     23                     24
                      A                      A                      A
 Frequencies --    569.7698               629.1253               649.1768
 Red. masses --      2.6523                 1.2575                 3.1034
 Frc consts  --      0.5073                 0.2932                 0.7706
 IR Inten    --     10.2327                81.7418                 8.0553

                     25                     26                     27
                      A                      A                      A
 Frequencies --    681.0160               693.4703               727.6906
 Red. masses --      3.6272                 4.9531                 3.3366
 Frc consts  --      0.9911                 1.4034                 1.0410
 IR Inten    --     46.7229                 5.9014                 2.4950

                     28                     29                     30
                      A                      A                      A
 Frequencies --    781.4890               808.3096               821.5828
 Red. masses --      4.7226                 4.1422                 3.0818
 Frc consts  --      1.6993                 1.5946                 1.2256
 IR Inten    --     24.0946                 1.5896                 5.6222

                     31                     32                     33
                      A                      A                      A
 Frequencies --    843.5399               866.3992               875.8196
 Red. masses --      2.6808                 2.5977                 2.2279
 Frc consts  --      1.1239                 1.1489                 1.0069
 IR Inten    --      7.6055                 0.5918                 2.7220

                     34                     35                     36
                      A                      A                      A
 Frequencies --    896.7740               917.8753               919.5632
 Red. masses --      2.6524                 1.6137                 1.5603
 Frc consts  --      1.2568                 0.8010                 0.7774
 IR Inten    --      2.4885                 0.1778                 2.6684

                     37                     38                     39
                      A                      A                      A
 Frequencies --    925.7076               949.1605               962.0318
 Red. masses --      1.8923                 2.2659                 2.1941
 Frc consts  --      0.9554                 1.2027                 1.1964
 IR Inten    --      0.7306                 1.7615                 1.3147

                     40                     41                     42
                      A                      A                      A
 Frequencies --    976.1002               981.2302               989.3037
 Red. masses --      2.0760                 2.1364                 2.1825
 Frc consts  --      1.1654                 1.2119                 1.2585
 IR Inten    --      0.2939                 0.8746                 3.7486

                     43                     44                     45
                      A                      A                      A
 Frequencies --   1015.5361              1026.3414              1035.6554
 Red. masses --      2.3599                 2.7134                 1.8547
 Frc consts  --      1.4339                 1.6840                 1.1721
 IR Inten    --      5.6779                10.6258                 4.5041

                     46                     47                     48
                      A                      A                      A
 Frequencies --   1050.3326              1068.4019              1090.8949
 Red. masses --      1.6408                 1.8455                 1.8210
 Frc consts  --      1.0665                 1.2412                 1.2768
 IR Inten    --      1.5982                 0.8737                 8.9891

                     49                     50                     51
                      A                      A                      A
 Frequencies --   1101.5498              1110.7513              1137.5153
 Red. masses --      1.7699                 1.8556                 1.5329
 Frc consts  --      1.2654                 1.3488                 1.1687
 IR Inten    --      5.9838                 4.8601                 0.4649

                     52                     53                     54
                      A                      A                      A
 Frequencies --   1145.9100              1160.9380              1186.1378
 Red. masses --      1.7725                 1.3635                 1.8373
 Frc consts  --      1.3713                 1.0827                 1.5230
 IR Inten    --     33.6900               104.6602                 2.0956

                     55                     56                     57
                      A                      A                      A
 Frequencies --   1192.9722              1220.8651              1232.8100
 Red. masses --      1.3888                 1.8161                 1.5375
 Frc consts  --      1.1646                 1.5949                 1.3767
 IR Inten    --      6.4427                92.9910                 2.4133

                     58                     59                     60
                      A                      A                      A
 Frequencies --   1235.9004              1243.0583              1257.9598
 Red. masses --      1.4972                 2.4450                 1.4117
 Frc consts  --      1.3474                 2.2259                 1.3162
 IR Inten    --     15.5972                68.8260                26.8476

                     61                     62                     63
                      A                      A                      A
 Frequencies --   1272.9073              1282.6527              1287.0655
 Red. masses --      1.5062                 1.7045                 2.0234
 Frc consts  --      1.4379                 1.6522                 1.9748
 IR Inten    --      1.6341                 9.3906                 4.4338

                     64                     65                     66
                      A                      A                      A
 Frequencies --   1302.3580              1306.0977              1315.2914
 Red. masses --      1.5926                 1.6585                 1.8188
 Frc consts  --      1.5915                 1.6669                 1.8539
 IR Inten    --      4.2978                62.5486                13.9674

                     67                     68                     69
                      A                      A                      A
 Frequencies --   1327.1223              1335.3440              1343.0987
 Red. masses --      1.5440                 1.5778                 1.5600
 Frc consts  --      1.6022                 1.6576                 1.6580
 IR Inten    --     19.6656                26.3395                 3.5835

                     70                     71                     72
                      A                      A                      A
 Frequencies --   1362.9483              1366.8783              1369.2372
 Red. masses --      1.5789                 1.4632                 1.7526
 Frc consts  --      1.7281                 1.6107                 1.9360
 IR Inten    --      3.9301                19.2468                26.5334

                     73                     74                     75
                      A                      A                      A
 Frequencies --   1374.3890              1397.3157              1400.0494
 Red. masses --      1.5644                 2.8714                 1.5201
 Frc consts  --      1.7411                 3.3032                 1.7555
 IR Inten    --      1.0029                49.8996                 7.4339

                     76                     77                     78
                      A                      A                      A
 Frequencies --   1449.4658              1501.2466              1513.4655
 Red. masses --      2.4263                 1.0856                 1.0923
 Frc consts  --      3.0033                 1.4415                 1.4741
 IR Inten    --    134.1816                 2.5772                 0.2707

                     79                     80                     81
                      A                      A                      A
 Frequencies --   1521.9364              1526.9390              1533.3400
 Red. masses --      1.0863                 1.1032                 1.0964
 Frc consts  --      1.4825                 1.5155                 1.5188
 IR Inten    --      2.4877                 6.1508                 8.0863

                     82                     83                     84
                      A                      A                      A
 Frequencies --   1537.1926              1558.0080              1563.2322
 Red. masses --      1.0977                 1.0939                 1.0996
 Frc consts  --      1.5283                 1.5645                 1.5831
 IR Inten    --      4.7161                 1.7056                 8.0227

                     85                     86                     87
                      A                      A                      A
 Frequencies --   1792.6826              1833.8057              3013.3219
 Red. masses --     11.7774                 9.9395                 1.0722
 Frc consts  --     22.3001                19.6935                 5.7360
 IR Inten    --    263.9256               266.9734                38.8325

                     88                     89                     90
                      A                      A                      A
 Frequencies --   3051.3651              3054.3294              3056.7133
 Red. masses --      1.0679                 1.0611                 1.0669
 Frc consts  --      5.8583                 5.8325                 5.8732
 IR Inten    --     21.8605                15.5481                22.6814

                     91                     92                     93
                      A                      A                      A
 Frequencies --   3058.7066              3063.7279              3064.6630
 Red. masses --      1.0702                 1.0658                 1.0669
 Frc consts  --      5.8993                 5.8941                 5.9038
 IR Inten    --     16.6791                53.6803                25.0500

                     94                     95                     96
                      A                      A                      A
 Frequencies --   3074.5026              3083.9638              3096.6944
 Red. masses --      1.0640                 1.0846                 1.1050
 Frc consts  --      5.9257                 6.0777                 6.2433
 IR Inten    --     23.6846                69.7131                31.5377

                     97                     98                     99
                      A                      A                      A
 Frequencies --   3102.5350              3111.0373              3126.2236
 Red. masses --      1.0956                 1.0998                 1.0992
 Frc consts  --      6.2136                 6.2716                 6.3297
 IR Inten    --      5.5740                63.3567                 8.8384

                    100                    101                    102
                      A                      A                      A
 Frequencies --   3126.7977              3129.3241              3138.0759
 Red. masses --      1.1010                 1.0976                 1.0981
 Frc consts  --      6.3421                 6.3326                 6.3713
 IR Inten    --     26.0167                18.0701                18.5695

                    103                    104                    105
                      A                      A                      A
 Frequencies --   3148.6918              3170.8637              3684.5270
 Red. masses --      1.0880                 1.0945                 1.0639
 Frc consts  --      6.3556                 6.4835                 8.5100
 IR Inten    --     11.7293                 4.8608                50.3480

 - Thermochemistry -
 -------------------
 Temperature   298.150 Kelvin.  Pressure   1.00000 Atm.
 Atom     1 has atomic number  6 and mass  12.00000

 Molecular mass:   249.13649 amu.
 Principal axes and moments of inertia in atomic units:
                           1         2         3
     Eigenvalues --  2231.512776184.076206486.72165
           X            0.99978   0.00862   0.01933
           Y           -0.00885   0.99989   0.01182
           Z           -0.01923  -0.01199   0.99974
 This molecule is an asymmetric top.
 Rotational symmetry number  1.
 Warning -- assumption of classical behavior for rotation
           may cause significant error
 Rotational temperatures (Kelvin)      0.03881     0.01401     0.01335
 Rotational constants (GHZ):           0.80875     0.29184     0.27822
 Zero-point vibrational energy     843857.6 (Joules/Mol)
                                  201.68682 (Kcal/Mol)
 Warning -- explicit consideration of  22 degrees of freedom as
           vibrations may cause significant error
 Vibrational temperatures:     24.22    37.65   103.40   176.61   190.38
          (Kelvin)            231.95   253.40   274.83   364.88   406.22
                              453.76   472.72   493.38   571.33   640.85
                              644.27   742.47   749.19   752.36   787.97
                              797.73   819.77   905.17   934.02   979.83
                              997.75  1046.98  1124.39  1162.98  1182.07
                             1213.67  1246.56  1260.11  1290.26  1320.62
                             1323.05  1331.89  1365.63  1384.15  1404.39
                             1411.77  1423.39  1461.13  1476.68  1490.08
                             1511.19  1537.19  1569.55  1584.88  1598.12
                             1636.63  1648.71  1670.33  1706.59  1716.42
                             1756.55  1773.74  1778.19  1788.48  1809.92
                             1831.43  1845.45  1851.80  1873.80  1879.18
                             1892.41  1909.43  1921.26  1932.42  1960.98
                             1966.63  1970.03  1977.44  2010.43  2014.36
                             2085.46  2159.96  2177.54  2189.73  2196.92
                             2206.13  2211.68  2241.63  2249.14  2579.27
                             2638.44  4335.50  4390.23  4394.50  4397.93
                             4400.80  4408.02  4409.37  4423.52  4437.14
                             4455.45  4463.86  4476.09  4497.94  4498.76
                             4502.40  4514.99  4530.27  4562.17  5301.21

 Zero-point correction=                           0.321408 (Hartree/Particle)
 Thermal correction to Energy=                    0.336137
 Thermal correction to Enthalpy=                  0.337081
 Thermal correction to Gibbs Free Energy=         0.278209
 Sum of electronic and zero-point Energies=           -825.149506
 Sum of electronic and thermal Energies=              -825.134778
 Sum of electronic and thermal Enthalpies=            -825.133833
 Sum of electronic and thermal Free Energies=         -825.192706

                     E (Thermal)             CV                S
                      KCal/Mol        Cal/Mol-Kelvin    Cal/Mol-Kelvin
 Total                  210.929             60.071            123.908
 Electronic               0.000              0.000              0.000
 Translational            0.889              2.981             42.439
 Rotational               0.889              2.981             32.859
 Vibrational            209.152             54.110             48.610
 Vibration     1          0.593              1.986              6.977
 Vibration     2          0.593              1.985              6.100
 Vibration     3          0.598              1.967              4.101
 Vibration     4          0.610              1.930              3.057
 Vibration     5          0.612              1.921              2.912
 Vibration     6          0.622              1.890              2.535
 Vibration     7          0.628              1.872              2.369
 Vibration     8          0.634              1.852              2.218
 Vibration     9          0.665              1.757              1.705
 Vibration    10          0.681              1.706              1.519
 Vibration    11          0.703              1.644              1.334
 Vibration    12          0.712              1.618              1.267
 Vibration    13          0.722              1.590              1.199
 Vibration    14          0.764              1.476              0.973
 Vibration    15          0.805              1.371              0.810
 Vibration    16          0.807              1.366              0.802
 Vibration    17          0.871              1.214              0.619
 Vibration    18          0.876              1.204              0.608
 Vibration    19          0.878              1.199              0.603
 Vibration    20          0.903              1.145              0.549
 Vibration    21          0.910              1.130              0.535
 Vibration    22          0.926              1.097              0.505

 Optimization completed.
    -- Stationary point found.
 Normal termination of Gaussian 16 at Fri Dec 11 23:56:27 2020.

 ----------------------------------------------------------------------
 # B3LYP/6-311++G(d,p) empiricaldispersion=gd3bj scf=xqc pop=npa geom=c
 heck
 ----------------------------------------------------------------------

 --------------------------------------
 CID_67300754_JID_8986_Energie_neutraal
 --------------------------------------
 Structure from the checkpoint file:  "JID_8986.chk"
 Charge =  0 Multiplicity = 1

 SCF Done:  E(RB3LYP) =  -825.703606351     A.U. after   15 cycles
 Normal termination of Gaussian 16 at Sat Dec 12 00:05:53 2020.

 ----------------------------------------------------------------------
 # B3LYP/6-311++G(d,p) empiricaldispersion=gd3bj scf=xqc pop=npa geom=c
 heck
 ----------------------------------------------------------------------

 ------------------------------------
 CID_67300754_JID_8986_Energie_kation
 ------------------------------------
 Structure from the checkpoint file:  "JID_8986.chk"
 Charge =  1 Multiplicity = 2

 SCF Done:  E(UB3LYP) =  -825.394138093     A.U. after   26 cycles
 Normal termination of Gaussian 16 at Sat Dec 12 00:28:23 2020.
 Gaussian 16:  ES64L-G16RevA.03 25-Dec-2016

 ----------------------------------------------------------------------
 # B3LYP/6-311++G(d,p) empiricaldispersion=gd3bj scf=xqc pop=npa geom=c
 heck
 ----------------------------------------------------------------------

 -----------------------------------
 CID_67300754_JID_8986_Energie_anion
 -----------------------------------
 Structure from the checkpoint file:  "JID_8986.chk"
 Charge = -1 Multiplicity = 2

                         Standard orientation:
 ---------------------------------------------------------------------
 Center     Atomic      Atomic             Coordinates (Angstroms)
 Number     Number       Type             X           Y           Z
 ---------------------------------------------------------------------
      1          6           0       -4.162735    0.079914   -0.916186
      2          6           0       -3.991531   -0.994387    0.164171
      3          6           0       -2.581739   -0.752784    0.702737
      4          8           0       -2.114192   -1.205219    1.739476
      5          7           0       -1.920472    0.042714   -0.200253
      6          6           0       -2.720834    0.349806   -1.385343
      7          6           0       -0.500942    0.368726   -0.061067
      8          6           0       -0.267824    1.268044    1.189500
      9          6           0        1.227416    1.623619    1.382371
     10          6           0        1.783249    2.260980    0.097986
     11          6           0        1.599169    1.099006   -0.900062
     12          6           0        0.109750    1.054862   -1.296492
     13          6           0        1.807562   -0.201561   -0.017116
     14          6           0        2.066038    0.336940    1.416889
     15          6           0        0.409706   -0.874065    0.016072
     16          6           0        2.872120   -1.130624   -0.531403
     17          8           0        3.448110   -1.052312   -1.596144
     18          8           0        3.123727   -2.134096    0.349100
     19          1           0       -4.814328   -0.220337   -1.740832
     20          1           0       -4.577107    0.991602   -0.472684
     21          1           0       -4.023833   -2.008577   -0.254941
     22          1           0       -4.724076   -0.950420    0.973177
     23          1           0       -2.445246   -0.300556   -2.228716
     24          1           0       -2.571966    1.385490   -1.702683
     25          1           0       -0.649957    0.739740    2.066747
     26          1           0       -0.858947    2.184909    1.069563
     27          1           0        1.357630    2.245218    2.274828
     28          1           0        2.840455    2.521481    0.226690
     29          1           0        1.250831    3.165683   -0.215145
     30          1           0        2.271941    1.130480   -1.756769
     31          1           0       -0.292089    2.054788   -1.488956
     32          1           0       -0.052959    0.444001   -2.191629
     33          1           0        3.124261    0.574979    1.574831
     34          1           0        1.763132   -0.382207    2.181870
     35          1           0        0.236228   -1.504569   -0.864422
     36          1           0        0.247964   -1.474997    0.910053
     37          1           0        3.803776   -2.693549   -0.071002
 ---------------------------------------------------------------------

 SCF Done:  E(UB3LYP) =  -825.694049868     A.U. after   33 cycles
 SCF Done:  E(UB3LYP) =  -825.694049868     a.u. after    1 cycles

 The electronic state is 2-A.
 Alpha  occ. eigenvalues --  -19.08002 -19.02627 -18.99139 -14.24529 -10.21470
 Alpha  occ. eigenvalues --  -10.17232 -10.12724 -10.11344 -10.10359 -10.08572
 Alpha  occ. eigenvalues --  -10.08471 -10.08471 -10.08349 -10.07894 -10.07636
 Alpha  occ. eigenvalues --  -10.07556 -10.07239 -10.07061  -1.02016  -0.94240
 Alpha  occ. eigenvalues --   -0.93024  -0.85629  -0.79964  -0.71721  -0.68323
 Alpha  occ. eigenvalues --   -0.66884  -0.64901  -0.62229  -0.57236  -0.57069
 Alpha  occ. eigenvalues --   -0.53565  -0.52677  -0.50646  -0.46771  -0.44948
 Alpha  occ. eigenvalues --   -0.44629  -0.41627  -0.40176  -0.39744  -0.39191
 Alpha  occ. eigenvalues --   -0.37138  -0.36683  -0.36262  -0.35661  -0.34879
 Alpha  occ. eigenvalues --   -0.33949  -0.32676  -0.31680  -0.30671  -0.30527
 Alpha  occ. eigenvalues --   -0.29955  -0.29836  -0.29260  -0.27426  -0.26886
 Alpha  occ. eigenvalues --   -0.26739  -0.24545  -0.24429  -0.23873  -0.23465
 Alpha  occ. eigenvalues --   -0.23305  -0.22359  -0.22189  -0.21432  -0.18884
 Alpha  occ. eigenvalues --   -0.15692  -0.14708   0.03885
 Alpha virt. eigenvalues --    0.05581   0.06373   0.07460   0.07600   0.08453
 Alpha virt. eigenvalues --    0.08623   0.08883   0.09398   0.10004   0.10161
 Alpha virt. eigenvalues --    0.10997   0.11405   0.11730   0.12117   0.12311

  Beta  occ. eigenvalues --  -19.07967 -19.02618 -18.99137 -14.24527 -10.21467
  Beta  occ. eigenvalues --  -10.17231 -10.12724 -10.11308 -10.10353 -10.08560
  Beta  occ. eigenvalues --  -10.08467 -10.08439 -10.08346 -10.07884 -10.07624
  Beta  occ. eigenvalues --  -10.07538 -10.07224 -10.07050  -1.01969  -0.94236
  Beta  occ. eigenvalues --   -0.92987  -0.85617  -0.79947  -0.71699  -0.68301
  Beta  occ. eigenvalues --   -0.66857  -0.64877  -0.62178  -0.57196  -0.57035
  Beta  occ. eigenvalues --   -0.53527  -0.52621  -0.50593  -0.46742  -0.44908
  Beta  occ. eigenvalues --   -0.44599  -0.41593  -0.40151  -0.39717  -0.39153
  Beta  occ. eigenvalues --   -0.37114  -0.36661  -0.36235  -0.35634  -0.34853
  Beta  occ. eigenvalues --   -0.33921  -0.32643  -0.31659  -0.30643  -0.30506
  Beta  occ. eigenvalues --   -0.29925  -0.29815  -0.29234  -0.27405  -0.26858
  Beta  occ. eigenvalues --   -0.26694  -0.24519  -0.24403  -0.23850  -0.23444
  Beta  occ. eigenvalues --   -0.23286  -0.22339  -0.22170  -0.21413  -0.18858
  Beta  occ. eigenvalues --   -0.15682  -0.14692
  Beta virt. eigenvalues --    0.06022   0.06676   0.07124   0.08043   0.08252
  Beta virt. eigenvalues --    0.08540   0.08987   0.09116   0.09743   0.10310
  Beta virt. eigenvalues --    0.10421   0.11137   0.11544   0.11930   0.12298

 Mulliken charges and spin densities:
               1          2
     1  C    1.001223  -1.547857
     2  C   -0.761791   0.278167
     3  C    0.657387  -0.504872
     4  O   -0.284560  -0.002984
     5  N    0.761589   0.048448
     6  C    0.822965  -0.724342
     7  C   -4.168856   2.636894
     8  C    1.473621  -1.727493
     9  C   -0.992029   1.363694
    10  C    0.841721  -1.598713
    11  C   -2.031515   2.092163
    12  C    0.812618  -1.528083
    13  C   -1.391150   0.833666
    14  C   -0.019014  -0.676889
    15  C    1.096651  -1.104136
    16  C    2.682630  -1.758909
    17  O   -0.230862  -0.008959
    18  O   -0.073428   0.010827
    19  H   -0.386663   0.571240
    20  H   -0.125805   0.275748
    21  H    0.029935   0.135600
    22  H    0.071324   0.109789
    23  H   -0.170789   0.339376
    24  H   -0.404285   0.579087
    25  H    0.227474  -0.021274
    26  H   -0.122148   0.309938
    27  H   -0.097831   0.332415
    28  H    0.014110   0.139308
    29  H   -0.275060   0.426191
    30  H    0.081515   0.206792
    31  H   -0.140054   0.343222
    32  H    0.091231   0.067213
    33  H   -0.130861   0.306219
    34  H    0.154285   0.026217
    35  H   -0.167889   0.363507
    36  H    0.324478  -0.059233
    37  H   -0.170167   0.468025
 Sum of Mulliken charges =  -1.00000   1.00000

 Dipole moment (field-independent basis, Debye):
    X=              1.4205    Y=             -0.3128    Z=              2.2439  Tot=              2.6741
 Quadrupole moment (field-independent basis, Debye-Ang):
   XX=           -182.6934   YY=           -154.8075   ZZ=           -152.3167
   XY=              8.2202   XZ=             -4.1357   YZ=              3.6124

 Summary of Natural Population Analysis:

                                       Natural Population
                Natural  -----------------------------------------------
    Atom  No    Charge         Core      Valence    Rydberg      Total
 -----------------------------------------------------------------------
      C    1   -0.19217      0.99964     2.18444    0.00808     3.19217
      C    2   -0.22874      0.99961     2.22076    0.00837     3.22874
      C    3    0.35124      0.99964     1.62531    0.02381     2.64876
      O    4   -0.32835      0.99988     3.32342    0.00506     4.32835
      N    5   -0.26180      0.99959     2.74845    0.01376     3.76180
      C    6   -0.07504      0.99962     2.06539    0.01004     3.07504
      C    7    0.07699      0.99952     1.90661    0.01688     2.92301
      C    8   -0.19454      0.99957     2.18472    0.01025     3.19454
      C    9   -0.11179      0.99959     2.09989    0.01231     3.11179
      C   10   -0.18840      0.99961     2.17982    0.00897     3.18840
      C   11   -0.10350      0.99959     2.09143    0.01249     3.10350
      C   12   -0.19345      0.99958     2.18369    0.01018     3.19345
      C   13   -0.08083      0.99950     2.06724    0.01409     3.08083
      C   14   -0.18116      0.99959     2.17198    0.00959     3.18116
      C   15   -0.18606      0.99955     2.17525    0.01125     3.18606
      C   16    0.41687      0.99957     1.55731    0.02624     2.58313
      O   17   -0.30737      0.99987     3.30202    0.00548     4.30737
      O   18   -0.34479      0.99988     3.33859    0.00632     4.34479
      H   19    0.10434      0.00000     0.39403    0.00163     0.39566
      H   20    0.09960      0.00000     0.39893    0.00146     0.40040
      H   21    0.10798      0.00000     0.39095    0.00107     0.39202
      H   22    0.10850      0.00000     0.39051    0.00099     0.39150
      H   23    0.09108      0.00000     0.40704    0.00188     0.40892
      H   24    0.10232      0.00000     0.39531    0.00237     0.39768
      H   25    0.11496      0.00000     0.38384    0.00120     0.38504
      H   26    0.10323      0.00000     0.39539    0.00138     0.39677
      H   27    0.10242      0.00000     0.39671    0.00087     0.39758
      H   28    0.09915      0.00000     0.39976    0.00109     0.40085
      H   29    0.10184      0.00000     0.39709    0.00107     0.39816
      H   30    0.11568      0.00000     0.38338    0.00095     0.38432
      H   31    0.10562      0.00000     0.39280    0.00158     0.39438
      H   32    0.10493      0.00000     0.39360    0.00147     0.39507
      H   33    0.10185      0.00000     0.39710    0.00105     0.39815
      H   34    0.10641      0.00000     0.39254    0.00105     0.39359
      H   35    0.10396      0.00000     0.39482    0.00122     0.39604
      H   36    0.11828      0.00000     0.38059    0.00112     0.38172
      H   37    0.24073      0.00000     0.25198    0.00729     0.25927
 =======================================================================
   * Total *    0.00000     17.99342    48.76270    0.24389    67.00000

 Normal termination of Gaussian 16 at Sat Dec 12 00:56:29 2020.
