 Gaussian 16, Revision A.03,

 -----------------------------------------------------------
 # opt freq B3LYP/6-31G(d) empiricaldispersion=gd3bj scf=xqc
 -----------------------------------------------------------

 --------------------------------
 CID_108149216_JID_10169_neutraal
 --------------------------------
 Symbolic Z-matrix:
 Charge =  0 Multiplicity = 1

 SCF Done:  E(RB3LYP) =  -932.219889339     A.U. after   15 cycles
 SCF Done:  E(RB3LYP) =  -932.227336150     A.U. after   15 cycles
 SCF Done:  E(RB3LYP) =  -932.222950864     A.U. after   16 cycles
 SCF Done:  E(RB3LYP) =  -932.232083283     A.U. after   13 cycles
 SCF Done:  E(RB3LYP) =  -932.234382491     A.U. after   14 cycles
 SCF Done:  E(RB3LYP) =  -932.236748113     A.U. after   15 cycles
 SCF Done:  E(RB3LYP) =  -932.239342528     A.U. after   14 cycles
 SCF Done:  E(RB3LYP) =  -932.240391512     A.U. after   15 cycles
 SCF Done:  E(RB3LYP) =  -932.241740427     A.U. after   14 cycles
 SCF Done:  E(RB3LYP) =  -932.242310519     A.U. after   14 cycles
 SCF Done:  E(RB3LYP) =  -932.248349786     A.U. after    8 cycles
 SCF Done:  E(RB3LYP) =  -932.248350279     A.U. after    8 cycles
 SCF Done:  E(RB3LYP) =  -932.248350393     A.U. after    7 cycles
 SCF Done:  E(RB3LYP) =  -932.248350427     A.U. after    7 cycles
 SCF Done:  E(RB3LYP) =  -932.248350457     A.U. after    7 cycles
 Optimization completed.
    -- Stationary point found.
 Normal termination of Gaussian 16 at Sun Dec 13 21:42:28 2020.

 --------------------------------------------------------------------
 #N Geom=AllCheck Guess=TCheck SCRF=Check GenChk RB3LYP/6-31G(d) Freq
 --------------------------------------------------------------------

 Structure from the checkpoint file:  "JID_10169.chk"
 --------------------------------
 CID_108149216_JID_10169_neutraal
 --------------------------------
 Charge =  0 Multiplicity = 1

 SCF Done:  E(RB3LYP) =  -932.248350457     A.U. after    1 cycles

  Exact polarizability: 228.978  18.023 197.370  19.911  -9.548 134.329
 Approx polarizability: 298.973  40.013 310.141  49.160 -23.166 227.936

                      1                      2                      3
                      A                      A                      A
 Frequencies --     22.7725                36.6036                45.3638
 Red. masses --      3.5227                 3.6004                 4.6734
 Frc consts  --      0.0011                 0.0028                 0.0057
 IR Inten    --      0.2397                 0.0703                 0.3992

                      4                      5                      6
                      A                      A                      A
 Frequencies --     49.1126                71.1403                83.4569
 Red. masses --      3.5145                 3.3126                 2.0338
 Frc consts  --      0.0050                 0.0099                 0.0083
 IR Inten    --      1.2946                 2.1786                 0.3980

                      7                      8                      9
                      A                      A                      A
 Frequencies --     94.5789               141.8625               154.2862
 Red. masses --      4.4598                 4.6244                 2.5216
 Frc consts  --      0.0235                 0.0548                 0.0354
 IR Inten    --      1.6174                 0.2805                 0.2043

                     10                     11                     12
                      A                      A                      A
 Frequencies --    158.4289               179.5435               193.3678
 Red. masses --      2.0791                 1.2625                 3.0069
 Frc consts  --      0.0307                 0.0240                 0.0662
 IR Inten    --      1.5950                 1.1525                 1.6927

                     13                     14                     15
                      A                      A                      A
 Frequencies --    208.3900               223.3361               232.8125
 Red. masses --      3.1462                 3.4769                 1.6340
 Frc consts  --      0.0805                 0.1022                 0.0522
 IR Inten    --      1.1570                 2.1856                 2.8657

                     16                     17                     18
                      A                      A                      A
 Frequencies --    247.4664               251.6750               274.4963
 Red. masses --      1.6935                 3.9560                 1.9783
 Frc consts  --      0.0611                 0.1476                 0.0878
 IR Inten    --      1.2983                 4.5573                 1.2141

                     19                     20                     21
                      A                      A                      A
 Frequencies --    292.6975               330.6631               333.4114
 Red. masses --      2.8842                 3.4766                 5.8148
 Frc consts  --      0.1456                 0.2240                 0.3808
 IR Inten    --     10.1302                 0.8653                 0.9069

                     22                     23                     24
                      A                      A                      A
 Frequencies --    368.5601               382.5230               411.8441
 Red. masses --      3.2997                 2.1771                 3.0271
 Frc consts  --      0.2641                 0.1877                 0.3025
 IR Inten    --      2.2880                 2.2774                 2.0054

                     25                     26                     27
                      A                      A                      A
 Frequencies --    450.7167               453.5860               497.4049
 Red. masses --      3.1258                 3.5876                 1.3744
 Frc consts  --      0.3741                 0.4349                 0.2003
 IR Inten    --      8.7306                 6.3571                80.3396

                     28                     29                     30
                      A                      A                      A
 Frequencies --    550.4204               567.7990               597.4691
 Red. masses --      3.3310                 5.6716                 4.3136
 Frc consts  --      0.5946                 1.0773                 0.9072
 IR Inten    --     18.3720                 6.8006                 4.8223

                     31                     32                     33
                      A                      A                      A
 Frequencies --    653.6515               674.0487               700.5865
 Red. masses --      6.2916                 3.4487                 2.4512
 Frc consts  --      1.5838                 0.9232                 0.7089
 IR Inten    --      3.8506                 9.0889                 0.3548

                     34                     35                     36
                      A                      A                      A
 Frequencies --    722.5853               735.5516               767.7866
 Red. masses --      6.7513                 4.3208                 7.5357
 Frc consts  --      2.0769                 1.3773                 2.6173
 IR Inten    --      9.0863                 7.1083                 1.4376

                     37                     38                     39
                      A                      A                      A
 Frequencies --    777.3230               797.4735               810.1378
 Red. masses --      1.6216                 9.0885                 1.5442
 Frc consts  --      0.5773                 3.4054                 0.5971
 IR Inten    --      2.3208                29.7303                 4.2264

                     40                     41                     42
                      A                      A                      A
 Frequencies --    842.1235               847.5220               858.8554
 Red. masses --      2.5854                 2.0568                 2.4211
 Frc consts  --      1.0803                 0.8705                 1.0522
 IR Inten    --     10.2456                12.5149                 6.0333

                     43                     44                     45
                      A                      A                      A
 Frequencies --    886.6672               923.5047               935.1178
 Red. masses --      3.0384                 2.3391                 2.1169
 Frc consts  --      1.4074                 1.1754                 1.0906
 IR Inten    --      3.8861                 4.6531                 0.4606

                     46                     47                     48
                      A                      A                      A
 Frequencies --    971.3641              1002.3036              1005.2430
 Red. masses --      1.9090                 1.7526                 2.7142
 Frc consts  --      1.0613                 1.0373                 1.6160
 IR Inten    --      1.6998                 7.8861                 3.5444

                     49                     50                     51
                      A                      A                      A
 Frequencies --   1035.8223              1040.7526              1051.0494
 Red. masses --      2.1493                 1.8726                 1.6990
 Frc consts  --      1.3587                 1.1950                 1.1058
 IR Inten    --     10.4985                 1.6786                 8.6588

                     52                     53                     54
                      A                      A                      A
 Frequencies --   1069.7731              1073.7816              1095.6179
 Red. masses --      1.5908                 1.9557                 2.6014
 Frc consts  --      1.0726                 1.3285                 1.8398
 IR Inten    --      4.3451                 0.5747                12.7387

                     55                     56                     57
                      A                      A                      A
 Frequencies --   1121.1008              1133.1477              1143.5694
 Red. masses --      2.6355                 2.0615                 1.5622
 Frc consts  --      1.9517                 1.5596                 1.2037
 IR Inten    --     33.2473                14.8577                 6.1088

                     58                     59                     60
                      A                      A                      A
 Frequencies --   1160.9115              1177.6814              1189.3022
 Red. masses --      1.8920                 2.2336                 3.2936
 Frc consts  --      1.5023                 1.8252                 2.7448
 IR Inten    --      6.7158                 5.2776                32.4935

                     61                     62                     63
                      A                      A                      A
 Frequencies --   1209.7843              1241.6873              1253.3006
 Red. masses --      2.5283                 1.4053                 1.8404
 Frc consts  --      2.1802                 1.2765                 1.7032
 IR Inten    --     34.7905                 5.1275                 2.9570

                     64                     65                     66
                      A                      A                      A
 Frequencies --   1274.7172              1293.1728              1320.8348
 Red. masses --      1.4036                 1.2902                 1.3988
 Frc consts  --      1.3438                 1.2712                 1.4378
 IR Inten    --      7.3840                 3.0543                 3.4893

                     67                     68                     69
                      A                      A                      A
 Frequencies --   1334.8718              1340.1357              1349.1200
 Red. masses --      3.3075                 1.3075                 1.3855
 Frc consts  --      3.4724                 1.3836                 1.4858
 IR Inten    --    194.3969                 4.4116                12.0518

                     70                     71                     72
                      A                      A                      A
 Frequencies --   1366.6764              1373.9446              1385.2023
 Red. masses --      1.4094                 1.6808                 3.2869
 Frc consts  --      1.5510                 1.8694                 3.7159
 IR Inten    --     50.4952                69.2531               308.2013

                     73                     74                     75
                      A                      A                      A
 Frequencies --   1396.3650              1405.0713              1417.6396
 Red. masses --      1.6924                 1.9025                 1.8433
 Frc consts  --      1.9443                 2.2129                 2.1826
 IR Inten    --     57.0869                65.3442                28.7672

                     76                     77                     78
                      A                      A                      A
 Frequencies --   1419.2408              1433.7277              1436.3785
 Red. masses --      1.5269                 1.3006                 1.3046
 Frc consts  --      1.8120                 1.5752                 1.5859
 IR Inten    --      4.9422                 5.7994                17.1139

                     79                     80                     81
                      A                      A                      A
 Frequencies --   1444.0636              1464.1823              1487.5399
 Red. masses --      1.2458                 2.0979                 1.7942
 Frc consts  --      1.5307                 2.6498                 2.3391
 IR Inten    --      2.7129                12.3474                35.4587

                     82                     83                     84
                      A                      A                      A
 Frequencies --   1498.1968              1510.1693              1516.8652
 Red. masses --      1.2354                 1.0578                 1.0647
 Frc consts  --      1.6337                 1.4213                 1.4434
 IR Inten    --    153.4442                 6.6608                 0.5594

                     85                     86                     87
                      A                      A                      A
 Frequencies --   1518.4643              1521.1180              1524.6248
 Red. masses --      1.3971                 1.0590                 1.2504
 Frc consts  --      1.8980                 1.4437                 1.7125
 IR Inten    --    241.6289                10.4467                95.0718

                     88                     89                     90
                      A                      A                      A
 Frequencies --   1534.4481              1535.8703              1537.5936
 Red. masses --      1.0643                 1.0911                 1.0920
 Frc consts  --      1.4764                 1.5165                 1.5211
 IR Inten    --      4.1450                10.6258                10.7388

                     91                     92                     93
                      A                      A                      A
 Frequencies --   1542.9466              1556.9896              1570.6583
 Red. masses --      1.1211                 1.1706                 5.5345
 Frc consts  --      1.5726                 1.6719                 8.0444
 IR Inten    --      4.5781                46.5208               120.1160

                     94                     95                     96
                      A                      A                      A
 Frequencies --   1592.4679              1619.2984              1634.4044
 Red. masses --      5.7713                 7.9965                 4.4878
 Frc consts  --      8.6232                12.3539                 7.0632
 IR Inten    --    215.0788               530.6935               987.0279

                     97                     98                     99
                      A                      A                      A
 Frequencies --   3035.9915              3037.9938              3047.5032
 Red. masses --      1.0657                 1.0688                 1.0372
 Frc consts  --      5.7874                 5.8119                 5.6753
 IR Inten    --     33.2746                27.8761                28.3997

                    100                    101                    102
                      A                      A                      A
 Frequencies --   3051.0196              3052.6664              3058.1887
 Red. masses --      1.0722                 1.0360                 1.0853
 Frc consts  --      5.8803                 5.6881                 5.9803
 IR Inten    --     11.6305                29.3906                 9.3360

                    103                    104                    105
                      A                      A                      A
 Frequencies --   3070.4102              3075.7526              3077.2942
 Red. masses --      1.0878                 1.0662                 1.0357
 Frc consts  --      6.0421                 5.9430                 5.7785
 IR Inten    --     20.1999                51.3613                 5.5795

                    106                    107                    108
                      A                      A                      A
 Frequencies --   3079.6189              3112.2854              3115.0422
 Red. masses --      1.0783                 1.1020                 1.1025
 Frc consts  --      6.0251                 6.2894                 6.3033
 IR Inten    --     71.0233                40.9768                21.7508

                    109                    110                    111
                      A                      A                      A
 Frequencies --   3118.1568              3125.5122              3134.7080
 Red. masses --      1.1015                 1.0948                 1.0979
 Frc consts  --      6.3099                 6.3014                 6.3564
 IR Inten    --     34.0538                28.1668                20.1809

                    112                    113                    114
                      A                      A                      A
 Frequencies --   3134.8355              3139.1747              3147.3349
 Red. masses --      1.0992                 1.0997                 1.1039
 Frc consts  --      6.3645                 6.3849                 6.4427
 IR Inten    --     16.6078                 5.2690                27.7012

                    115                    116                    117
                      A                      A                      A
 Frequencies --   3171.1643              3176.5685              3630.7763
 Red. masses --      1.1049                 1.0912                 1.0765
 Frc consts  --      6.5463                 6.4875                 8.3612
 IR Inten    --     11.7069                 6.7617                44.4065

 - Thermochemistry -
 -------------------
 Temperature   298.150 Kelvin.  Pressure   1.00000 Atm.
 Atom     1 has atomic number  6 and mass  12.00000

 Molecular mass:   279.16953 amu.
 Principal axes and moments of inertia in atomic units:
                           1         2         3
     Eigenvalues --  4069.624387622.88617**********
           X            0.99992  -0.00949  -0.00795
           Y            0.00945   0.99995  -0.00449
           Z            0.00800   0.00441   0.99996
 This molecule is an asymmetric top.
 Rotational symmetry number  1.
 Warning -- assumption of classical behavior for rotation
           may cause significant error
 Rotational temperatures (Kelvin)      0.02128     0.01136     0.00847
 Rotational constants (GHZ):           0.44347     0.23675     0.17655
 Zero-point vibrational energy     918516.2 (Joules/Mol)
                                  219.53064 (Kcal/Mol)
 Warning -- explicit consideration of  30 degrees of freedom as
           vibrations may cause significant error
 Vibrational temperatures:     32.76    52.66    65.27    70.66   102.35
          (Kelvin)            120.08   136.08   204.11   221.98   227.94
                              258.32   278.21   299.83   321.33   334.97
                              356.05   362.10   394.94   421.13   475.75
                              479.70   530.28   550.37   592.55   648.48
                              652.61   715.65   791.93   816.94   859.62
                              940.46   969.81  1007.99  1039.64  1058.29
                             1104.67  1118.39  1147.39  1165.61  1211.63
                             1219.40  1235.70  1275.72  1328.72  1345.43
                             1397.58  1442.09  1446.32  1490.32  1497.41
                             1512.23  1539.16  1544.93  1576.35  1613.01
                             1630.35  1645.34  1670.29  1694.42  1711.14
                             1740.61  1786.51  1803.22  1834.03  1860.59
                             1900.39  1920.58  1928.16  1941.08  1966.34
                             1976.80  1993.00  2009.06  2021.58  2039.67
                             2041.97  2062.81  2066.63  2077.69  2106.63
                             2140.24  2155.57  2172.80  2182.43  2184.73
                             2188.55  2193.60  2207.73  2209.77  2212.25
                             2219.96  2240.16  2259.83  2291.21  2329.81
                             2351.54  4368.11  4371.00  4384.68  4389.74
                             4392.11  4400.05  4417.64  4425.32  4427.54
                             4430.88  4477.88  4481.85  4486.33  4496.91
                             4510.15  4510.33  4516.57  4528.31  4562.60
                             4570.37  5223.88

 Zero-point correction=                           0.349844 (Hartree/Particle)
 Thermal correction to Energy=                    0.369864
 Thermal correction to Enthalpy=                  0.370808
 Thermal correction to Gibbs Free Energy=         0.299941
 Sum of electronic and zero-point Energies=           -931.898506
 Sum of electronic and thermal Energies=              -931.878487
 Sum of electronic and thermal Enthalpies=            -931.877543
 Sum of electronic and thermal Free Energies=         -931.948409

                     E (Thermal)             CV                S
                      KCal/Mol        Cal/Mol-Kelvin    Cal/Mol-Kelvin
 Total                  232.093             74.540            149.152
 Electronic               0.000              0.000              0.000
 Translational            0.889              2.981             42.778
 Rotational               0.889              2.981             34.116
 Vibrational            230.315             68.579             72.257
 Vibration     1          0.593              1.985              6.376
 Vibration     2          0.594              1.982              5.435
 Vibration     3          0.595              1.979              5.010
 Vibration     4          0.595              1.978              4.853
 Vibration     5          0.598              1.968              4.122
 Vibration     6          0.600              1.961              3.808
 Vibration     7          0.603              1.953              3.563
 Vibration     8          0.615              1.911              2.779
 Vibration     9          0.620              1.898              2.619
 Vibration    10          0.621              1.893              2.568
 Vibration    11          0.629              1.867              2.333
 Vibration    12          0.635              1.849              2.195
 Vibration    13          0.642              1.828              2.058
 Vibration    14          0.649              1.806              1.932
 Vibration    15          0.654              1.791              1.857
 Vibration    16          0.661              1.767              1.749
 Vibration    17          0.664              1.760              1.719
 Vibration    18          0.677              1.720              1.568
 Vibration    19          0.688              1.687              1.458
 Vibration    20          0.713              1.614              1.257
 Vibration    21          0.715              1.609              1.244
 Vibration    22          0.741              1.537              1.086
 Vibration    23          0.752              1.507              1.029
 Vibration    24          0.776              1.445              0.920
 Vibration    25          0.809              1.359              0.794
 Vibration    26          0.812              1.353              0.785
 Vibration    27          0.853              1.256              0.665
 Vibration    28          0.906              1.139              0.543
 Vibration    29          0.924              1.101              0.508
 Vibration    30          0.955              1.037              0.454

 Optimization completed.
    -- Stationary point found.
 Normal termination of Gaussian 16 at Sun Dec 13 22:02:58 2020.

 ----------------------------------------------------------------------
 # B3LYP/6-311++G(d,p) empiricaldispersion=gd3bj scf=xqc pop=npa geom=c
 heck
 ----------------------------------------------------------------------

 ----------------------------------------
 CID_108149216_JID_10169_Energie_neutraal
 ----------------------------------------
 Structure from the checkpoint file:  "JID_10169.chk"
 Charge =  0 Multiplicity = 1

 SCF Done:  E(RB3LYP) =  -932.506098828     A.U. after   16 cycles
 Normal termination of Gaussian 16 at Sun Dec 13 22:11:40 2020.

 ----------------------------------------------------------------------
 # B3LYP/6-311++G(d,p) empiricaldispersion=gd3bj scf=xqc pop=npa geom=c
 heck
 ----------------------------------------------------------------------

 --------------------------------------
 CID_108149216_JID_10169_Energie_kation
 --------------------------------------
 Structure from the checkpoint file:  "JID_10169.chk"
 Charge =  1 Multiplicity = 2

 SCF Done:  E(UB3LYP) =  -932.218060284     A.U. after   30 cycles
 Normal termination of Gaussian 16 at Sun Dec 13 22:33:00 2020.
 Gaussian 16:  ES64L-G16RevA.03 25-Dec-2016

 ----------------------------------------------------------------------
 # B3LYP/6-311++G(d,p) empiricaldispersion=gd3bj scf=xqc pop=npa geom=c
 heck
 ----------------------------------------------------------------------

 -------------------------------------
 CID_108149216_JID_10169_Energie_anion
 -------------------------------------
 Structure from the checkpoint file:  "JID_10169.chk"
 Charge = -1 Multiplicity = 2

                         Standard orientation:
 ---------------------------------------------------------------------
 Center     Atomic      Atomic             Coordinates (Angstroms)
 Number     Number       Type             X           Y           Z
 ---------------------------------------------------------------------
      1          6           0       -4.429854    1.919849    1.746682
      2          6           0       -3.121512    1.810407    0.960446
      3          6           0       -3.301991    1.312277   -0.483109
      4          6           0       -3.738981   -0.162145   -0.572602
      5          6           0       -2.431800   -0.967949   -0.454005
      6          7           0       -1.375443   -0.011806   -0.824592
      7          6           0       -1.964774    1.274551   -1.233327
      8          6           0       -0.075612   -0.107565   -0.454056
      9          7           0        0.653029    1.019796   -0.499477
     10          6           0        1.881562    0.992166    0.030010
     11          7           0        2.474013   -0.052516    0.650939
     12          6           0        1.802341   -1.203686    0.651318
     13          6           0        0.530030   -1.304623    0.054530
     14          7           0       -0.028630   -2.609937   -0.189269
     15          8           0       -0.514497   -2.824972   -1.308818
     16          8           0        0.038285   -3.465791    0.701898
     17          6           0        2.518761   -2.368456    1.280530
     18          7           0        2.588624    2.149646   -0.037037
     19          6           0        3.995141    2.263647    0.322655
     20          6           0        4.941726    1.714705   -0.747339
     21          1           0       -5.136760    2.590111    1.242593
     22          1           0       -4.251223    2.317557    2.751432
     23          1           0       -4.921085    0.947385    1.862044
     24          1           0       -2.637678    2.795317    0.927802
     25          1           0       -2.422782    1.148781    1.490203
     26          1           0       -4.014495    1.966393   -1.000041
     27          1           0       -4.203398   -0.352473   -1.546199
     28          1           0       -4.461755   -0.451589    0.194491
     29          1           0       -2.252426   -1.322401    0.568803
     30          1           0       -2.425212   -1.840732   -1.108897
     31          1           0       -2.116777    1.278602   -2.321125
     32          1           0       -1.286834    2.085838   -0.975426
     33          1           0        3.538161   -2.054924    1.510749
     34          1           0        2.012397   -2.684604    2.196732
     35          1           0        2.537378   -3.241345    0.621576
     36          1           0        2.164464    2.868283   -0.606322
     37          1           0        4.195198    3.323729    0.511471
     38          1           0        4.139794    1.724526    1.261335
     39          1           0        4.806448    2.237086   -1.701194
     40          1           0        5.985404    1.835959   -0.435272
     41          1           0        4.749505    0.649263   -0.903733
 ---------------------------------------------------------------------

 SCF Done:  E(UB3LYP) =  -932.522801640     A.U. after   33 cycles
 SCF Done:  E(UB3LYP) =  -932.522801640     a.u. after    1 cycles

 The electronic state is 2-A.
 Alpha  occ. eigenvalues --  -18.93039 -18.92978 -14.30049 -14.21624 -14.21108
 Alpha  occ. eigenvalues --  -14.16827 -14.16288 -10.13165 -10.12642 -10.10511
 Alpha  occ. eigenvalues --  -10.09195 -10.08276 -10.08154 -10.08019 -10.07969
 Alpha  occ. eigenvalues --  -10.07800 -10.07155 -10.06671 -10.06101 -10.03057
 Alpha  occ. eigenvalues --   -1.00984  -0.87938  -0.84763  -0.83529  -0.79355
 Alpha  occ. eigenvalues --   -0.75586  -0.71431  -0.67472  -0.64883  -0.64534
 Alpha  occ. eigenvalues --   -0.62668  -0.59632  -0.56329  -0.54364  -0.52550
 Alpha  occ. eigenvalues --   -0.50837  -0.47529  -0.46386  -0.45257  -0.41924
 Alpha  occ. eigenvalues --   -0.41439  -0.39200  -0.38507  -0.36219  -0.35518
 Alpha  occ. eigenvalues --   -0.35099  -0.34905  -0.33924  -0.33361  -0.32476
 Alpha  occ. eigenvalues --   -0.32013  -0.30336  -0.30052  -0.29656  -0.29291
 Alpha  occ. eigenvalues --   -0.28575  -0.28062  -0.27716  -0.26805  -0.26591
 Alpha  occ. eigenvalues --   -0.26145  -0.25387  -0.25240  -0.23906  -0.23241
 Alpha  occ. eigenvalues --   -0.22570  -0.20507  -0.19270  -0.17290  -0.12560
 Alpha  occ. eigenvalues --   -0.12365  -0.11432  -0.11016  -0.10096  -0.07443
 Alpha  occ. eigenvalues --    0.04325
 Alpha virt. eigenvalues --    0.05984   0.06627   0.07713   0.08314   0.09066
 Alpha virt. eigenvalues --    0.09211   0.09453   0.10341   0.10800   0.10995
 Alpha virt. eigenvalues --    0.11271   0.11774   0.12450   0.12631   0.13237

  Beta  occ. eigenvalues --  -18.92515 -18.92445 -14.29180 -14.21590 -14.21065
  Beta  occ. eigenvalues --  -14.16872 -14.16365 -10.12973 -10.12571 -10.10512
  Beta  occ. eigenvalues --  -10.09195 -10.08276 -10.08015 -10.07956 -10.07927
  Beta  occ. eigenvalues --  -10.07796 -10.07154 -10.06661 -10.06182 -10.03070
  Beta  occ. eigenvalues --   -0.99692  -0.87808  -0.84634  -0.82554  -0.79264
  Beta  occ. eigenvalues --   -0.75540  -0.71400  -0.67315  -0.64860  -0.64332
  Beta  occ. eigenvalues --   -0.62622  -0.59409  -0.56063  -0.54336  -0.52520
  Beta  occ. eigenvalues --   -0.50516  -0.47275  -0.46188  -0.44857  -0.41824
  Beta  occ. eigenvalues --   -0.41288  -0.39130  -0.38299  -0.36138  -0.35352
  Beta  occ. eigenvalues --   -0.35004  -0.34296  -0.33362  -0.32823  -0.32109
  Beta  occ. eigenvalues --   -0.31030  -0.29962  -0.29692  -0.29361  -0.28648
  Beta  occ. eigenvalues --   -0.28277  -0.27859  -0.27657  -0.26719  -0.26421
  Beta  occ. eigenvalues --   -0.25897  -0.25319  -0.25125  -0.23868  -0.23140
  Beta  occ. eigenvalues --   -0.22545  -0.20224  -0.19246  -0.16927  -0.12454
  Beta  occ. eigenvalues --   -0.11310  -0.10631  -0.09866  -0.08723  -0.06907
  Beta virt. eigenvalues --    0.05921   0.06520   0.07617   0.08193   0.08925
  Beta virt. eigenvalues --    0.09126   0.09365   0.10298   0.10675   0.11035
  Beta virt. eigenvalues --    0.11327   0.11632   0.12022   0.12385   0.12595

 Mulliken charges and spin densities:
               1          2
     1  C   -0.494499  -0.141969
     2  C   -0.267761  -0.018579
     3  C    0.347512   0.113905
     4  C   -0.798206  -0.042006
     5  C   -0.047214  -0.097747
     6  N    0.299751   0.019444
     7  C   -0.498892  -0.040247
     8  C   -0.253259   0.104729
     9  N   -0.213318  -0.014418
    10  C   -0.102852   0.078893
    11  N   -0.083387  -0.045078
    12  C    0.207949   0.129113
    13  C   -0.220508  -0.162036
    14  N   -0.314349   0.284792
    15  O   -0.141000   0.199168
    16  O   -0.153685   0.208745
    17  C   -0.518391   0.018138
    18  N   -0.130157   0.028175
    19  C   -0.282092   0.047697
    20  C   -0.242023  -0.123339
    21  H    0.090009   0.036327
    22  H    0.090216   0.038590
    23  H    0.100907   0.031634
    24  H    0.094862   0.038142
    25  H    0.177033  -0.001053
    26  H    0.146192   0.029923
    27  H    0.126865   0.021711
    28  H    0.117364   0.003101
    29  H    0.111337   0.082092
    30  H    0.217054   0.018555
    31  H    0.150463  -0.002571
    32  H    0.168577   0.014608
    33  H    0.086806   0.016565
    34  H    0.186387   0.006387
    35  H    0.173772   0.012371
    36  H    0.273097  -0.001749
    37  H    0.117008   0.004761
    38  H    0.170154   0.015658
    39  H    0.079239   0.030271
    40  H    0.055407   0.048873
    41  H    0.173632   0.008426
 Sum of Mulliken charges =  -1.00000   1.00000

 Dipole moment (field-independent basis, Debye):
    X=             -1.7729    Y=              9.6980    Z=              0.1914  Tot=              9.8606
 Quadrupole moment (field-independent basis, Debye-Ang):
   XX=           -146.2124   YY=           -168.1183   ZZ=           -136.3663
   XY=             -1.4983   XZ=             -0.5514   YZ=             -4.0902

 Summary of Natural Population Analysis:

                                       Natural Population
                Natural  -----------------------------------------------
    Atom  No    Charge         Core      Valence    Rydberg      Total
 -----------------------------------------------------------------------
      C    1   -0.28477      0.99967     2.28067    0.00443     3.28477
      C    2   -0.19214      0.99962     2.18418    0.00833     3.19214
      C    3   -0.11523      0.99959     2.10518    0.01046     3.11523
      C    4   -0.19495      0.99962     2.18785    0.00748     3.19495
      C    5   -0.08906      0.99963     2.08043    0.00899     3.08906
      N    6   -0.23552      0.99963     2.72553    0.01036     3.73552
      C    7   -0.08164      0.99961     2.07242    0.00961     3.08164
      C    8    0.24462      0.99950     1.74049    0.01539     2.75538
      N    9   -0.31886      0.99964     2.81034    0.00889     3.81886
      C   10    0.33380      0.99961     1.64773    0.01887     2.66620
      N   11   -0.32163      0.99965     2.81144    0.01054     3.82163
      C   12    0.17531      0.99955     1.81308    0.01206     2.82469
      C   13   -0.04193      0.99935     2.03033    0.01225     3.04193
      N   14    0.32821      0.99970     2.14698    0.02511     3.17179
      O   15   -0.20493      0.99990     3.19667    0.00836     4.20493
      O   16   -0.19976      0.99990     3.19155    0.00831     4.19976
      C   17   -0.30206      0.99963     2.29757    0.00486     3.30206
      N   18   -0.30835      0.99966     2.79719    0.01150     3.80835
      C   19   -0.08809      0.99965     2.07873    0.00971     3.08809
      C   20   -0.29187      0.99967     2.28788    0.00432     3.29187
      H   21    0.09192      0.00000     0.40694    0.00114     0.40808
      H   22    0.09717      0.00000     0.40178    0.00105     0.40283
      H   23    0.09583      0.00000     0.40300    0.00117     0.40417
      H   24    0.09511      0.00000     0.40354    0.00136     0.40489
      H   25    0.10250      0.00000     0.39610    0.00140     0.39750
      H   26    0.09433      0.00000     0.40452    0.00115     0.40567
      H   27    0.09626      0.00000     0.40254    0.00120     0.40374
      H   28    0.09921      0.00000     0.39955    0.00124     0.40079
      H   29    0.09849      0.00000     0.39949    0.00202     0.40151
      H   30    0.11940      0.00000     0.37849    0.00211     0.38060
      H   31    0.08900      0.00000     0.41003    0.00097     0.41100
      H   32    0.11463      0.00000     0.38375    0.00163     0.38537
      H   33    0.09605      0.00000     0.40284    0.00111     0.40395
      H   34    0.11361      0.00000     0.38548    0.00091     0.38639
      H   35    0.11348      0.00000     0.38560    0.00093     0.38652
      H   36    0.18909      0.00000     0.30953    0.00138     0.31091
      H   37    0.08541      0.00000     0.41362    0.00097     0.41459
      H   38    0.10593      0.00000     0.39269    0.00137     0.39407
      H   39    0.09139      0.00000     0.40721    0.00141     0.40861
      H   40    0.09126      0.00000     0.40704    0.00170     0.40874
      H   41    0.10878      0.00000     0.38995    0.00126     0.39122
 =======================================================================
   * Total *    0.00000     19.99279    54.76991    0.23730    75.00000

 Normal termination of Gaussian 16 at Sun Dec 13 22:56:21 2020.
