 Gaussian 16, Revision A.03,

 -----------------------------------------------------------
 # opt freq B3LYP/6-31G(d) empiricaldispersion=gd3bj scf=xqc
 -----------------------------------------------------------

 ------------------------------
 CID_12408162_JID_2084_neutraal
 ------------------------------
 Symbolic Z-matrix:
 Charge =  0 Multiplicity = 1

 SCF Done:  E(RB3LYP) =  -588.123371494     A.U. after   15 cycles
 SCF Done:  E(RB3LYP) =  -588.127654005     A.U. after   12 cycles
 SCF Done:  E(RB3LYP) =  -588.128116200     A.U. after   12 cycles
 SCF Done:  E(RB3LYP) =  -588.128310660     A.U. after   11 cycles
 SCF Done:  E(RB3LYP) =  -588.128344572     A.U. after   10 cycles
 SCF Done:  E(RB3LYP) =  -588.128356499     A.U. after   10 cycles
 SCF Done:  E(RB3LYP) =  -588.128359407     A.U. after    8 cycles
 SCF Done:  E(RB3LYP) =  -588.128360482     A.U. after    8 cycles
 SCF Done:  E(RB3LYP) =  -588.128361818     A.U. after   10 cycles
 SCF Done:  E(RB3LYP) =  -588.128363502     A.U. after    9 cycles
 SCF Done:  E(RB3LYP) =  -588.128366228     A.U. after   10 cycles
 SCF Done:  E(RB3LYP) =  -588.128366834     A.U. after    8 cycles
 SCF Done:  E(RB3LYP) =  -588.128366941     A.U. after    7 cycles
 Optimization completed.
    -- Stationary point found.
 Normal termination of Gaussian 16 at Wed Dec  9 16:46:33 2020.

 --------------------------------------------------------------------
 #N Geom=AllCheck Guess=TCheck SCRF=Check GenChk RB3LYP/6-31G(d) Freq
 --------------------------------------------------------------------

 Structure from the checkpoint file:  "JID_2084.chk"
 ------------------------------
 CID_12408162_JID_2084_neutraal
 ------------------------------
 Charge =  0 Multiplicity = 1

 SCF Done:  E(RB3LYP) =  -588.128366941     A.U. after    1 cycles

  Exact polarizability: 126.314   0.427 106.500   0.014   0.001  58.569
 Approx polarizability: 188.163   0.360 163.804   0.034  -0.031  81.318

                      1                      2                      3
                      A                      A                      A
 Frequencies --     19.0367                35.7789                93.8344
 Red. masses --      4.5181                 5.3982                 2.3141
 Frc consts  --      0.0010                 0.0041                 0.0120
 IR Inten    --      0.1633                43.3106                 6.2234

                      4                      5                      6
                      A                      A                      A
 Frequencies --    125.0039               148.4412               186.5911
 Red. masses --      4.8995                 1.7654                 2.7372
 Frc consts  --      0.0451                 0.0229                 0.0561
 IR Inten    --      3.7781                87.1765               106.8885

                      7                      8                      9
                      A                      A                      A
 Frequencies --    200.1818               233.6857               251.7574
 Red. masses --      3.9827                 1.1043                 1.0546
 Frc consts  --      0.0940                 0.0355                 0.0394
 IR Inten    --      8.5518                 0.4459                 0.8961

                     10                     11                     12
                      A                      A                      A
 Frequencies --    291.8023               310.3257               382.9572
 Red. masses --      3.8737                 5.2994                 2.8621
 Frc consts  --      0.1943                 0.3007                 0.2473
 IR Inten    --     20.3371                 0.9524                 1.8246

                     13                     14                     15
                      A                      A                      A
 Frequencies --    403.1815               420.9841               501.7040
 Red. masses --      3.6370                 3.8798                 3.1731
 Frc consts  --      0.3483                 0.4051                 0.4706
 IR Inten    --      4.2304                 8.8474                 0.1502

                     16                     17                     18
                      A                      A                      A
 Frequencies --    573.5275               583.5152               608.6867
 Red. masses --      2.0639                 1.2024                 4.3663
 Frc consts  --      0.4000                 0.2412                 0.9531
 IR Inten    --     72.5903                21.5564                14.5501

                     19                     20                     21
                      A                      A                      A
 Frequencies --    663.1979               668.4824               721.3741
 Red. masses --      3.6036                 1.7606                 3.8917
 Frc consts  --      0.9338                 0.4635                 1.1932
 IR Inten    --      5.4981                18.7890                 1.4900

                     22                     23                     24
                      A                      A                      A
 Frequencies --    741.6403               758.3169               799.6601
 Red. masses --      5.9958                 5.6609                 1.4326
 Frc consts  --      1.9431                 1.9180                 0.5397
 IR Inten    --      4.8545                10.9871                13.6705

                     25                     26                     27
                      A                      A                      A
 Frequencies --    838.9535               948.0101               954.4236
 Red. masses --      3.0157                 1.3159                 3.9048
 Frc consts  --      1.2506                 0.6968                 2.0957
 IR Inten    --      9.5139                 1.0167                28.7271

                     28                     29                     30
                      A                      A                      A
 Frequencies --    955.7870               980.4144              1099.3484
 Red. masses --      1.2814                 4.8432                 1.5402
 Frc consts  --      0.6897                 2.7428                 1.0967
 IR Inten    --      1.2371                14.2121                25.2730

                     31                     32                     33
                      A                      A                      A
 Frequencies --   1116.2822              1168.9796              1169.8033
 Red. masses --      1.9217                 2.1441                 2.1312
 Frc consts  --      1.4108                 1.7262                 1.7183
 IR Inten    --      4.2853                 9.5541                41.8539

                     34                     35                     36
                      A                      A                      A
 Frequencies --   1185.4178              1221.1711              1228.5867
 Red. masses --      2.9144                 2.0233                 1.8302
 Frc consts  --      2.4130                 1.7777                 1.6276
 IR Inten    --    233.8208                15.9409                31.0461

                     37                     38                     39
                      A                      A                      A
 Frequencies --   1327.3454              1340.5641              1387.1499
 Red. masses --      3.5502                 4.4767                 1.3069
 Frc consts  --      3.6853                 4.7400                 1.4816
 IR Inten    --    140.5327                25.6290                 2.9622

                     40                     41                     42
                      A                      A                      A
 Frequencies --   1425.6098              1427.5410              1441.4480
 Red. masses --      1.4274                 1.3417                 3.2655
 Frc consts  --      1.7093                 1.6110                 3.9976
 IR Inten    --      2.6368                20.5894               210.4166

                     43                     44                     45
                      A                      A                      A
 Frequencies --   1443.0802              1500.3611              1509.0287
 Red. masses --      1.2522                 4.0187                 1.0458
 Frc consts  --      1.5364                 5.3300                 1.4031
 IR Inten    --     24.9320                12.6264                 0.0113

                     46                     47                     48
                      A                      A                      A
 Frequencies --   1520.3347              1530.5477              1543.1044
 Red. masses --      1.1482                 1.0492                 1.7037
 Frc consts  --      1.5637                 1.4481                 2.3902
 IR Inten    --     30.3359                 0.0033                30.7253

                     49                     50                     51
                      A                      A                      A
 Frequencies --   1555.4824              1614.1954              1648.1232
 Red. masses --      1.5255                 5.2465                 1.4358
 Frc consts  --      2.1746                 8.0544                 2.2979
 IR Inten    --     36.4896               212.7377               254.0486

                     52                     53                     54
                      A                      A                      A
 Frequencies --   1764.1793              3059.6986              3063.4787
 Red. masses --      8.9577                 1.0380                 1.0417
 Frc consts  --     16.4261                 5.7254                 5.7599
 IR Inten    --    430.9165                22.0780                13.6050

                     55                     56                     57
                      A                      A                      A
 Frequencies --   3078.7152              3124.2146              3127.0878
 Red. masses --      1.0828                 1.1016                 1.1020
 Frc consts  --      6.0467                 6.3352                 6.3490
 IR Inten    --     40.0681                15.2302                41.4668

                     58                     59                     60
                      A                      A                      A
 Frequencies --   3166.4149              3170.5964              3279.2588
 Red. masses --      1.1009                 1.1002                 1.0973
 Frc consts  --      6.5031                 6.5162                 6.9525
 IR Inten    --      1.4347                17.6596                 2.8922

                     61                     62                     63
                      A                      A                      A
 Frequencies --   3583.1551              3637.2761              3722.4053
 Red. masses --      1.0456                 1.0811                 1.1055
 Frc consts  --      7.9097                 8.4270                 9.0252
 IR Inten    --     42.2746               103.6309                76.0697

 - Thermochemistry -
 -------------------
 Temperature   298.150 Kelvin.  Pressure   1.00000 Atm.
 Atom     1 has atomic number  6 and mass  12.00000

 Molecular mass:   169.08513 amu.
 Principal axes and moments of inertia in atomic units:
                           1         2         3
     Eigenvalues --  1124.507542768.297543495.34511
           X            0.99996  -0.00898   0.00002
           Y            0.00898   0.99996   0.00010
           Z           -0.00002  -0.00010   1.00000
 This molecule is an asymmetric top.
 Rotational symmetry number  1.
 Warning -- assumption of classical behavior for rotation
           may cause significant error
 Rotational temperatures (Kelvin)      0.07702     0.03129     0.02478
 Rotational constants (GHZ):           1.60492     0.65193     0.51633
 Zero-point vibrational energy     493945.5 (Joules/Mol)
                                  118.05581 (Kcal/Mol)
 Warning -- explicit consideration of  18 degrees of freedom as
           vibrations may cause significant error
 Vibrational temperatures:     27.39    51.48   135.01   179.85   213.57
          (Kelvin)            268.46   288.02   336.22   362.22   419.84
                              446.49   550.99   580.09   605.70   721.84
                              825.18   839.55   875.76   954.19   961.80
                             1037.90  1067.06  1091.05  1150.53  1207.07
                             1363.98  1373.20  1375.16  1410.60  1581.72
                             1606.08  1681.90  1683.09  1705.55  1756.99
                             1767.66  1909.75  1928.77  1995.80  2051.13
                             2053.91  2073.92  2076.27  2158.68  2171.16
                             2187.42  2202.12  2220.18  2237.99  2322.47
                             2371.28  2538.26  4402.22  4407.66  4429.58
                             4495.05  4499.18  4555.76  4561.78  4718.12
                             5155.36  5233.23  5355.71

 Zero-point correction=                           0.188134 (Hartree/Particle)
 Thermal correction to Energy=                    0.200519
 Thermal correction to Enthalpy=                  0.201463
 Thermal correction to Gibbs Free Energy=         0.148189
 Sum of electronic and zero-point Energies=           -587.940233
 Sum of electronic and thermal Energies=              -587.927848
 Sum of electronic and thermal Enthalpies=            -587.926904
 Sum of electronic and thermal Free Energies=         -587.980178

                     E (Thermal)             CV                S
                      KCal/Mol        Cal/Mol-Kelvin    Cal/Mol-Kelvin
 Total                  125.828             44.982            112.124
 Electronic               0.000              0.000              0.000
 Translational            0.889              2.981             41.284
 Rotational               0.889              2.981             30.765
 Vibrational            124.050             39.020             40.076
 Vibration     1          0.593              1.986              6.732
 Vibration     2          0.594              1.982              5.480
 Vibration     3          0.603              1.954              3.579
 Vibration     4          0.610              1.928              3.022
 Vibration     5          0.618              1.904              2.692
 Vibration     6          0.632              1.858              2.261
 Vibration     7          0.638              1.840              2.131
 Vibration     8          0.654              1.789              1.850
 Vibration     9          0.664              1.760              1.718
 Vibration    10          0.687              1.689              1.463
 Vibration    11          0.699              1.654              1.361
 Vibration    12          0.752              1.507              1.027
 Vibration    13          0.769              1.463              0.951
 Vibration    14          0.783              1.425              0.889
 Vibration    15          0.857              1.246              0.654
 Vibration    16          0.930              1.089              0.497
 Vibration    17          0.940              1.067              0.479
 Vibration    18          0.968              1.013              0.435

                           ! Non-Optimized Parameters !
 Normal termination of Gaussian 16 at Wed Dec  9 16:51:16 2020.

 ----------------------------------------------------------------------
 # B3LYP/6-311++G(d,p) empiricaldispersion=gd3bj scf=xqc pop=npa geom=c
 heck
 ----------------------------------------------------------------------

 --------------------------------------
 CID_12408162_JID_2084_Energie_neutraal
 --------------------------------------
 Structure from the checkpoint file:  "JID_2084.chk"
 Charge =  0 Multiplicity = 1

 SCF Done:  E(RB3LYP) =  -588.306706127     A.U. after   14 cycles
 Normal termination of Gaussian 16 at Wed Dec  9 16:52:57 2020.

 ----------------------------------------------------------------------
 # B3LYP/6-311++G(d,p) empiricaldispersion=gd3bj scf=xqc pop=npa geom=c
 heck
 ----------------------------------------------------------------------

 ------------------------------------
 CID_12408162_JID_2084_Energie_kation
 ------------------------------------
 Structure from the checkpoint file:  "JID_2084.chk"
 Charge =  1 Multiplicity = 2

 SCF Done:  E(UB3LYP) =  -588.008378936     A.U. after   22 cycles
 Normal termination of Gaussian 16 at Wed Dec  9 16:56:18 2020.
 Gaussian 16:  ES64L-G16RevA.03 25-Dec-2016

 ----------------------------------------------------------------------
 # B3LYP/6-311++G(d,p) empiricaldispersion=gd3bj scf=xqc pop=npa geom=c
 heck
 ----------------------------------------------------------------------

 -----------------------------------
 CID_12408162_JID_2084_Energie_anion
 -----------------------------------
 Structure from the checkpoint file:  "JID_2084.chk"
 Charge = -1 Multiplicity = 2

                         Standard orientation:
 ---------------------------------------------------------------------
 Center     Atomic      Atomic             Coordinates (Angstroms)
 Number     Number       Type             X           Y           Z
 ---------------------------------------------------------------------
      1          6           0        2.876558   -0.229168   -1.279292
      2          6           0        2.329491   -0.855413   -0.000305
      3          6           0        2.875852   -0.229972    1.279375
      4          8           0        0.873421   -0.889704   -0.000779
      5          6           0        0.153997    0.252662    0.000028
      6          6           0       -1.234395    0.269488    0.000697
      7          7           0       -1.555807    1.616633    0.000632
      8          6           0       -0.402799    2.317663    0.000323
      9          7           0        0.661806    1.519265   -0.000089
     10          6           0       -2.295308   -0.736733    0.000004
     11          8           0       -3.483729   -0.408345   -0.001855
     12          7           0       -1.863822   -2.030004    0.002751
     13          1           0        2.674859    0.843247   -1.305411
     14          1           0        2.422702   -0.698759   -2.157992
     15          1           0        3.959906   -0.387480   -1.326428
     16          1           0        2.565274   -1.924385   -0.000536
     17          1           0        2.674538    0.842500    1.305943
     18          1           0        2.421209   -0.699864    2.157504
     19          1           0        3.959103   -0.388751    1.327157
     20          1           0       -2.513354    1.942586    0.000620
     21          1           0       -0.367070    3.397757    0.000426
     22          1           0       -0.876984   -2.248968   -0.003117
     23          1           0       -2.553328   -2.765918   -0.005136
 ---------------------------------------------------------------------

 SCF Done:  E(UB3LYP) =  -588.293146266     A.U. after   33 cycles
 SCF Done:  E(UB3LYP) =  -588.293146266     a.u. after    1 cycles

 The electronic state is 2-A.
 Alpha  occ. eigenvalues --  -19.06173 -18.99154 -14.27805 -14.23391 -14.20972
 Alpha  occ. eigenvalues --  -10.18470 -10.16336 -10.14418 -10.13563 -10.10668
 Alpha  occ. eigenvalues --  -10.05992 -10.05990  -0.98232  -0.94375  -0.92315
 Alpha  occ. eigenvalues --   -0.81007  -0.78751  -0.70035  -0.65675  -0.59460
 Alpha  occ. eigenvalues --   -0.55848  -0.54190  -0.52884  -0.47699  -0.44720
 Alpha  occ. eigenvalues --   -0.42938  -0.40665  -0.38089  -0.37438  -0.36877
 Alpha  occ. eigenvalues --   -0.34179  -0.33831  -0.32216  -0.31302  -0.30940
 Alpha  occ. eigenvalues --   -0.29246  -0.27708  -0.27162  -0.24084  -0.23042
 Alpha  occ. eigenvalues --   -0.20246  -0.18799  -0.17810  -0.16713  -0.12407
 Alpha  occ. eigenvalues --    0.04291
 Alpha virt. eigenvalues --    0.05825   0.06878   0.06994   0.08754   0.09025
 Alpha virt. eigenvalues --    0.09351   0.09985   0.11567   0.12508   0.12743
 Alpha virt. eigenvalues --    0.13097   0.13471   0.13491   0.15545   0.15601

  Beta  occ. eigenvalues --  -19.06171 -18.99149 -14.27785 -14.23359 -14.20969
  Beta  occ. eigenvalues --  -10.18468 -10.16333 -10.14393 -10.13542 -10.10667
  Beta  occ. eigenvalues --  -10.05968 -10.05965  -0.98223  -0.94364  -0.92296
  Beta  occ. eigenvalues --   -0.80966  -0.78726  -0.70001  -0.65644  -0.59410
  Beta  occ. eigenvalues --   -0.55812  -0.54141  -0.52835  -0.47660  -0.44677
  Beta  occ. eigenvalues --   -0.42888  -0.40616  -0.38054  -0.37421  -0.36831
  Beta  occ. eigenvalues --   -0.34127  -0.33803  -0.32201  -0.31272  -0.30923
  Beta  occ. eigenvalues --   -0.29221  -0.27679  -0.27137  -0.24059  -0.23001
  Beta  occ. eigenvalues --   -0.20232  -0.18789  -0.17786  -0.16705  -0.12399
  Beta virt. eigenvalues --    0.06765   0.06888   0.07489   0.07853   0.09100
  Beta virt. eigenvalues --    0.09774   0.10317   0.10481   0.11700   0.12621
  Beta virt. eigenvalues --    0.13036   0.13519   0.13538   0.13829   0.15502

 Mulliken charges and spin densities:
               1          2
     1  C    0.993395  -1.437064
     2  C   -1.209464   1.240349
     3  C    0.989948  -1.433588
     4  O   -0.117855   0.018980
     5  C    0.497687  -0.836094
     6  C    1.303839  -1.029028
     7  N   -0.234434   0.034222
     8  C    1.039437  -0.878335
     9  N   -0.167785   0.074002
    10  C   -0.650025   0.386528
    11  O   -0.412741  -0.003024
    12  N   -0.335613  -0.134254
    13  H    0.008339   0.149000
    14  H    0.013564   0.121122
    15  H   -0.322525   0.479507
    16  H   -1.079596   1.273261
    17  H    0.007668   0.149661
    18  H    0.016191   0.118375
    19  H   -0.322697   0.479759
    20  H    0.097810   0.249780
    21  H   -1.234361   1.451855
    22  H    0.134815   0.182772
    23  H   -0.015596   0.342213
 Sum of Mulliken charges =  -1.00000   1.00000

 Dipole moment (field-independent basis, Debye):
    X=             -1.7007    Y=             -0.3413    Z=              0.0004  Tot=              1.7346
 Quadrupole moment (field-independent basis, Debye-Ang):
   XX=           -141.2212   YY=           -127.7778   ZZ=            -95.7370
   XY=             10.9949   XZ=              0.0207   YZ=             -0.0272

 Summary of Natural Population Analysis:

                                       Natural Population
                Natural  -----------------------------------------------
    Atom  No    Charge         Core      Valence    Rydberg      Total
 -----------------------------------------------------------------------
      C    1   -0.30217      0.99964     2.29630    0.00623     3.30217
      C    2    0.06921      0.99955     1.91688    0.01436     2.93079
      C    3   -0.30218      0.99964     2.29631    0.00623     3.30218
      O    4   -0.28709      0.99985     3.27638    0.01087     4.28709
      C    5    0.24613      0.99939     1.73765    0.01683     2.75387
      C    6   -0.02852      0.99945     2.01640    0.01267     3.02852
      N    7   -0.25474      0.99966     2.74514    0.00993     3.75474
      C    8    0.12248      0.99966     1.86077    0.01709     2.87752
      N    9   -0.28396      0.99969     2.77396    0.01031     3.78396
      C   10    0.31589      0.99964     1.66299    0.02147     2.68411
      O   11   -0.33832      0.99988     3.33269    0.00575     4.33832
      N   12   -0.39901      0.99971     2.89226    0.00704     3.89901
      H   13    0.11016      0.00000     0.38807    0.00177     0.38984
      H   14    0.10211      0.00000     0.39683    0.00106     0.39789
      H   15    0.10318      0.00000     0.39561    0.00121     0.39682
      H   16    0.09373      0.00000     0.40208    0.00419     0.40627
      H   17    0.11015      0.00000     0.38807    0.00177     0.38985
      H   18    0.10211      0.00000     0.39684    0.00106     0.39789
      H   19    0.10319      0.00000     0.39561    0.00121     0.39681
      H   20    0.21735      0.00000     0.28009    0.00256     0.28265
      H   21    0.09899      0.00000     0.39678    0.00423     0.40101
      H   22    0.20661      0.00000     0.29051    0.00288     0.29339
      H   23    0.19470      0.00000     0.30324    0.00206     0.30530
 =======================================================================
   * Total *   -0.00000     11.99577    32.84145    0.16278    45.00000

 Normal termination of Gaussian 16 at Wed Dec  9 17:02:12 2020.
