 Gaussian 16, Revision A.03,

 -----------------------------------------------------------
 # opt freq B3LYP/6-31G(d) empiricaldispersion=gd3bj scf=xqc
 -----------------------------------------------------------

 ------------------------------
 CID_84649554_JID_1291_neutraal
 ------------------------------
 Symbolic Z-matrix:
 Charge =  0 Multiplicity = 1

 SCF Done:  E(RB3LYP) =  -476.908552399     A.U. after   14 cycles
 SCF Done:  E(RB3LYP) =  -476.913071596     A.U. after   12 cycles
 SCF Done:  E(RB3LYP) =  -476.914467480     A.U. after   12 cycles
 SCF Done:  E(RB3LYP) =  -476.915878020     A.U. after   13 cycles
 SCF Done:  E(RB3LYP) =  -476.916519554     A.U. after   12 cycles
 SCF Done:  E(RB3LYP) =  -476.916986139     A.U. after   11 cycles
 SCF Done:  E(RB3LYP) =  -476.917091916     A.U. after   11 cycles
 SCF Done:  E(RB3LYP) =  -476.917126251     A.U. after   10 cycles
 SCF Done:  E(RB3LYP) =  -476.917134016     A.U. after    8 cycles
 SCF Done:  E(RB3LYP) =  -476.917136228     A.U. after    8 cycles
 SCF Done:  E(RB3LYP) =  -476.917136773     A.U. after    7 cycles
 SCF Done:  E(RB3LYP) =  -476.917137104     A.U. after    8 cycles
 SCF Done:  E(RB3LYP) =  -476.917137237     A.U. after    7 cycles
 SCF Done:  E(RB3LYP) =  -476.917137335     A.U. after    7 cycles
 SCF Done:  E(RB3LYP) =  -476.917137375     A.U. after    6 cycles
 Optimization completed.
    -- Stationary point found.

 1\1\GINC-NODE310\FOpt\RB3LYP\6-31G(d)\C8H13N3\VSC10255\08-Dec-2020\0\\
 # opt freq B3LYP/6-31G(d) empiricaldispersion=gd3bj scf=xqc\\CID_84649
 554_JID_1291_neutraal\\0,1\C,1.2365377246,-0.1569552566,0.093736786\C,
 0.6649339059,-1.4904361394,-0.2646444949\C,1.0550696713,-2.7719701283,
 0.0882748169\C,0.1328656314,-3.6254038815,-0.5538921343\N,-0.768253535
 9,-2.9409685248,-1.2561024021\N,-0.4332699166,-1.6384921957,-1.0652349
 657\C,-1.1588705139,-0.601733078,-1.7721853402\C,-0.6491299573,-0.3174
 722902,-3.18484617\C,0.7743725382,-0.6705033165,-3.5713205799\C,-0.397

 Normal termination of Gaussian 16 at Tue Dec  8 19:37:50 2020.

 --------------------------------------------------------------------
 #N Geom=AllCheck Guess=TCheck SCRF=Check GenChk RB3LYP/6-31G(d) Freq
 --------------------------------------------------------------------

 Structure from the checkpoint file:  "JID_1291.chk"
 ------------------------------
 CID_84649554_JID_1291_neutraal
 ------------------------------
 Charge =  0 Multiplicity = 1

 SCF Done:  E(RB3LYP) =  -476.917137375     A.U. after    1 cycles

  Exact polarizability: 112.133   5.035 100.363  -9.675   1.690  72.678
 Approx polarizability: 153.060   7.421 157.814 -22.250   6.224 112.722

                      1                      2                      3
                      A                      A                      A
 Frequencies --     56.2538                79.1797                96.8070
 Red. masses --      3.5515                 3.2484                 3.9689
 Frc consts  --      0.0066                 0.0120                 0.0219
 IR Inten    --      0.2898                 0.7718                 0.6991

                      4                      5                      6
                      A                      A                      A
 Frequencies --    149.3418               186.2904               232.1073
 Red. masses --      1.0589                 1.1041                 3.6725
 Frc consts  --      0.0139                 0.0226                 0.1166
 IR Inten    --      0.0647                42.4192                 0.8771

                      7                      8                      9
                      A                      A                      A
 Frequencies --    261.8951               290.7076               333.0100
 Red. masses --      2.5070                 3.8306                 2.5226
 Frc consts  --      0.1013                 0.1907                 0.1648
 IR Inten    --      1.3550                 6.7729                 2.8642

                     10                     11                     12
                      A                      A                      A
 Frequencies --    358.3502               415.0444               422.4315
 Red. masses --      2.7978                 2.6237                 2.0236
 Frc consts  --      0.2117                 0.2663                 0.2128
 IR Inten    --      1.8631                10.3511                 3.4085

                     13                     14                     15
                      A                      A                      A
 Frequencies --    463.1807               646.8549               664.5744
 Red. masses --      3.0029                 4.4589                 4.1909
 Frc consts  --      0.3796                 1.0992                 1.0905
 IR Inten    --      3.1066                 1.1864                 3.2960

                     16                     17                     18
                      A                      A                      A
 Frequencies --    675.0511               707.0476               786.1306
 Red. masses --      5.5121                 4.0603                 1.2142
 Frc consts  --      1.4799                 1.1959                 0.4421
 IR Inten    --      4.8339                 1.0837                27.2280

                     19                     20                     21
                      A                      A                      A
 Frequencies --    793.0554               808.7795               849.6768
 Red. masses --      1.3134                 1.8716                 1.4768
 Frc consts  --      0.4867                 0.7213                 0.6282
 IR Inten    --     25.2306                46.2925                88.1688

                     22                     23                     24
                      A                      A                      A
 Frequencies --    861.5911               874.3215               936.1493
 Red. masses --      2.4973                 1.2952                 1.6400
 Frc consts  --      1.0923                 0.5833                 0.8468
 IR Inten    --     16.0530                 2.3857                15.9828

                     25                     26                     27
                      A                      A                      A
 Frequencies --    947.0549               983.9845              1000.6649
 Red. masses --      4.2986                 1.3766                 2.0335
 Frc consts  --      2.2716                 0.7853                 1.1997
 IR Inten    --     18.5450                13.2061                 2.5663

                     28                     29                     30
                      A                      A                      A
 Frequencies --   1006.7377              1020.2553              1058.8197
 Red. masses --      2.2464                 1.6944                 1.5071
 Frc consts  --      1.3414                 1.0392                 0.9955
 IR Inten    --      4.2365                 1.5120                11.3850

                     31                     32                     33
                      A                      A                      A
 Frequencies --   1072.0933              1080.5715              1094.4352
 Red. masses --      1.4556                 1.4553                 1.4149
 Frc consts  --      0.9857                 1.0012                 0.9985
 IR Inten    --      2.9748                 1.6164                 1.8447

                     34                     35                     36
                      A                      A                      A
 Frequencies --   1149.1131              1205.7147              1215.1740
 Red. masses --      1.9172                 1.3007                 1.8352
 Frc consts  --      1.4916                 1.1141                 1.5966
 IR Inten    --      9.2385                 0.6183                 3.7787

                     37                     38                     39
                      A                      A                      A
 Frequencies --   1241.2389              1262.9544              1305.4116
 Red. masses --      1.8119                 1.9239                 2.3083
 Frc consts  --      1.6447                 1.8080                 2.3176
 IR Inten    --      7.9898                 5.9970                26.6363

                     40                     41                     42
                      A                      A                      A
 Frequencies --   1345.8093              1379.7214              1390.5854
 Red. masses --      2.5164                 3.4312                 2.2464
 Frc consts  --      2.6853                 3.8484                 2.5593
 IR Inten    --     27.7821                 2.5550                 0.3507

                     43                     44                     45
                      A                      A                      A
 Frequencies --   1417.3138              1443.8462              1453.1351
 Red. masses --      1.5540                 1.3889                 2.9091
 Frc consts  --      1.8392                 1.7060                 3.6193
 IR Inten    --      6.0156                10.4842                38.2030

                     46                     47                     48
                      A                      A                      A
 Frequencies --   1486.1475              1501.7848              1507.6871
 Red. masses --      1.0963                 1.1130                 2.0945
 Frc consts  --      1.4266                 1.4789                 2.8052
 IR Inten    --      4.2869                 4.2256                25.3842

                     49                     50                     51
                      A                      A                      A
 Frequencies --   1513.3836              1533.3914              1538.5247
 Red. masses --      1.0503                 1.4351                 1.5681
 Frc consts  --      1.4173                 1.9881                 2.1870
 IR Inten    --      7.8067                 9.0788                 3.0199

                     52                     53                     54
                      A                      A                      A
 Frequencies --   1603.7241              1690.9309              3044.1631
 Red. masses --      4.8712                 1.0971                 1.0396
 Frc consts  --      7.3815                 1.8482                 5.6759
 IR Inten    --     13.6481                24.6148                21.8756

                     55                     56                     57
                      A                      A                      A
 Frequencies --   3079.0008              3094.5142              3140.2692
 Red. masses --      1.0639                 1.1005                 1.1001
 Frc consts  --      5.9424                 6.2088                 6.3915
 IR Inten    --     34.4098                14.8984                18.3169

                     58                     59                     60
                      A                      A                      A
 Frequencies --   3141.1190              3142.5980              3145.0206
 Red. masses --      1.0540                 1.0991                 1.0592
 Frc consts  --      6.1269                 6.3955                 6.1729
 IR Inten    --     19.1127                 4.7940                14.3468

                     61                     62                     63
                      A                      A                      A
 Frequencies --   3224.8708              3239.7188              3252.9676
 Red. masses --      1.1175                 1.1142                 1.0925
 Frc consts  --      6.8475                 6.8904                 6.8112
 IR Inten    --      5.7376                 8.3169                 9.4906

                     64                     65                     66
                      A                      A                      A
 Frequencies --   3274.4140              3468.1598              3566.8481
 Red. masses --      1.1012                 1.0515                 1.0908
 Frc consts  --      6.9562                 7.4520                 8.1765
 IR Inten    --      5.7460                 2.5279                 0.1263

 - Thermochemistry -
 -------------------
 Temperature   298.150 Kelvin.  Pressure   1.00000 Atm.
 Atom     1 has atomic number  6 and mass  12.00000

 Molecular mass:   151.11095 amu.
 Principal axes and moments of inertia in atomic units:
                           1         2         3
     Eigenvalues --   906.899692150.783702489.96388
           X            0.99991  -0.01320  -0.00162
           Y            0.01319   0.99988  -0.00866
           Z            0.00174   0.00864   0.99996
 This molecule is an asymmetric top.
 Rotational symmetry number  1.
 Warning -- assumption of classical behavior for rotation
           may cause significant error
 Rotational temperatures (Kelvin)      0.09551     0.04027     0.03479
 Rotational constants (GHZ):           1.99001     0.83911     0.72481
 Zero-point vibrational energy     545567.1 (Joules/Mol)
                                  130.39368 (Kcal/Mol)
 Warning -- explicit consideration of  13 degrees of freedom as
           vibrations may cause significant error
 Vibrational temperatures:     80.94   113.92   139.28   214.87   268.03
          (Kelvin)            333.95   376.81   418.26   479.13   515.59
                              597.16   607.78   666.41   930.68   956.17
                              971.25  1017.28  1131.07  1141.03  1163.65
                             1222.50  1239.64  1257.95  1346.91  1362.60
                             1415.73  1439.73  1448.47  1467.92  1523.41
                             1542.50  1554.70  1574.65  1653.32  1734.75
                             1748.36  1785.87  1817.11  1878.20  1936.32
                             1985.11  2000.74  2039.20  2077.37  2090.74
                             2138.23  2160.73  2169.23  2177.42  2206.21
                             2213.59  2307.40  2432.87  4379.87  4430.00
                             4452.32  4518.15  4519.37  4521.50  4524.98
                             4639.87  4661.23  4680.29  4711.15  4989.91
                             5131.90

 Zero-point correction=                           0.207796 (Hartree/Particle)
 Thermal correction to Energy=                    0.218614
 Thermal correction to Enthalpy=                  0.219558
 Thermal correction to Gibbs Free Energy=         0.171309
 Sum of electronic and zero-point Energies=           -476.709342
 Sum of electronic and thermal Energies=              -476.698523
 Sum of electronic and thermal Enthalpies=            -476.697579
 Sum of electronic and thermal Free Energies=         -476.745829

                     E (Thermal)             CV                S
                      KCal/Mol        Cal/Mol-Kelvin    Cal/Mol-Kelvin
 Total                  137.182             41.229            101.550
 Electronic               0.000              0.000              0.000
 Translational            0.889              2.981             40.949
 Rotational               0.889              2.981             29.964
 Vibrational            135.405             35.268             30.637
 Vibration     1          0.596              1.975              4.584
 Vibration     2          0.600              1.963              3.911
 Vibration     3          0.603              1.951              3.518
 Vibration     4          0.618              1.903              2.681
 Vibration     5          0.632              1.859              2.264
 Vibration     6          0.653              1.792              1.863
 Vibration     7          0.669              1.743              1.649
 Vibration     8          0.687              1.691              1.470
 Vibration     9          0.715              1.610              1.245
 Vibration    10          0.733              1.558              1.129
 Vibration    11          0.778              1.438              0.909
 Vibration    12          0.785              1.421              0.884
 Vibration    13          0.821              1.332              0.757

                           ! Non-Optimized Parameters !

 1\1\GINC-NODE310\Freq\RB3LYP\6-31G(d)\C8H13N3\VSC10255\08-Dec-2020\0\\
 #N Geom=AllCheck Guess=TCheck SCRF=Check GenChk RB3LYP/6-31G(d) Freq\\
 CID_84649554_JID_1291_neutraal\\0,1\C,1.2365377246,-0.1569552566,0.093
 736786\C,0.6649339059,-1.4904361394,-0.2646444949\C,1.0550696713,-2.77
 19701283,0.0882748169\C,0.1328656314,-3.6254038815,-0.5538921343\N,-0.
 7682535359,-2.9409685248,-1.2561024021\N,-0.4332699166,-1.6384921957,-
 1.0652349657\C,-1.1588705139,-0.601733078,-1.7721853402\C,-0.649129957
 3,-0.3174722902,-3.18484617\C,0.7743725382,-0.6705033165,-3.5713205799

 Normal termination of Gaussian 16 at Tue Dec  8 19:42:50 2020.

 ----------------------------------------------------------------------
 # B3LYP/6-311++G(d,p) empiricaldispersion=gd3bj scf=xqc pop=npa geom=c
 heck
 ----------------------------------------------------------------------

 --------------------------------------
 CID_84649554_JID_1291_Energie_neutraal
 --------------------------------------
 Structure from the checkpoint file:  "JID_1291.chk"
 Charge =  0 Multiplicity = 1

 SCF Done:  E(RB3LYP) =  -477.053787570     A.U. after   14 cycles
 Normal termination of Gaussian 16 at Tue Dec  8 19:44:33 2020.

 ----------------------------------------------------------------------
 # B3LYP/6-311++G(d,p) empiricaldispersion=gd3bj scf=xqc pop=npa geom=c
 heck
 ----------------------------------------------------------------------

 ------------------------------------
 CID_84649554_JID_1291_Energie_kation
 ------------------------------------
 Structure from the checkpoint file:  "JID_1291.chk"
 Charge =  1 Multiplicity = 2

 SCF Done:  E(UB3LYP) =  -476.745461911     A.U. after   29 cycles
 Normal termination of Gaussian 16 at Tue Dec  8 19:49:30 2020.
 Gaussian 16:  ES64L-G16RevA.03 25-Dec-2016

 -----------------------------------
 CID_84649554_JID_1291_Energie_anion
 -----------------------------------
 Structure from the checkpoint file:  "JID_1291.chk"
 Charge = -1 Multiplicity = 2

                         Standard orientation:
 ---------------------------------------------------------------------
 Center     Atomic      Atomic             Coordinates (Angstroms)
 Number     Number       Type             X           Y           Z
 ---------------------------------------------------------------------
      1          6           0       -1.299116    2.183507    0.239983
      2          6           0       -1.563285    0.724514    0.053188
      3          6           0       -2.639900   -0.060770    0.431762
      4          6           0       -2.321870   -1.359779   -0.018374
      5          7           0       -1.140587   -1.395038   -0.632292
      6          7           0       -0.692225   -0.113693   -0.585231
      7          6           0        0.631011    0.200558   -1.086665
      8          6           0        1.761935   -0.020270   -0.082426
      9          6           0        1.475302   -0.018947    1.406934
     10          6           0        1.820287   -1.306702    0.683871
     11          7           0        2.995203    0.519047   -0.620383
     12          1           0       -1.200983    2.707974   -0.718915
     13          1           0       -0.378719    2.361736    0.808702
     14          1           0       -2.127331    2.641632    0.786435
     15          1           0       -3.528882    0.270711    0.949076
     16          1           0       -2.904099   -2.267675    0.070452
     17          1           0        0.808283   -0.415257   -1.970775
     18          1           0        0.631890    1.248264   -1.404796
     19          1           0        2.230995    0.420945    2.053018
     20          1           0        0.453601    0.100411    1.755362
     21          1           0        1.020728   -2.021880    0.519073
     22          1           0        2.799260   -1.748470    0.857005
     23          1           0        3.070934    1.513111   -0.407752
     24          1           0        3.801398    0.063627   -0.201180
 ---------------------------------------------------------------------

 SCF Done:  E(UB3LYP) =  -477.040319856     A.U. after   31 cycles

 The electronic state is 2-A.
 Alpha  occ. eigenvalues --  -14.28364 -14.22564 -14.19174 -10.11177 -10.10964
 Alpha  occ. eigenvalues --  -10.10888 -10.08969 -10.07229 -10.06456 -10.06259
 Alpha  occ. eigenvalues --  -10.06223  -0.94707  -0.80995  -0.74289  -0.71158
 Alpha  occ. eigenvalues --   -0.69852  -0.60745  -0.60255  -0.50736  -0.49567
 Alpha  occ. eigenvalues --   -0.48758  -0.43596  -0.40685  -0.40349  -0.37543
 Alpha  occ. eigenvalues --   -0.36888  -0.35238  -0.33936  -0.32087  -0.30585
 Alpha  occ. eigenvalues --   -0.30230  -0.29934  -0.27962  -0.27933  -0.26281
 Alpha  occ. eigenvalues --   -0.21934  -0.19373  -0.18925  -0.15408  -0.14254
 Alpha  occ. eigenvalues --   -0.13276   0.04607
 Alpha virt. eigenvalues --    0.06744   0.07784   0.08898   0.09320   0.09704
 Alpha virt. eigenvalues --    0.10092   0.10789   0.11599   0.11819   0.12483
 Alpha virt. eigenvalues --    0.12874   0.13864   0.14667   0.15165   0.15692

  Beta  occ. eigenvalues --  -14.28362 -14.22563 -14.19120 -10.11176 -10.10964
  Beta  occ. eigenvalues --  -10.10869 -10.08967 -10.07171 -10.06440 -10.06233
  Beta  occ. eigenvalues --  -10.06212  -0.94701  -0.80948  -0.74267  -0.71101
  Beta  occ. eigenvalues --   -0.69828  -0.60699  -0.60196  -0.50699  -0.49525
  Beta  occ. eigenvalues --   -0.48710  -0.43550  -0.40641  -0.40310  -0.37488
  Beta  occ. eigenvalues --   -0.36831  -0.35214  -0.33903  -0.32046  -0.30533
  Beta  occ. eigenvalues --   -0.30192  -0.29900  -0.27927  -0.27895  -0.26253
  Beta  occ. eigenvalues --   -0.21902  -0.19364  -0.18891  -0.15398  -0.14242
  Beta  occ. eigenvalues --   -0.13233
  Beta virt. eigenvalues --    0.07179   0.07853   0.08428   0.09500   0.10061
  Beta virt. eigenvalues --    0.10205   0.10257   0.11327   0.11992   0.12218
  Beta virt. eigenvalues --    0.13036   0.13272   0.14371   0.14678   0.15321

 Mulliken charges and spin densities:
               1          2
     1  C    3.246690  -3.984473
     2  C   -2.112264   1.971513
     3  C   -0.078897   0.142854
     4  C    0.112733  -0.376263
     5  N   -0.306242   0.067654
     6  N    0.281094   0.106807
     7  C    0.687114  -1.197180
     8  C   -1.078920   1.119098
     9  C    0.417786  -0.697466
    10  C    0.595310  -0.945280
    11  N   -0.306174   0.008251
    12  H   -0.323319   0.509199
    13  H   -0.416382   0.594074
    14  H   -0.714153   0.880271
    15  H   -0.434864   0.605504
    16  H    0.073603   0.058658
    17  H    0.065496   0.100268
    18  H    0.009389   0.161297
    19  H   -0.513992   0.709640
    20  H    0.211763  -0.070118
    21  H    0.170685  -0.000095
    22  H   -0.118251   0.266143
    23  H   -0.249322   0.504588
    24  H   -0.218884   0.465055
 Sum of Mulliken charges =  -1.00000   1.00000

 Dipole moment (field-independent basis, Debye):
    X=             -3.4618    Y=             -6.0983    Z=             -1.1863  Tot=              7.1120
 Quadrupole moment (field-independent basis, Debye-Ang):
   XX=           -128.9935   YY=           -114.3029   ZZ=            -98.8029
   XY=              1.2339   XZ=             -1.1704   YZ=             -4.4320

 Summary of Natural Population Analysis:

                                       Natural Population
                Natural  -----------------------------------------------
    Atom  No    Charge         Core      Valence    Rydberg      Total
 -----------------------------------------------------------------------
      C    1   -0.30563      0.99963     2.29993    0.00608     3.30563
      C    2    0.09268      0.99953     1.89513    0.01266     2.90732
      C    3   -0.16809      0.99949     2.15959    0.00901     3.16809
      C    4   -0.01564      0.99963     2.00231    0.01370     3.01564
      N    5   -0.16082      0.99974     2.65000    0.01108     3.66082
      N    6   -0.11549      0.99961     2.60191    0.01396     3.61549
      C    7   -0.07910      0.99955     2.06654    0.01300     3.07910
      C    8    0.04032      0.99954     1.94436    0.01577     2.95968
      C    9   -0.20526      0.99959     2.19566    0.01000     3.20526
      C   10   -0.20021      0.99958     2.19179    0.00884     3.20021
      N   11   -0.41960      0.99974     2.90917    0.01069     3.91960
      H   12    0.10978      0.00000     0.38830    0.00193     0.39022
      H   13    0.11290      0.00000     0.38466    0.00244     0.38710
      H   14    0.11187      0.00000     0.38618    0.00195     0.38813
      H   15    0.10844      0.00000     0.39080    0.00076     0.39156
      H   16    0.09406      0.00000     0.40520    0.00074     0.40594
      H   17    0.10876      0.00000     0.38964    0.00160     0.39124
      H   18    0.10584      0.00000     0.39274    0.00142     0.39416
      H   19    0.10611      0.00000     0.39173    0.00216     0.39389
      H   20    0.10534      0.00000     0.39333    0.00133     0.39466
      H   21    0.11270      0.00000     0.38607    0.00123     0.38730
      H   22    0.10013      0.00000     0.39896    0.00092     0.39987
      H   23    0.18097      0.00000     0.31366    0.00537     0.31903
      H   24    0.17995      0.00000     0.31654    0.00351     0.32005
 =======================================================================
   * Total *    0.00000     10.99564    29.85421    0.15015    41.00000

 Normal termination of Gaussian 16 at Tue Dec  8 19:54:36 2020.
