 Gaussian 16, Revision A.03,

 -----------------------------------------------------------
 # opt freq B3LYP/6-31G(d) empiricaldispersion=gd3bj scf=xqc
 -----------------------------------------------------------

 -------------------------------
 CID_107553408_JID_7042_neutraal
 -------------------------------
 Symbolic Z-matrix:
 Charge =  0 Multiplicity = 1

 SCF Done:  E(RB3LYP) =  -818.185067783     A.U. after   15 cycles
 SCF Done:  E(RB3LYP) =  -818.192753412     A.U. after   14 cycles
 SCF Done:  E(RB3LYP) =  -818.194076001     A.U. after   12 cycles
 SCF Done:  E(RB3LYP) =  -818.193972625     A.U. after   13 cycles
 SCF Done:  E(RB3LYP) =  -818.195092572     A.U. after   13 cycles
 SCF Done:  E(RB3LYP) =  -818.195306853     A.U. after   12 cycles
 SCF Done:  E(RB3LYP) =  -818.195439143     A.U. after   12 cycles
 SCF Done:  E(RB3LYP) =  -818.195559351     A.U. after   12 cycles
 SCF Done:  E(RB3LYP) =  -818.195628513     A.U. after   12 cycles
 SCF Done:  E(RB3LYP) =  -818.195471014     A.U. after   12 cycles
 SCF Done:  E(RB3LYP) =  -818.201056830     A.U. after   11 cycles
 SCF Done:  E(RB3LYP) =  -818.201057278     A.U. after    8 cycles
 SCF Done:  E(RB3LYP) =  -818.201056908     A.U. after    9 cycles
 SCF Done:  E(RB3LYP) =  -818.201057443     A.U. after    9 cycles
 SCF Done:  E(RB3LYP) =  -818.201057453     A.U. after    7 cycles
 SCF Done:  E(RB3LYP) =  -818.201057463     A.U. after    6 cycles
 Optimization completed.
    -- Stationary point found.
 Normal termination of Gaussian 16 at Fri Dec 11 12:57:55 2020.

 --------------------------------------------------------------------
 #N Geom=AllCheck Guess=TCheck SCRF=Check GenChk RB3LYP/6-31G(d) Freq
 --------------------------------------------------------------------

 Structure from the checkpoint file:  "JID_7042.chk"
 -------------------------------
 CID_107553408_JID_7042_neutraal
 -------------------------------
 Charge =  0 Multiplicity = 1

 SCF Done:  E(RB3LYP) =  -818.201057463     A.U. after    1 cycles

  Exact polarizability: 162.295  -8.048 152.690  26.056   4.280 104.520
 Approx polarizability: 230.486 -17.273 232.239  53.578  17.223 170.000

                      1                      2                      3
                      A                      A                      A
 Frequencies --     24.7608                26.7714                43.8017
 Red. masses --      4.7958                 4.1402                 6.8287
 Frc consts  --      0.0017                 0.0017                 0.0077
 IR Inten    --      0.1739                 1.6433                 2.3509

                      4                      5                      6
                      A                      A                      A
 Frequencies --     55.0187                80.6023               102.2651
 Red. masses --      5.8419                 2.9026                 4.6093
 Frc consts  --      0.0104                 0.0111                 0.0284
 IR Inten    --      1.4876                 1.1643                 1.3304

                      7                      8                      9
                      A                      A                      A
 Frequencies --    130.5079               150.4429               181.5295
 Red. masses --      5.4242                 6.4803                 4.8494
 Frc consts  --      0.0544                 0.0864                 0.0942
 IR Inten    --      4.1526                 2.4577                 3.8227

                     10                     11                     12
                      A                      A                      A
 Frequencies --    196.9878               218.0068               277.8256
 Red. masses --      4.7445                 1.9388                 3.3288
 Frc consts  --      0.1085                 0.0543                 0.1514
 IR Inten    --      2.1610                 0.2048                 0.9422

                     13                     14                     15
                      A                      A                      A
 Frequencies --    327.5344               380.0987               434.9571
 Red. masses --      3.3969                 8.3086                 2.6163
 Frc consts  --      0.2147                 0.7072                 0.2916
 IR Inten    --      1.2561                 3.1235                 1.5722

                     16                     17                     18
                      A                      A                      A
 Frequencies --    437.0551               469.1205               488.6099
 Red. masses --      4.1879                 3.2715                 2.9565
 Frc consts  --      0.4713                 0.4242                 0.4159
 IR Inten    --      0.6419                 5.9885                31.5244

                     19                     20                     21
                      A                      A                      A
 Frequencies --    504.9809               530.6590               550.0230
 Red. masses --      1.3488                 2.4984                 2.6381
 Frc consts  --      0.2027                 0.4145                 0.4702
 IR Inten    --     61.9472                17.4458                26.1928

                     22                     23                     24
                      A                      A                      A
 Frequencies --    585.9352               636.4327               650.9864
 Red. masses --      2.0291                 4.0142                 4.8738
 Frc consts  --      0.4104                 0.9580                 1.2169
 IR Inten    --      6.0166                 7.1058                70.6629

                     25                     26                     27
                      A                      A                      A
 Frequencies --    660.9715               666.2186               753.5407
 Red. masses --      1.6568                 3.3900                 5.2601
 Frc consts  --      0.4265                 0.8865                 1.7598
 IR Inten    --     82.8874                 1.5598                15.0996

                     28                     29                     30
                      A                      A                      A
 Frequencies --    783.0173               806.1543               811.2827
 Red. masses --      3.5355                 3.7011                 2.4023
 Frc consts  --      1.2772                 1.4172                 0.9316
 IR Inten    --     56.7394                 6.3977                 4.0692

                     31                     32                     33
                      A                      A                      A
 Frequencies --    850.0188               881.2035               881.6950
 Red. masses --      2.0594                 1.5719                 2.2795
 Frc consts  --      0.8767                 0.7192                 1.0441
 IR Inten    --      8.2811                 3.7173                 9.5554

                     34                     35                     36
                      A                      A                      A
 Frequencies --    907.1519               935.0906               948.0665
 Red. masses --      2.1568                 2.1140                 2.3884
 Frc consts  --      1.0457                 1.0891                 1.2649
 IR Inten    --      3.7568                 7.5207                11.7086

                     37                     38                     39
                      A                      A                      A
 Frequencies --    966.0743               975.3565               995.3778
 Red. masses --      2.2963                 3.8470                 1.3956
 Frc consts  --      1.2627                 2.1562                 0.8147
 IR Inten    --     13.6935                 0.9089                 0.3851

                     40                     41                     42
                      A                      A                      A
 Frequencies --   1011.5720              1034.5693              1051.0535
 Red. masses --      6.1073                 1.8765                 1.8438
 Frc consts  --      3.6821                 1.1833                 1.2001
 IR Inten    --     17.1768                 4.9491                12.3120

                     43                     44                     45
                      A                      A                      A
 Frequencies --   1109.5205              1116.3804              1121.5123
 Red. masses --      2.9520                 2.5857                 2.2517
 Frc consts  --      2.1411                 1.8987                 1.6686
 IR Inten    --    113.7513                32.9503                53.6757

                     46                     47                     48
                      A                      A                      A
 Frequencies --   1141.3216              1172.4238              1187.6236
 Red. masses --      2.2748                 2.2099                 2.8270
 Frc consts  --      1.7459                 1.7898                 2.3493
 IR Inten    --     12.7274                 1.5055               261.2135

                     49                     50                     51
                      A                      A                      A
 Frequencies --   1207.2421              1217.4578              1228.0092
 Red. masses --      1.3760                 1.4627                 1.9507
 Frc consts  --      1.1815                 1.2774                 1.7332
 IR Inten    --     26.8514                30.7325                21.9773

                     52                     53                     54
                      A                      A                      A
 Frequencies --   1254.3977              1265.4595              1286.1960
 Red. masses --      1.4996                 1.7360                 1.3856
 Frc consts  --      1.3902                 1.6380                 1.3505
 IR Inten    --     12.8697                 3.9840                10.7807

                     55                     56                     57
                      A                      A                      A
 Frequencies --   1306.3107              1328.0634              1354.1004
 Red. masses --      1.6027                 1.3261                 2.0707
 Frc consts  --      1.6114                 1.3781                 2.2370
 IR Inten    --     14.5535                 0.4252                43.7884

                     58                     59                     60
                      A                      A                      A
 Frequencies --   1357.1623              1366.0730              1389.4925
 Red. masses --      1.3054                 1.2110                 2.3932
 Frc consts  --      1.4167                 1.3315                 2.7223
 IR Inten    --      1.6311                10.0173                29.2675

                     61                     62                     63
                      A                      A                      A
 Frequencies --   1391.7716              1403.8033              1417.8623
 Red. masses --      1.4340                 1.3534                 1.3817
 Frc consts  --      1.6366                 1.5714                 1.6365
 IR Inten    --     16.7953                39.8485                44.3354

                     64                     65                     66
                      A                      A                      A
 Frequencies --   1438.9570              1456.6922              1496.9906
 Red. masses --      1.5511                 1.6001                 1.7349
 Frc consts  --      1.8923                 2.0005                 2.2906
 IR Inten    --     22.1254                38.8034                46.6223

                     67                     68                     69
                      A                      A                      A
 Frequencies --   1510.6481              1517.3701              1521.1356
 Red. masses --      1.1684                 1.4450                 1.0895
 Frc consts  --      1.5709                 1.9602                 1.4853
 IR Inten    --      7.4245                 6.1314                 6.0652

                     70                     71                     72
                      A                      A                      A
 Frequencies --   1536.2977              1563.1618              1594.6895
 Red. masses --      1.1010                 1.0977                 5.5400
 Frc consts  --      1.5310                 1.5803                 8.3007
 IR Inten    --      7.9240                 1.6935               128.5721

                     73                     74                     75
                      A                      A                      A
 Frequencies --   1620.3494              1654.7237              1842.3368
 Red. masses --      3.5459                 7.0799                10.3221
 Frc consts  --      5.4852                11.4216                20.6423
 IR Inten    --    169.9607               546.3601               245.4425

                     76                     77                     78
                      A                      A                      A
 Frequencies --   3003.4644              3013.3794              3038.4197
 Red. masses --      1.0813                 1.0692                 1.0695
 Frc consts  --      5.7469                 5.7204                 5.8172
 IR Inten    --     77.9163                60.3932                17.2294

                     79                     80                     81
                      A                      A                      A
 Frequencies --   3044.7032              3056.6757              3069.1749
 Red. masses --      1.0637                 1.0791                 1.0685
 Frc consts  --      5.8095                 5.9403                 5.9301
 IR Inten    --     41.3004                20.5945                64.7743

                     82                     83                     84
                      A                      A                      A
 Frequencies --   3072.0886              3085.3255              3117.4620
 Red. masses --      1.0816                 1.1029                 1.1023
 Frc consts  --      6.0143                 6.1858                 6.3115
 IR Inten    --     62.2318                49.4085                44.5403

                     85                     86                     87
                      A                      A                      A
 Frequencies --   3141.9621              3161.6034              3174.4136
 Red. masses --      1.0976                 1.0946                 1.0912
 Frc consts  --      6.3839                 6.4465                 6.4785
 IR Inten    --      8.2067                 1.0150                32.7920

                     88                     89                     90
                      A                      A                      A
 Frequencies --   3265.7369              3632.0040              3698.2518
 Red. masses --      1.0936                 1.0765                 1.0642
 Frc consts  --      6.8720                 8.3667                 8.5757
 IR Inten    --      0.2125                51.9005                76.0117

 - Thermochemistry -
 -------------------
 Temperature   298.150 Kelvin.  Pressure   1.00000 Atm.
 Atom     1 has atomic number  6 and mass  12.00000

 Molecular mass:   237.11134 amu.
 Principal axes and moments of inertia in atomic units:
                           1         2         3
     Eigenvalues --  2900.740415268.898467118.49274
           X            0.99988   0.01325   0.00818
           Y           -0.01311   0.99977  -0.01707
           Z           -0.00840   0.01696   0.99982
 This molecule is an asymmetric top.
 Rotational symmetry number  1.
 Warning -- assumption of classical behavior for rotation
           may cause significant error
 Rotational temperatures (Kelvin)      0.02986     0.01644     0.01217
 Rotational constants (GHZ):           0.62217     0.34253     0.25353
 Zero-point vibrational energy     695948.7 (Joules/Mol)
                                  166.33572 (Kcal/Mol)
 Warning -- explicit consideration of  22 degrees of freedom as
           vibrations may cause significant error
 Vibrational temperatures:     35.63    38.52    63.02    79.16   115.97
          (Kelvin)            147.14   187.77   216.45   261.18   283.42
                              313.66   399.73   471.25   546.88   625.81
                              628.82   674.96   703.00   726.55   763.50
                              791.36   843.03   915.68   936.62   950.99
                              958.54  1084.18  1126.59  1159.88  1167.25
                             1222.99  1267.86  1268.56  1305.19  1345.39
                             1364.06  1389.97  1403.32  1432.13  1455.43
                             1488.51  1512.23  1596.35  1606.22  1613.61
                             1642.11  1686.86  1708.73  1736.95  1751.65
                             1766.83  1804.80  1820.71  1850.55  1879.49
                             1910.79  1948.25  1952.65  1965.47  1999.17
                             2002.45  2019.76  2039.99  2070.34  2095.86
                             2153.84  2173.49  2183.16  2188.57  2210.39
                             2249.04  2294.40  2331.32  2380.78  2650.71
                             4321.32  4335.58  4371.61  4380.65  4397.87
                             4415.86  4420.05  4439.10  4485.33  4520.58
                             4548.84  4567.27  4698.67  5225.64  5320.96

 Zero-point correction=                           0.265073 (Hartree/Particle)
 Thermal correction to Energy=                    0.280582
 Thermal correction to Enthalpy=                  0.281527
 Thermal correction to Gibbs Free Energy=         0.219552
 Sum of electronic and zero-point Energies=           -817.935985
 Sum of electronic and thermal Energies=              -817.920475
 Sum of electronic and thermal Enthalpies=            -817.919531
 Sum of electronic and thermal Free Energies=         -817.981505

                     E (Thermal)             CV                S
                      KCal/Mol        Cal/Mol-Kelvin    Cal/Mol-Kelvin
 Total                  176.068             57.982            130.436
 Electronic               0.000              0.000              0.000
 Translational            0.889              2.981             42.292
 Rotational               0.889              2.981             33.053
 Vibrational            174.291             52.020             55.091
 Vibration     1          0.593              1.985              6.210
 Vibration     2          0.593              1.984              6.055
 Vibration     3          0.595              1.980              5.079
 Vibration     4          0.596              1.976              4.628
 Vibration     5          0.600              1.962              3.876
 Vibration     6          0.604              1.947              3.411
 Vibration     7          0.612              1.923              2.939
 Vibration     8          0.618              1.902              2.667
 Vibration     9          0.630              1.865              2.313
 Vibration    10          0.636              1.844              2.161
 Vibration    11          0.646              1.814              1.976
 Vibration    12          0.679              1.714              1.547
 Vibration    13          0.711              1.620              1.272
 Vibration    14          0.750              1.513              1.039
 Vibration    15          0.796              1.394              0.843
 Vibration    16          0.797              1.389              0.836
 Vibration    17          0.826              1.319              0.740
 Vibration    18          0.845              1.275              0.687
 Vibration    19          0.860              1.239              0.646
 Vibration    20          0.886              1.182              0.586
 Vibration    21          0.905              1.140              0.544
 Vibration    22          0.943              1.062              0.474

 Optimization completed.
    -- Stationary point found.
 Normal termination of Gaussian 16 at Fri Dec 11 13:08:56 2020.

 ----------------------------------------------------------------------
 # B3LYP/6-311++G(d,p) empiricaldispersion=gd3bj scf=xqc pop=npa geom=c
 heck
 ----------------------------------------------------------------------

 ---------------------------------------
 CID_107553408_JID_7042_Energie_neutraal
 ---------------------------------------
 Structure from the checkpoint file:  "JID_7042.chk"
 Charge =  0 Multiplicity = 1

 SCF Done:  E(RB3LYP) =  -818.438290815     A.U. after   15 cycles
 Normal termination of Gaussian 16 at Fri Dec 11 13:13:34 2020.

 ----------------------------------------------------------------------
 # B3LYP/6-311++G(d,p) empiricaldispersion=gd3bj scf=xqc pop=npa geom=c
 heck
 ----------------------------------------------------------------------

 -------------------------------------
 CID_107553408_JID_7042_Energie_kation
 -------------------------------------
 Structure from the checkpoint file:  "JID_7042.chk"
 Charge =  1 Multiplicity = 2

 SCF Done:  E(UB3LYP) =  -818.142913535     A.U. after   24 cycles
 Normal termination of Gaussian 16 at Fri Dec 11 13:23:02 2020.
 Gaussian 16:  ES64L-G16RevA.03 25-Dec-2016

 ----------------------------------------------------------------------
 # B3LYP/6-311++G(d,p) empiricaldispersion=gd3bj scf=xqc pop=npa geom=c
 heck
 ----------------------------------------------------------------------

 ------------------------------------
 CID_107553408_JID_7042_Energie_anion
 ------------------------------------
 Structure from the checkpoint file:  "JID_7042.chk"
 Charge = -1 Multiplicity = 2

                         Standard orientation:
 ---------------------------------------------------------------------
 Center     Atomic      Atomic             Coordinates (Angstroms)
 Number     Number       Type             X           Y           Z
 ---------------------------------------------------------------------
      1          6           0        2.586383    2.057016   -0.356838
      2          6           0        2.028840    1.008224    0.611941
      3          6           0        2.163469   -0.273343   -0.215156
      4          8           0        3.348739   -0.098704   -1.012391
      5          6           0        3.718759    1.284009   -1.045559
      6          6           0        2.319536   -1.561123    0.585623
      7          6           0        1.062603   -1.971185    1.365831
      8          7           0       -0.038237   -2.419570    0.524655
      9          6           0       -1.051672   -1.641683    0.073425
     10          7           0       -1.945217   -2.250994   -0.749067
     11          6           0       -2.945402   -1.493510   -1.180046
     12          6           0       -3.099303   -0.146669   -0.830307
     13          6           0       -2.115849    0.369202    0.010819
     14          7           0       -1.095359   -0.356753    0.470262
     15          6           0       -2.117543    1.809735    0.444655
     16          8           0       -1.230023    2.357044    1.057836
     17          8           0       -3.246222    2.452969    0.057095
     18          1           0        1.815773    2.341617   -1.083031
     19          1           0        2.934444    2.969003    0.137423
     20          1           0        1.001643    1.204908    0.922654
     21          1           0        2.664160    0.940640    1.505843
     22          1           0        1.298674   -0.363450   -0.890283
     23          1           0        3.873779    1.587900   -2.088138
     24          1           0        4.671511    1.412839   -0.510641
     25          1           0        2.606839   -2.370909   -0.096856
     26          1           0        3.149694   -1.433372    1.292761
     27          1           0        1.308364   -2.792473    2.048104
     28          1           0        0.693895   -1.139156    1.969552
     29          1           0       -0.014248   -3.349755    0.131485
     30          1           0       -3.662603   -1.978780   -1.840274
     31          1           0       -3.919381    0.455854   -1.195050
     32          1           0       -3.149726    3.371837    0.368850
 ---------------------------------------------------------------------

 SCF Done:  E(UB3LYP) =  -818.461825693     A.U. after   21 cycles

 The electronic state is 2-A.
 Alpha  occ. eigenvalues --  -19.01438 -19.00817 -18.93883 -14.19287 -14.13245
 Alpha  occ. eigenvalues --  -14.12932 -10.11859 -10.11256 -10.11132 -10.09920
 Alpha  occ. eigenvalues --  -10.08798 -10.06392 -10.05731 -10.04645 -10.04476
 Alpha  occ. eigenvalues --  -10.03650 -10.00975  -0.95036  -0.92417  -0.85667
 Alpha  occ. eigenvalues --   -0.84518  -0.77387  -0.72224  -0.67785  -0.66771
 Alpha  occ. eigenvalues --   -0.62470  -0.59381  -0.53626  -0.52143  -0.48838
 Alpha  occ. eigenvalues --   -0.47623  -0.46531  -0.44935  -0.40034  -0.39247
 Alpha  occ. eigenvalues --   -0.38123  -0.36525  -0.34355  -0.34231  -0.33318
 Alpha  occ. eigenvalues --   -0.31814  -0.31364  -0.30641  -0.30040  -0.29084
 Alpha  occ. eigenvalues --   -0.28283  -0.27211  -0.26667  -0.25672  -0.25081
 Alpha  occ. eigenvalues --   -0.24402  -0.23429  -0.22673  -0.21919  -0.20590
 Alpha  occ. eigenvalues --   -0.17942  -0.17109  -0.15551  -0.15147  -0.14093
 Alpha  occ. eigenvalues --   -0.12192  -0.08884  -0.07835   0.04119
 Alpha virt. eigenvalues --    0.07603   0.08429   0.09404   0.09709   0.10523
 Alpha virt. eigenvalues --    0.10641   0.11237   0.11766   0.12605   0.13438
 Alpha virt. eigenvalues --    0.13573   0.14128   0.14300   0.14992   0.15800

  Beta  occ. eigenvalues --  -19.01346 -19.00816 -18.93536 -14.19306 -14.12809
  Beta  occ. eigenvalues --  -14.12611 -10.11597 -10.11256 -10.11194 -10.09918
  Beta  occ. eigenvalues --  -10.08797 -10.06392 -10.05732 -10.04492 -10.04476
  Beta  occ. eigenvalues --  -10.03275 -10.00994  -0.94687  -0.92416  -0.85149
  Beta  occ. eigenvalues --   -0.84223  -0.77104  -0.71404  -0.67768  -0.66759
  Beta  occ. eigenvalues --   -0.62181  -0.59175  -0.53223  -0.51635  -0.48831
  Beta  occ. eigenvalues --   -0.47540  -0.46360  -0.44778  -0.39791  -0.39240
  Beta  occ. eigenvalues --   -0.38072  -0.36428  -0.34277  -0.34099  -0.33126
  Beta  occ. eigenvalues --   -0.31702  -0.31045  -0.30510  -0.28846  -0.28813
  Beta  occ. eigenvalues --   -0.27859  -0.27056  -0.26474  -0.25069  -0.24907
  Beta  occ. eigenvalues --   -0.24292  -0.23223  -0.22665  -0.21906  -0.20584
  Beta  occ. eigenvalues --   -0.16778  -0.16120  -0.14659  -0.14107  -0.13091
  Beta  occ. eigenvalues --   -0.11802  -0.08418  -0.06785
  Beta virt. eigenvalues --    0.07595   0.08419   0.09390   0.09697   0.10498
  Beta virt. eigenvalues --    0.10625   0.11089   0.11239   0.11757   0.12602
  Beta virt. eigenvalues --    0.13395   0.13583   0.14210   0.14678   0.15010

 Mulliken charges and spin densities:
               1          2
     1  C   -0.441397   0.003537
     2  C   -0.279111  -0.006346
     3  C   -0.119504   0.007470
     4  O   -0.096666   0.000223
     5  C   -0.133995  -0.000114
     6  C   -0.433209  -0.004558
     7  C   -0.173070  -0.006825
     8  N   -0.175861  -0.005114
     9  C   -0.567297  -0.026609
    10  N   -0.146269   0.202405
    11  C   -0.299712   0.122979
    12  C   -0.155759   0.048948
    13  C   -0.032658   0.225975
    14  N   -0.116143   0.149099
    15  C    0.171458   0.147663
    16  O   -0.413994   0.125598
    17  O   -0.217408   0.018911
    18  H    0.146914   0.001397
    19  H    0.129706   0.000080
    20  H    0.252662  -0.002846
    21  H    0.130689   0.000524
    22  H    0.282947   0.003901
    23  H    0.124923   0.000395
    24  H    0.113523  -0.000208
    25  H    0.169734   0.001233
    26  H    0.089325  -0.001385
    27  H    0.156358  -0.002372
    28  H    0.218123   0.009785
    29  H    0.281649  -0.001645
    30  H    0.120602  -0.013583
    31  H    0.164848   0.002509
    32  H    0.248590  -0.001026
 Sum of Mulliken charges =  -1.00000   1.00000

 Dipole moment (field-independent basis, Debye):
    X=              5.4297    Y=              0.6250    Z=              0.4731  Tot=              5.4860
 Quadrupole moment (field-independent basis, Debye-Ang):
   XX=           -135.6592   YY=           -118.2375   ZZ=           -112.7547
   XY=             -2.6902   XZ=              2.9562   YZ=             -8.4149

 Summary of Natural Population Analysis:

                                       Natural Population
                Natural  -----------------------------------------------
    Atom  No    Charge         Core      Valence    Rydberg      Total
 -----------------------------------------------------------------------
      C    1   -0.20363      0.99965     2.19784    0.00615     3.20363
      C    2   -0.21181      0.99961     2.20467    0.00752     3.21181
      C    3    0.06559      0.99956     1.92245    0.01240     2.93441
      O    4   -0.31480      0.99989     3.30450    0.01042     4.31480
      C    5   -0.00834      0.99961     1.99836    0.01036     3.00834
      C    6   -0.19521      0.99960     2.18801    0.00760     3.19521
      C    7   -0.08862      0.99962     2.07903    0.00997     3.08862
      N    8   -0.32675      0.99965     2.81059    0.01651     3.82675
      C    9    0.28374      0.99961     1.69834    0.01830     2.71626
      N   10   -0.22375      0.99967     2.71335    0.01072     3.72375
      C   11    0.06324      0.99962     1.92202    0.01511     2.93676
      C   12   -0.16296      0.99953     2.15504    0.00839     3.16296
      C   13    0.13078      0.99949     1.85637    0.01336     2.86922
      N   14   -0.23397      0.99964     2.72356    0.01077     3.73397
      C   15    0.42382      0.99969     1.55237    0.02412     2.57618
      O   16   -0.29188      0.99987     3.28475    0.00726     4.29188
      O   17   -0.35307      0.99988     3.34558    0.00762     4.35307
      H   18    0.10022      0.00000     0.39860    0.00118     0.39978
      H   19    0.09750      0.00000     0.40137    0.00113     0.40250
      H   20    0.14018      0.00000     0.35877    0.00105     0.35982
      H   21    0.08505      0.00000     0.41382    0.00113     0.41495
      H   22    0.09211      0.00000     0.40630    0.00159     0.40789
      H   23    0.07957      0.00000     0.41911    0.00132     0.42043
      H   24    0.07229      0.00000     0.42607    0.00164     0.42771
      H   25    0.09690      0.00000     0.40192    0.00118     0.40310
      H   26    0.09108      0.00000     0.40751    0.00141     0.40892
      H   27    0.08553      0.00000     0.41331    0.00115     0.41447
      H   28    0.11248      0.00000     0.38633    0.00119     0.38752
      H   29    0.18997      0.00000     0.30863    0.00140     0.31003
      H   30    0.07515      0.00000     0.42344    0.00141     0.42485
      H   31    0.10397      0.00000     0.39495    0.00108     0.39603
      H   32    0.22561      0.00000     0.26876    0.00563     0.27439
 =======================================================================
   * Total *   -0.00000     16.99419    45.78574    0.22008    63.00000

 Normal termination of Gaussian 16 at Fri Dec 11 13:31:18 2020.
