 Gaussian 16, Revision A.03,

 -----------------------------------------------------------
 # opt freq B3LYP/6-31G(d) empiricaldispersion=gd3bj scf=xqc
 -----------------------------------------------------------

 ------------------------------
 CID_81039082_JID_7183_neutraal
 ------------------------------
 Symbolic Z-matrix:
 Charge =  0 Multiplicity = 1

 SCF Done:  E(RB3LYP) =  -1164.58707984     A.U. after   14 cycles
 SCF Done:  E(RB3LYP) =  -1164.59462778     A.U. after   12 cycles
 SCF Done:  E(RB3LYP) =  -1164.59457187     A.U. after   13 cycles
 SCF Done:  E(RB3LYP) =  -1164.59751888     A.U. after   12 cycles
 SCF Done:  E(RB3LYP) =  -1164.59955870     A.U. after   13 cycles
 SCF Done:  E(RB3LYP) =  -1164.59933020     A.U. after   15 cycles
 SCF Done:  E(RB3LYP) =  -1164.60181929     A.U. after   12 cycles
 SCF Done:  E(RB3LYP) =  -1164.60207168     A.U. after   12 cycles
 SCF Done:  E(RB3LYP) =  -1164.60248425     A.U. after   12 cycles
 SCF Done:  E(RB3LYP) =  -1164.60287822     A.U. after   12 cycles
 SCF Done:  E(RB3LYP) =  -1164.60382411     A.U. after   11 cycles
 SCF Done:  E(RB3LYP) =  -1164.60382556     A.U. after    9 cycles
 SCF Done:  E(RB3LYP) =  -1164.60382826     A.U. after    9 cycles
 SCF Done:  E(RB3LYP) =  -1164.60382988     A.U. after   10 cycles
 SCF Done:  E(RB3LYP) =  -1164.60383019     A.U. after    7 cycles
 Optimization completed.
    -- Stationary point found.
 Normal termination of Gaussian 16 at Sun Dec 13 16:20:57 2020.

 --------------------------------------------------------------------
 #N Geom=AllCheck Guess=TCheck SCRF=Check GenChk RB3LYP/6-31G(d) Freq
 --------------------------------------------------------------------

 Structure from the checkpoint file:  "JID_7183.chk"
 ------------------------------
 CID_81039082_JID_7183_neutraal
 ------------------------------
 Charge =  0 Multiplicity = 1

 SCF Done:  E(RB3LYP) =  -1164.60383019     A.U. after    1 cycles

  Exact polarizability: 165.510   1.355 145.278   6.023   0.637 130.348
 Approx polarizability: 213.056  -3.752 225.085   3.594  -0.482 205.125

                      1                      2                      3
                      A                      A                      A
 Frequencies --     23.4595                33.6268                51.9483
 Red. masses --      4.1167                 5.6203                 6.5029
 Frc consts  --      0.0013                 0.0037                 0.0103
 IR Inten    --      0.6211                 3.1976                 6.7429

                      4                      5                      6
                      A                      A                      A
 Frequencies --     77.4890                79.4692               127.2068
 Red. masses --      5.6427                 4.1641                 3.4233
 Frc consts  --      0.0200                 0.0155                 0.0326
 IR Inten    --      0.4705                 0.2066                 0.7880

                      7                      8                      9
                      A                      A                      A
 Frequencies --    158.4989               170.1723               213.7864
 Red. masses --      3.0821                 2.7952                 4.7800
 Frc consts  --      0.0456                 0.0477                 0.1287
 IR Inten    --      1.2963                 1.4516                 0.5952

                     10                     11                     12
                      A                      A                      A
 Frequencies --    231.8030               249.5831               257.7394
 Red. masses --      3.8208                 2.7376                 2.5550
 Frc consts  --      0.1210                 0.1005                 0.1000
 IR Inten    --      0.8662                 0.3260                 1.0123

                     13                     14                     15
                      A                      A                      A
 Frequencies --    308.5173               322.6988               345.2239
 Red. masses --      3.9953                 2.9893                 3.4204
 Frc consts  --      0.2241                 0.1834                 0.2402
 IR Inten    --      2.5585                 2.1800                 4.5554

                     16                     17                     18
                      A                      A                      A
 Frequencies --    347.6608               387.4583               401.4821
 Red. masses --      2.1579                 3.6248                 5.0056
 Frc consts  --      0.1537                 0.3206                 0.4754
 IR Inten    --      0.4274                 0.8436                26.7568

                     19                     20                     21
                      A                      A                      A
 Frequencies --    410.9477               443.2580               464.7750
 Red. masses --      3.8265                 3.1988                 3.6588
 Frc consts  --      0.3807                 0.3703                 0.4657
 IR Inten    --      7.7357                 7.6168                 6.1250

                     22                     23                     24
                      A                      A                      A
 Frequencies --    503.5376               521.6110               544.5377
 Red. masses --      1.9912                 2.4787                 1.4873
 Frc consts  --      0.2975                 0.3974                 0.2598
 IR Inten    --      3.2671                10.8168                65.7541

                     25                     26                     27
                      A                      A                      A
 Frequencies --    577.9910               591.4163               647.9491
 Red. masses --      5.9802                 2.4492                 3.7369
 Frc consts  --      1.1771                 0.5047                 0.9244
 IR Inten    --      9.9272                16.1407                 1.0600

                     28                     29                     30
                      A                      A                      A
 Frequencies --    687.8363               717.0470               734.1273
 Red. masses --      3.1214                 2.7654                 2.2432
 Frc consts  --      0.8701                 0.8377                 0.7123
 IR Inten    --      6.2353                69.1419                13.3092

                     31                     32                     33
                      A                      A                      A
 Frequencies --    751.1036               820.4364               830.8889
 Red. masses --      5.7719                 1.5242                 2.3934
 Frc consts  --      1.9185                 0.6045                 0.9735
 IR Inten    --     22.1596                41.8000                 1.1740

                     34                     35                     36
                      A                      A                      A
 Frequencies --    848.6876               886.8652               892.5737
 Red. masses --      1.6159                 2.1045                 2.0828
 Frc consts  --      0.6857                 0.9753                 0.9777
 IR Inten    --      2.7741                22.5464                20.3127

                     37                     38                     39
                      A                      A                      A
 Frequencies --    896.6845               915.2218               919.5210
 Red. masses --      2.4629                 2.2558                 1.7439
 Frc consts  --      1.1667                 1.1133                 0.8688
 IR Inten    --      4.1511                 2.0297                 0.5577

                     40                     41                     42
                      A                      A                      A
 Frequencies --    978.7446               992.4812              1002.7365
 Red. masses --      2.1818                 1.6642                 2.1265
 Frc consts  --      1.2314                 0.9658                 1.2598
 IR Inten    --      2.9128                 1.4885                 9.5993

                     43                     44                     45
                      A                      A                      A
 Frequencies --   1010.8934              1039.1683              1047.1065
 Red. masses --      1.8989                 1.7606                 1.6809
 Frc consts  --      1.1433                 1.1202                 1.0859
 IR Inten    --      2.1531                 7.8341                 6.0353

                     46                     47                     48
                      A                      A                      A
 Frequencies --   1072.2849              1084.9932              1093.2414
 Red. masses --      1.7746                 1.8458                 5.3346
 Frc consts  --      1.2022                 1.2802                 3.7565
 IR Inten    --     11.5440                10.0494               104.6534

                     49                     50                     51
                      A                      A                      A
 Frequencies --   1111.5129              1138.8082              1148.2717
 Red. masses --      2.1708                 2.2949                 1.9117
 Frc consts  --      1.5801                 1.7536                 1.4851
 IR Inten    --     17.8164                 4.4336                 1.9202

                     52                     53                     54
                      A                      A                      A
 Frequencies --   1167.1658              1171.7357              1184.7409
 Red. masses --      2.6949                 1.7567                 1.6543
 Frc consts  --      2.1630                 1.4211                 1.3681
 IR Inten    --     86.4231                10.1777                10.0585

                     55                     56                     57
                      A                      A                      A
 Frequencies --   1212.9834              1229.1834              1248.2096
 Red. masses --      1.4069                 1.3655                 1.3733
 Frc consts  --      1.2196                 1.2155                 1.2607
 IR Inten    --     14.0064                 9.8838                 5.0484

                     58                     59                     60
                      A                      A                      A
 Frequencies --   1269.6792              1276.6404              1292.1835
 Red. masses --      1.5634                 1.3857                 1.9793
 Frc consts  --      1.4849                 1.3306                 1.9472
 IR Inten    --     30.7978                13.9820                79.1475

                     61                     62                     63
                      A                      A                      A
 Frequencies --   1298.1617              1316.6764              1319.3122
 Red. masses --      1.5884                 1.3343                 1.5307
 Frc consts  --      1.5771                 1.3629                 1.5697
 IR Inten    --     49.9995                10.0056                40.1214

                     64                     65                     66
                      A                      A                      A
 Frequencies --   1328.3053              1351.2771              1361.4353
 Red. masses --      1.3273                 1.3107                 1.3852
 Frc consts  --      1.3798                 1.4101                 1.5127
 IR Inten    --      7.9739                 4.1966                 5.1280

                     67                     68                     69
                      A                      A                      A
 Frequencies --   1367.6519              1380.8925              1383.5230
 Red. masses --      1.3925                 1.3870                 1.2940
 Frc consts  --      1.5346                 1.5582                 1.4593
 IR Inten    --     42.9090                16.4884                 2.4139

                     70                     71                     72
                      A                      A                      A
 Frequencies --   1408.7772              1412.7185              1425.1902
 Red. masses --      1.4747                 1.4735                 1.4093
 Frc consts  --      1.7244                 1.7326                 1.6865
 IR Inten    --     30.8948                18.8078                 4.6628

                     73                     74                     75
                      A                      A                      A
 Frequencies --   1432.6586              1440.2553              1487.0410
 Red. masses --      1.3941                 1.5365                 1.0907
 Frc consts  --      1.6858                 1.8779                 1.4211
 IR Inten    --      1.2663                18.5241                 5.9311

                     76                     77                     78
                      A                      A                      A
 Frequencies --   1487.8821              1506.3751              1516.7219
 Red. masses --      1.6880                 1.1533                 1.0836
 Frc consts  --      2.2017                 1.5418                 1.4686
 IR Inten    --     41.6607                 0.5597                 4.7719

                     79                     80                     81
                      A                      A                      A
 Frequencies --   1518.5663              1526.4695              1530.3740
 Red. masses --      1.0978                 1.1005                 1.1178
 Frc consts  --      1.4916                 1.5109                 1.5425
 IR Inten    --      9.9169                 0.3481                22.5619

                     82                     83                     84
                      A                      A                      A
 Frequencies --   1532.4245              1537.2574              1568.1170
 Red. masses --      1.0927                 1.1255                 1.1361
 Frc consts  --      1.5119                 1.5671                 1.6460
 IR Inten    --      1.8914                47.2843                46.6516

                     85                     86                     87
                      A                      A                      A
 Frequencies --   1787.9330              2970.1881              3034.8643
 Red. masses --      7.8446                 1.0699                 1.0620
 Frc consts  --     14.7749                 5.5609                 5.7629
 IR Inten    --    343.7173                42.0859                11.0999

                     88                     89                     90
                      A                      A                      A
 Frequencies --   3035.9886              3044.2602              3047.3939
 Red. masses --      1.0613                 1.0695                 1.0637
 Frc consts  --      5.7635                 5.8400                 5.8198
 IR Inten    --     30.3612                11.3073                36.7805

                     91                     92                     93
                      A                      A                      A
 Frequencies --   3055.8747              3069.0890              3069.7580
 Red. masses --      1.0892                 1.0627                 1.1010
 Frc consts  --      5.9926                 5.8977                 6.1130
 IR Inten    --     17.0555                23.2543                37.2152

                     94                     95                     96
                      A                      A                      A
 Frequencies --   3076.9905              3077.2536              3090.1204
 Red. masses --      1.1017                 1.0622                 1.0860
 Frc consts  --      6.1457                 5.9265                 6.1097
 IR Inten    --     31.7169                16.5808                24.3363

                     97                     98                     99
                      A                      A                      A
 Frequencies --   3090.9574              3104.3250              3106.1105
 Red. masses --      1.1010                 1.0621                 1.0964
 Frc consts  --      6.1977                 6.0303                 6.2326
 IR Inten    --     52.3267                 3.0690                36.2826

                    100                    101                    102
                      A                      A                      A
 Frequencies --   3114.0374              3126.4578              3135.4539
 Red. masses --      1.1015                 1.1028                 1.0872
 Frc consts  --      6.2932                 6.3512                 6.2976
 IR Inten    --     12.9032                24.2511                 2.2673

                    103                    104                    105
                      A                      A                      A
 Frequencies --   3175.2222              3542.5299              3602.9930
 Red. masses --      1.1089                 1.0725                 1.0762
 Frc consts  --      6.5868                 7.9297                 8.2315
 IR Inten    --      1.6256                15.6128                21.3431

 - Thermochemistry -
 -------------------
 Temperature   298.150 Kelvin.  Pressure   1.00000 Atm.
 Atom     1 has atomic number  6 and mass  12.00000

 Molecular mass:   260.11946 amu.
 Principal axes and moments of inertia in atomic units:
                           1         2         3
     Eigenvalues --  2351.250027173.933647473.28981
           X            0.99969   0.02507   0.00062
           Y           -0.02508   0.99956   0.01615
           Z           -0.00022  -0.01616   0.99987
 This molecule is an asymmetric top.
 Rotational symmetry number  1.
 Warning -- assumption of classical behavior for rotation
           may cause significant error
 Rotational temperatures (Kelvin)      0.03684     0.01207     0.01159
 Rotational constants (GHZ):           0.76757     0.25157     0.24149
 Zero-point vibrational energy     843148.8 (Joules/Mol)
                                  201.51740 (Kcal/Mol)
 Warning -- explicit consideration of  26 degrees of freedom as
           vibrations may cause significant error
 Vibrational temperatures:     33.75    48.38    74.74   111.49   114.34
          (Kelvin)            183.02   228.04   244.84   307.59   333.51
                              359.09   370.83   443.89   464.29   496.70
                              500.21   557.47   577.64   591.26   637.75
                              668.71   724.48   750.48   783.47   831.60
                              850.92   932.25   989.64  1031.67  1056.25
                             1080.67  1180.42  1195.46  1221.07  1276.00
                             1284.21  1290.13  1316.80  1322.99  1408.20
                             1427.96  1442.71  1454.45  1495.13  1506.55
                             1542.78  1561.06  1572.93  1599.22  1638.49
                             1652.11  1679.29  1685.87  1704.58  1745.21
                             1768.52  1795.90  1826.79  1836.80  1859.16
                             1867.77  1894.40  1898.20  1911.14  1944.19
                             1958.80  1967.75  1986.80  1990.58  2026.92
                             2032.59  2050.53  2061.28  2072.21  2139.52
                             2140.73  2167.34  2182.22  2184.88  2196.25
                             2201.87  2204.82  2211.77  2256.17  2572.44
                             4273.44  4366.49  4368.11  4380.01  4384.52
                             4396.72  4415.73  4416.70  4427.10  4427.48
                             4445.99  4447.20  4466.43  4469.00  4480.41
                             4498.28  4511.22  4568.44  5096.91  5183.90

 Zero-point correction=                           0.321138 (Hartree/Particle)
 Thermal correction to Energy=                    0.337683
 Thermal correction to Enthalpy=                  0.338628
 Thermal correction to Gibbs Free Energy=         0.275818
 Sum of electronic and zero-point Energies=          -1164.282692
 Sum of electronic and thermal Energies=             -1164.266147
 Sum of electronic and thermal Enthalpies=           -1164.265203
 Sum of electronic and thermal Free Energies=        -1164.328012

                     E (Thermal)             CV                S
                      KCal/Mol        Cal/Mol-Kelvin    Cal/Mol-Kelvin
 Total                  211.900             64.210            132.194
 Electronic               0.000              0.000              0.000
 Translational            0.889              2.981             42.568
 Rotational               0.889              2.981             33.199
 Vibrational            210.122             58.249             56.427
 Vibration     1          0.593              1.985              6.317
 Vibration     2          0.594              1.983              5.603
 Vibration     3          0.596              1.977              4.742
 Vibration     4          0.599              1.964              3.953
 Vibration     5          0.600              1.963              3.904
 Vibration     6          0.611              1.926              2.988
 Vibration     7          0.621              1.893              2.568
 Vibration     8          0.625              1.879              2.434
 Vibration     9          0.644              1.820              2.011
 Vibration    10          0.653              1.792              1.865
 Vibration    11          0.662              1.763              1.734
 Vibration    12          0.667              1.750              1.677
 Vibration    13          0.698              1.658              1.370
 Vibration    14          0.708              1.630              1.296
 Vibration    15          0.724              1.585              1.188
 Vibration    16          0.725              1.580              1.177
 Vibration    17          0.756              1.497              1.010
 Vibration    18          0.767              1.467              0.957
 Vibration    19          0.775              1.446              0.923
 Vibration    20          0.803              1.376              0.816
 Vibration    21          0.822              1.328              0.752
 Vibration    22          0.859              1.242              0.649
 Vibration    23          0.877              1.202              0.606
 Vibration    24          0.900              1.152              0.556
 Vibration    25          0.935              1.079              0.489
 Vibration    26          0.949              1.050              0.465

                           ! Non-Optimized Parameters !
 Normal termination of Gaussian 16 at Sun Dec 13 16:36:14 2020.

 ----------------------------------------------------------------------
 # B3LYP/6-311++G(d,p) empiricaldispersion=gd3bj scf=xqc pop=npa geom=c
 heck
 ----------------------------------------------------------------------

 --------------------------------------
 CID_81039082_JID_7183_Energie_neutraal
 --------------------------------------
 Structure from the checkpoint file:  "JID_7183.chk"
 Charge =  0 Multiplicity = 1

 SCF Done:  E(RB3LYP) =  -1164.85632018     A.U. after   15 cycles
 Normal termination of Gaussian 16 at Sun Dec 13 16:44:13 2020.

 ----------------------------------------------------------------------
 # B3LYP/6-311++G(d,p) empiricaldispersion=gd3bj scf=xqc pop=npa geom=c
 heck
 ----------------------------------------------------------------------

 ------------------------------------
 CID_81039082_JID_7183_Energie_kation
 ------------------------------------
 Structure from the checkpoint file:  "JID_7183.chk"
 Charge =  1 Multiplicity = 2

 SCF Done:  E(UB3LYP) =  -1164.55504558     A.U. after   23 cycles
 Normal termination of Gaussian 16 at Sun Dec 13 17:01:56 2020.
 Gaussian 16:  ES64L-G16RevA.03 25-Dec-2016

 ----------------------------------------------------------------------
 # B3LYP/6-311++G(d,p) empiricaldispersion=gd3bj scf=xqc pop=npa geom=c
 heck
 ----------------------------------------------------------------------

 -----------------------------------
 CID_81039082_JID_7183_Energie_anion
 -----------------------------------
 Structure from the checkpoint file:  "JID_7183.chk"
 Charge = -1 Multiplicity = 2

                         Standard orientation:
 ---------------------------------------------------------------------
 Center     Atomic      Atomic             Coordinates (Angstroms)
 Number     Number       Type             X           Y           Z
 ---------------------------------------------------------------------
      1          6           0       -1.894765   -0.768130    1.878212
      2          6           0       -2.803330   -1.730559    1.103637
      3          6           0       -2.644199   -1.675037   -0.420220
      4          7           0       -3.221912   -0.488417   -1.048260
      5          6           0       -2.995582    0.838188   -0.801027
      6          8           0       -3.671544    1.702570   -1.346625
      7          6           0       -1.878950    1.215421    0.181264
      8          6           0       -2.154911    0.721853    1.623427
      9          7           0       -0.583546    0.832717   -0.390705
     10          6           0        0.566035    1.343139    0.337820
     11          6           0        1.855929    1.086462   -0.443165
     12          6           0        3.119335    1.632996    0.239901
     13          6           0        3.623390    0.575549    1.244508
     14          6           0        3.677615   -0.754192    0.491411
     15         16           0        2.202939   -0.733660   -0.601790
     16          8           0        1.123862   -1.509338    0.055787
     17          8           0        2.595153   -1.050490   -1.983752
     18          1           0       -0.849361   -1.006762    1.644882
     19          1           0       -2.019797   -0.958731    2.951530
     20          1           0       -2.576623   -2.755845    1.423374
     21          1           0       -3.856158   -1.541347    1.352654
     22          1           0       -1.586598   -1.796472   -0.690248
     23          1           0       -3.165971   -2.527270   -0.864864
     24          1           0       -3.972085   -0.629589   -1.712396
     25          1           0       -1.913154    2.308890    0.189512
     26          1           0       -1.526417    1.305735    2.308004
     27          1           0       -3.193472    0.972571    1.878800
     28          1           0       -0.500540   -0.179086   -0.426758
     29          1           0        0.456928    2.431493    0.432896
     30          1           0        0.668143    0.942982    1.361595
     31          1           0        1.733003    1.431898   -1.471735
     32          1           0        2.903399    2.585571    0.734030
     33          1           0        3.894601    1.820133   -0.511428
     34          1           0        2.931530    0.497958    2.089877
     35          1           0        4.606642    0.839144    1.644966
     36          1           0        3.608042   -1.645169    1.117523
     37          1           0        4.545904   -0.823718   -0.168698
 ---------------------------------------------------------------------

 SCF Done:  E(UB3LYP) =  -1164.85159442     A.U. after   33 cycles
 SCF Done:  E(UB3LYP) =  -1164.85159442     a.u. after    1 cycles

 The electronic state is 2-A.
 Alpha  occ. eigenvalues --  -88.95128 -19.02971 -19.02788 -19.00027 -14.25161
 Alpha  occ. eigenvalues --  -14.21380 -10.18396 -10.12984 -10.12721 -10.12084
 Alpha  occ. eigenvalues --  -10.11969 -10.11939 -10.10015 -10.09794 -10.08975
 Alpha  occ. eigenvalues --  -10.08449 -10.08093  -8.01728  -5.97999  -5.97852
 Alpha  occ. eigenvalues --   -5.97803  -1.01659  -0.95160  -0.91546  -0.84362
 Alpha  occ. eigenvalues --   -0.82794  -0.76721  -0.71727  -0.69230  -0.66357
 Alpha  occ. eigenvalues --   -0.62937  -0.60874  -0.57925  -0.55851  -0.51866
 Alpha  occ. eigenvalues --   -0.50160  -0.48683  -0.48194  -0.42918  -0.42624
 Alpha  occ. eigenvalues --   -0.41576  -0.40807  -0.39731  -0.37872  -0.37714
 Alpha  occ. eigenvalues --   -0.36692  -0.36233  -0.35311  -0.34686  -0.34566
 Alpha  occ. eigenvalues --   -0.33736  -0.32267  -0.31400  -0.31188  -0.30404
 Alpha  occ. eigenvalues --   -0.29528  -0.28436  -0.28077  -0.27611  -0.26294
 Alpha  occ. eigenvalues --   -0.25160  -0.24789  -0.24353  -0.24029  -0.23178
 Alpha  occ. eigenvalues --   -0.21821  -0.19385  -0.17448  -0.17097  -0.14344
 Alpha  occ. eigenvalues --    0.03579
 Alpha virt. eigenvalues --    0.05043   0.06361   0.06974   0.07694   0.08198
 Alpha virt. eigenvalues --    0.08362   0.09086   0.09562   0.10162   0.10397
 Alpha virt. eigenvalues --    0.10757   0.11006   0.11377   0.11522   0.12538

  Beta  occ. eigenvalues --  -88.95128 -19.02964 -19.02785 -19.00026 -14.25154
  Beta  occ. eigenvalues --  -14.21377 -10.18397 -10.12976 -10.12720 -10.12064
  Beta  occ. eigenvalues --  -10.11967 -10.11915 -10.09980 -10.09740 -10.08964
  Beta  occ. eigenvalues --  -10.08437 -10.08081  -8.01727  -5.97999  -5.97852
  Beta  occ. eigenvalues --   -5.97802  -1.01650  -0.95157  -0.91537  -0.84350
  Beta  occ. eigenvalues --   -0.82781  -0.76684  -0.71702  -0.69200  -0.66328
  Beta  occ. eigenvalues --   -0.62880  -0.60843  -0.57892  -0.55817  -0.51761
  Beta  occ. eigenvalues --   -0.50133  -0.48647  -0.48168  -0.42878  -0.42605
  Beta  occ. eigenvalues --   -0.41542  -0.40784  -0.39700  -0.37846  -0.37686
  Beta  occ. eigenvalues --   -0.36672  -0.36201  -0.35282  -0.34643  -0.34520
  Beta  occ. eigenvalues --   -0.33718  -0.32241  -0.31377  -0.31161  -0.30379
  Beta  occ. eigenvalues --   -0.29495  -0.28390  -0.28047  -0.27571  -0.26251
  Beta  occ. eigenvalues --   -0.25141  -0.24766  -0.24329  -0.24005  -0.23165
  Beta  occ. eigenvalues --   -0.21806  -0.19360  -0.17442  -0.17083  -0.14333
  Beta virt. eigenvalues --    0.05392   0.06434   0.07033   0.07534   0.08193
  Beta virt. eigenvalues --    0.08516   0.08793   0.09330   0.09821   0.10359
  Beta virt. eigenvalues --    0.10760   0.10976   0.11356   0.11650   0.11797

 Mulliken charges and spin densities:
               1          2
     1  C   -0.327404   0.125675
     2  C    0.524741  -0.908765
     3  C   -0.449626   0.061743
     4  N   -0.316134   0.028400
     5  C    0.033769  -0.153267
     6  O   -0.344453   0.005256
     7  C    0.779664  -0.437534
     8  C   -0.496351  -0.055727
     9  N    0.127308   0.026668
    10  C    0.024537  -1.375648
    11  C   -1.350132   1.554829
    12  C    0.281530  -0.727950
    13  C    0.624014  -0.840021
    14  C    0.181637  -0.932877
    15  S    0.609689  -0.167978
    16  O   -0.186685   0.012930
    17  O   -0.079378   0.009273
    18  H    0.153229   0.056563
    19  H   -0.203225   0.382084
    20  H    0.006100   0.149396
    21  H    0.025745   0.114782
    22  H    0.257663  -0.038931
    23  H   -0.129373   0.291598
    24  H    0.278534   0.051022
    25  H    0.225508   0.028449
    26  H   -0.258207   0.428791
    27  H    0.092095   0.074762
    28  H    0.262322  -0.028121
    29  H   -0.074191   0.227139
    30  H    0.630808  -0.429209
    31  H    0.254856   0.063124
    32  H   -0.506860   0.698722
    33  H   -0.294916   0.498389
    34  H   -0.408766   0.593938
    35  H   -1.064565   1.294854
    36  H   -0.005317   0.218825
    37  H    0.121835   0.098817
 Sum of Mulliken charges =  -1.00000   1.00000

 Dipole moment (field-independent basis, Debye):
    X=             -5.2352    Y=             -3.4753    Z=             -2.1092  Tot=              6.6283
 Quadrupole moment (field-independent basis, Debye-Ang):
   XX=           -203.7009   YY=           -155.2567   ZZ=           -160.5152
   XY=             -2.9450   XZ=            -13.5597   YZ=             -2.4446

 Summary of Natural Population Analysis:

                                       Natural Population
                Natural  -----------------------------------------------
    Atom  No    Charge         Core      Valence    Rydberg      Total
 -----------------------------------------------------------------------
      C    1   -0.20213      0.99962     2.19327    0.00924     3.20213
      C    2   -0.19288      0.99962     2.18570    0.00756     3.19288
      C    3   -0.09431      0.99961     2.08368    0.01101     3.09431
      N    4   -0.32224      0.99966     2.81309    0.00948     3.82224
      C    5    0.35007      0.99963     1.62670    0.02360     2.64993
      O    6   -0.32342      0.99988     3.31792    0.00562     4.32342
      C    7   -0.04572      0.99955     2.03296    0.01322     3.04572
      C    8   -0.20041      0.99961     2.19177    0.00903     3.20041
      N    9   -0.35048      0.99972     2.84027    0.01048     3.85048
      C   10   -0.09681      0.99958     2.08426    0.01297     3.09681
      C   11   -0.19220      0.99955     2.17847    0.01418     3.19220
      C   12   -0.19853      0.99961     2.18788    0.01104     3.19853
      C   13   -0.20024      0.99963     2.18991    0.01071     3.20024
      C   14   -0.28075      0.99959     2.27033    0.01082     3.28075
      S   15    1.00582      4.99926     1.90313    0.09179     6.99418
      O   16   -0.47700      0.99991     3.47136    0.00573     4.47700
      O   17   -0.46403      0.99991     3.45857    0.00555     4.46403
      H   18    0.10688      0.00000     0.39096    0.00217     0.39312
      H   19    0.10171      0.00000     0.39724    0.00105     0.39829
      H   20    0.10222      0.00000     0.39685    0.00094     0.39778
      H   21    0.09474      0.00000     0.40410    0.00115     0.40526
      H   22    0.09859      0.00000     0.39980    0.00161     0.40141
      H   23    0.10031      0.00000     0.39873    0.00096     0.39969
      H   24    0.19341      0.00000     0.30413    0.00247     0.30659
      H   25    0.10717      0.00000     0.39117    0.00166     0.39283
      H   26    0.10434      0.00000     0.39458    0.00108     0.39566
      H   27    0.09947      0.00000     0.39931    0.00122     0.40053
      H   28    0.18718      0.00000     0.30887    0.00395     0.31282
      H   29    0.10148      0.00000     0.39708    0.00144     0.39852
      H   30    0.09102      0.00000     0.40689    0.00210     0.40898
      H   31    0.12138      0.00000     0.37727    0.00135     0.37862
      H   32    0.11355      0.00000     0.38413    0.00232     0.38645
      H   33    0.10596      0.00000     0.39251    0.00152     0.39404
      H   34    0.10430      0.00000     0.39314    0.00256     0.39570
      H   35    0.11719      0.00000     0.37534    0.00747     0.38281
      H   36    0.11911      0.00000     0.37964    0.00124     0.38089
      H   37    0.11524      0.00000     0.38346    0.00130     0.38476
 =======================================================================
   * Total *    0.00000     20.99395    48.70448    0.30157    70.00000

 Normal termination of Gaussian 16 at Sun Dec 13 17:27:30 2020.
